Title
82326
    1SAPS     N    1   2.595   5.611  11.553  0.2518  0.1829 -0.2825
    1SAPS   HN1    2   2.681   5.650  11.508 -0.2252  1.4688 -0.0894
    1SAPS   HN2    3   2.533   5.694  11.561  0.3325  0.2476 -0.3265
    1SAPS   HN3    4   2.620   5.577  11.648  1.7736 -0.6418 -0.9473
    1SAPS   C12    5   2.528   5.501  11.470 -0.6558  0.0424  0.3355
    1SAPS  H12A    6   2.601   5.426  11.445 -1.5799 -0.2274 -1.6129
    1SAPS   C13    7   2.412   5.425  11.540 -0.7588  0.2360  0.5958
    1SAPS  O13A    8   2.378   5.448  11.657 -1.0027  0.3030  0.6098
    1SAPS  O13B    9   2.342   5.345  11.466 -0.1968  0.1110  0.0619
    1SAPS   C11   10   2.468   5.560  11.337 -0.5165  0.0421  0.3341
    1SAPS  H11A   11   2.405   5.643  11.374  0.6749  0.3569  1.7093
    1SAPS  H11B   12   2.406   5.483  11.285  1.6089  0.3511 -2.8465
    1SAPS     P   13   2.541   5.635  11.089 -0.4112 -0.4227 -0.0911
    1SAPS   O13   14   2.454   5.756  11.076  0.3728  0.0285 -0.0639
    1SAPS   O14   15   2.667   5.622  11.015 -0.4147  0.2984 -0.7411
    1SAPS   O12   16   2.565   5.623  11.245  0.5189 -0.3168  0.1633
    1SAPS   O11   17   2.455   5.505  11.065  0.4441  0.6103  0.1430
    1SAPS    C1   18   2.532   5.381  11.053  0.6352  0.1304  0.5294
    1SAPS    HA   19   2.627   5.372  11.111 -0.1955  2.6351  2.3600
    1SAPS    HB   20   2.468   5.296  11.085 -0.7608  1.0214  0.1125
    1SAPS    C2   21   2.572   5.363  10.902  0.6076 -0.1554 -0.3897
    1SAPS    HS   22   2.615   5.456  10.859  1.4343  1.0505  2.8578
    1SAPS   O21   23   2.453   5.331  10.833  1.0186  0.2237  0.0987
    1SAPS   C21   24   2.433   5.407  10.724 -0.0396  0.1833 -0.2919
    1SAPS   O22   25   2.495   5.505  10.693 -0.0589  0.3196  0.0277
    1SAPS   C22   26   2.321   5.332  10.640  0.4080  0.2469 -0.0778
    1SAPS   H2R   27   2.375   5.264  10.572  2.4098  0.5062  1.2107
    1SAPS   H2S   28   2.256   5.284  10.716 -2.3397  1.8269 -1.3326
    1SAPS    C3   29   2.689   5.262  10.883 -0.0885 -0.3138  0.0198
    1SAPS    HX   30   2.657   5.169  10.933 -0.6200 -0.2316 -0.1644
    1SAPS    HY   31   2.778   5.284  10.947 -2.1232  0.4172  2.7020
    1SAPS   O31   32   2.722   5.235  10.745 -0.0645 -0.1742  0.3350
    1SAPS   C31   33   2.808   5.322  10.697  0.6671 -0.6678  0.5556
    1SAPS   O32   34   2.855   5.419  10.751  0.5935 -0.3109  0.5696
    1SAPS   C32   35   2.832   5.293  10.549 -0.6817 -0.4621  0.5035
    1SAPS   H2X   36   2.897   5.205  10.530  0.8965  0.4958  1.3305
    1SAPS   H2Y   37   2.890   5.381  10.513  0.7938 -1.9151 -0.7574
    1SAPS   C23   38   2.240   5.428  10.553  0.4123  0.4391 -0.0202
    1SAPS   H3R   39   2.310   5.492  10.495 -0.8344  0.7836 -1.2036
    1SAPS   H3S   40   2.179   5.487  10.625  0.5429  0.6645 -0.0961
    1SAPS   C24   41   2.131   5.358  10.463 -0.0094 -0.2290 -0.5516
    1SAPS   H4R   42   2.058   5.298  10.522  1.3983 -1.7561 -0.3119
    1SAPS   H4S   43   2.170   5.279  10.395 -2.3146 -2.7678  0.9774
    1SAPS   C25   44   2.060   5.467  10.380  0.5112 -0.6271  0.5016
    1SAPS   H5R   45   1.993   5.541  10.426 -1.0136 -2.2155  0.8786
    1SAPS   C26   46   2.071   5.482  10.250  0.3445 -0.4656  0.4634
    1SAPS   H6R   47   2.013   5.567  10.209 -2.3622 -3.0259 -1.2714
    1SAPS   C27   48   2.150   5.407  10.140  0.3582 -0.7880 -0.9305
    1SAPS   H7R   49   2.169   5.300  10.165  1.6044 -0.5723 -0.9414
    1SAPS   H7S   50   2.253   5.449  10.138  1.4618 -3.3477 -0.7535
    1SAPS   C28   51   2.088   5.418  10.004 -0.1099  0.7889  0.7725
    1SAPS   H8R   52   1.999   5.356   9.984  0.6521  0.4388 -1.6853
    1SAPS   C29   53   2.128   5.500   9.902  0.9941 -0.7577 -0.7261
    1SAPS   H9R   54   2.070   5.497   9.808 -0.0761  1.3595 -0.1708
    1SAPS  C210   55   2.245   5.594   9.898  0.5320  0.6841 -0.0959
    1SAPS  H10R   56   2.322   5.550   9.831  1.6091  0.7733  1.0648
    1SAPS  H10S   57   2.292   5.598   9.999  0.7887  0.7161 -0.2168
    1SAPS  C211   58   2.200   5.734   9.863  0.5259  0.1671  0.0028
    1SAPS  H11R   59   2.181   5.809   9.941  1.9351 -1.2348  1.7429
    1SAPS  C212   60   2.191   5.787   9.740 -0.3688  0.1198 -0.7792
    1SAPS  H12R   61   2.160   5.892   9.735  0.5176  0.4303  0.0375
    1SAPS  C213   62   2.221   5.724   9.609  0.0072 -0.2674  0.0987
    1SAPS  H13R   63   2.251   5.618   9.622 -1.5271 -0.3342  3.5946
    1SAPS  H13S   64   2.314   5.772   9.571  2.4568 -3.5836  1.6549
    1SAPS  C214   65   2.113   5.734   9.499 -0.5301  0.3899 -0.8582
    1SAPS  H14R   66   2.008   5.757   9.523  0.1367  1.6534  0.9346
    1SAPS  C215   67   2.138   5.708   9.363 -0.3367 -0.2933  0.0539
    1SAPS  H15R   68   2.054   5.712   9.293  1.3510 -1.4986 -2.0926
    1SAPS  C216   69   2.278   5.674   9.305 -0.7658 -0.6435 -0.0148
    1SAPS  H16R   70   2.318   5.582   9.354  0.1567 -0.2165  0.0528
    1SAPS  H16S   71   2.349   5.759   9.318  0.5715 -1.7396 -0.0177
    1SAPS  C217   72   2.280   5.618   9.157  0.2089 -0.5369  0.5744
    1SAPS  H17R   73   2.214   5.531   9.134  0.8606 -0.7263 -0.6073
    1SAPS  H17S   74   2.376   5.581   9.114 -0.7390 -2.4352  0.0107
    1SAPS  C218   75   2.223   5.723   9.063 -0.8334  0.4655  0.5368
    1SAPS  H18R   76   2.309   5.790   9.039 -1.1722  0.6779 -0.0966
    1SAPS  H18S   77   2.137   5.778   9.108 -0.5056  1.0682  0.4277
    1SAPS  C219   78   2.185   5.650   8.931 -0.1698  0.1978  0.0215
    1SAPS  H19R   79   2.118   5.566   8.958  0.8009 -0.1355  1.4193
    1SAPS  H19S   80   2.276   5.606   8.883 -0.4333 -1.0337  0.6470
    1SAPS  C220   81   2.113   5.733   8.825 -0.6439  0.6421 -0.3378
    1SAPS  H20R   82   2.192   5.795   8.777  1.1341  0.1843  1.8872
    1SAPS  H20S   83   2.037   5.795   8.877  0.5787  0.1061  2.1703
    1SAPS  H20T   84   2.065   5.673   8.745 -1.1633  1.2654 -0.4946
    1SAPS   C33   85   2.700   5.256  10.469  0.2937  0.2107 -0.0256
    1SAPS   H3X   86   2.624   5.222  10.542  0.5115  2.6413  1.3906
    1SAPS   H3Y   87   2.724   5.173  10.399 -1.8697 -1.3556  1.0648
    1SAPS   C34   88   2.639   5.374  10.397  0.4944 -0.0164 -0.0927
    1SAPS   H4X   89   2.660   5.468  10.453  0.6246 -0.0767 -0.0372
    1SAPS   H4Y   90   2.529   5.371  10.391  0.4048  0.9841  0.9412
    1SAPS   C35   91   2.697   5.378  10.255  0.0610  0.6075  0.2432
    1SAPS   H5X   92   2.650   5.298  10.195 -1.8259  1.7467  0.1573
    1SAPS   H5Y   93   2.804   5.357  10.233  0.1575  0.6856  0.6352
    1SAPS   C36   94   2.666   5.502  10.176  0.0982  0.3109  0.1920
    1SAPS   H6X   95   2.737   5.575  10.221 -1.4751  0.8720  1.8558
    1SAPS   H6Y   96   2.568   5.543  10.207  0.2540 -1.5951  3.3900
    1SAPS   C37   97   2.699   5.492  10.027  0.1929  0.4434  0.0639
    1SAPS   H7X   98   2.804   5.463  10.003 -0.6574 -0.1876 -3.0749
    1SAPS   H7Y   99   2.682   5.594   9.987  2.3836  1.2589  1.1408
    1SAPS   C38  100   2.599   5.407   9.936 -0.0643 -0.9657  0.5027
    1SAPS   H8X  101   2.493   5.422   9.968  0.1534  1.3753  0.2424
    1SAPS   H8Y  102   2.608   5.299   9.958  0.9244 -1.1313 -0.7004
    1SAPS   C39  103   2.624   5.436   9.785 -0.5449  0.0449  0.2152
    1SAPS   H9X  104   2.716   5.381   9.756  1.2423  2.5138  1.0317
    1SAPS   H9Y  105   2.633   5.546   9.769 -2.2429 -0.2236 -3.0540
    1SAPS  C310  106   2.508   5.385   9.695 -0.1517 -0.0183 -0.1115
    1SAPS  H10X  107   2.419   5.393   9.761 -1.1888 -4.5741 -0.8196
    1SAPS  H10Y  108   2.515   5.278   9.668 -0.9043 -0.5997  1.9693
    1SAPS  C311  109   2.489   5.463   9.564  0.3601 -0.4455 -0.1563
    1SAPS  H11X  110   2.487   5.573   9.577  0.4861 -0.7017  2.3057
    1SAPS  H11Y  111   2.396   5.429   9.515  1.0515 -2.9592  0.2037
    1SAPS  C312  112   2.599   5.429   9.465 -0.2727 -0.0572  0.9760
    1SAPS  H12X  113   2.584   5.319   9.454 -0.0857  0.2116 -2.8967
    1SAPS  H12Y  114   2.693   5.443   9.523 -0.2516 -1.3253  1.2587
    1SAPS  C313  115   2.615   5.505   9.336 -0.2357  0.7596 -0.4373
    1SAPS  H13X  116   2.606   5.612   9.365 -3.7129  0.6936 -0.9815
    1SAPS  H13Y  117   2.528   5.493   9.267 -1.4283  2.2796  0.7483
    1SAPS  C314  118   2.739   5.470   9.252 -0.3370  0.2433  0.5366
    1SAPS  H14X  119   2.731   5.368   9.207 -1.7872  0.1153  1.0540
    1SAPS  H14Y  120   2.830   5.486   9.314  0.9068  0.0305 -1.1911
    1SAPS  C315  121   2.761   5.566   9.128  0.4456 -0.0861  0.6605
    1SAPS  H15X  122   2.800   5.663   9.166  2.5154 -0.9052  0.7411
    1SAPS  H15Y  123   2.667   5.584   9.072  1.2787  0.2818 -0.6395
    1SAPS  C316  124   2.864   5.509   9.029 -0.2671 -0.2954  0.2906
    1SAPS  H16X  125   2.956   5.485   9.086 -0.1574 -0.5640  0.0028
    1SAPS  H16Y  126   2.903   5.584   8.956  0.4300 -2.0735 -1.2115
    1SAPS  C317  127   2.805   5.398   8.937  0.2236  0.4348 -0.7530
    1SAPS  H17X  128   2.700   5.414   8.906 -0.0091  2.0878  0.7767
    1SAPS  H17Y  129   2.800   5.303   8.995  0.8776  2.3304  2.5642
    1SAPS  C318  130   2.886   5.371   8.810  0.4708 -0.5537 -0.5874
    1SAPS  H18X  131   2.974   5.317   8.851 -0.8384 -0.8233  2.0247
    1SAPS  H18Y  132   2.921   5.459   8.752  0.3328  1.0195  1.6582
    1SAPS  H18Z  133   2.846   5.301   8.734 -1.0768  1.1232 -1.3664
    2SAPS     N  134   0.360   5.057  11.142 -0.4303 -0.1000  0.1197
    2SAPS   HN1  135   0.303   4.970  11.133  1.0398 -1.0620 -0.0555
    2SAPS   HN2  136   0.333   5.118  11.221 -0.6632  0.9167 -0.7297
    2SAPS   HN3  137   0.337   5.119  11.061  0.5167  0.5664  0.3468
    2SAPS   C12  138   0.498   5.007  11.122 -0.2992  0.4498  0.6496
    2SAPS  H12A  139   0.562   5.093  11.128 -0.8240  0.8291  0.8385
    2SAPS   C13  140   0.537   4.904  11.233 -0.4844  0.9951 -0.0825
    2SAPS  O13A  141   0.455   4.867  11.322  0.4910 -0.2794 -0.5502
    2SAPS  O13B  142   0.654   4.857  11.233  0.0141  0.0970  0.2627
    2SAPS   C11  143   0.504   4.952  10.976  0.1810  0.4049 -0.4131
    2SAPS  H11A  144   0.443   4.859  10.976  3.2125 -1.6933 -1.0086
    2SAPS  H11B  145   0.609   4.923  10.953  0.7091 -0.1708  2.5956
    2SAPS     P  146   0.524   5.147  10.788  0.3815  0.1158  0.0362
    2SAPS   O13  147   0.429   5.200  10.689  0.2608  0.8293  0.7703
    2SAPS   O14  148   0.599   5.245  10.868  0.1141 -0.1348 -0.4389
    2SAPS   O12  149   0.448   5.050  10.887  0.1257 -0.4643 -0.1395
    2SAPS   O11  150   0.638   5.046  10.727  0.0876  0.5651  0.2100
    2SAPS    C1  151   0.601   4.934  10.651 -0.6644  0.5332  0.1356
    2SAPS    HA  152   0.639   4.850  10.713 -0.7817 -1.5740 -2.5429
    2SAPS    HB  153   0.491   4.920  10.656 -0.2526 -3.9038 -1.2895
    2SAPS    C2  154   0.668   4.930  10.513  0.1244 -0.3901 -0.2842
    2SAPS    HS  155   0.777   4.951  10.518 -0.2192  1.1625  1.7740
    2SAPS   O21  156   0.596   5.029  10.431 -0.2748  0.3389  0.5176
    2SAPS   C21  157   0.660   5.132  10.405 -0.6283 -0.5058 -0.1961
    2SAPS   O22  158   0.768   5.171  10.447 -0.2009  0.4275  0.2341
    2SAPS   C22  159   0.584   5.210  10.295 -0.5448  0.1140  0.1652
    2SAPS   H2R  160   0.506   5.148  10.245  0.1509 -1.0588  0.5260
    2SAPS   H2S  161   0.537   5.292  10.353  1.1142  1.3168 -0.1704
    2SAPS    C3  162   0.646   4.788  10.451 -0.2210 -0.0871  0.3212
    2SAPS    HX  163   0.536   4.773  10.459 -0.1040 -0.2890  1.5512
    2SAPS    HY  164   0.704   4.710  10.504  0.5993 -0.3165 -0.8985
    2SAPS   O31  165   0.691   4.787  10.315 -0.1818 -0.3455  0.3030
    2SAPS   C31  166   0.611   4.832  10.215  0.5045 -0.7538 -0.3430
    2SAPS   O32  167   0.492   4.860  10.225 -0.4551 -0.0345 -0.2586
    2SAPS   C32  168   0.692   4.854  10.083 -0.4416  0.6009  0.0694
    2SAPS   H2X  169   0.768   4.773  10.078  1.8322  2.7657 -1.6862
    2SAPS   H2Y  170   0.746   4.948  10.104  0.4543  0.1979 -0.4062
    2SAPS   C23  171   0.679   5.285  10.195 -0.0405 -1.2158 -0.3073
    2SAPS   H3R  172   0.730   5.211  10.130 -1.6463 -2.8167  0.1980
    2SAPS   H3S  173   0.761   5.312  10.265 -1.9007 -1.9456  2.2452
    2SAPS   C24  174   0.614   5.406  10.127  0.1992  0.2860  0.6632
    2SAPS   H4R  175   0.699   5.449  10.071 -0.3969 -0.9165 -1.2324
    2SAPS   H4S  176   0.576   5.472  10.207 -1.4070  1.3321 -0.9398
    2SAPS   C25  177   0.489   5.376  10.049 -0.9058  0.2266  0.2593
    2SAPS   H5R  178   0.415   5.322  10.110  1.6924 -3.0583  0.6305
    2SAPS   C26  179   0.461   5.405   9.920 -0.1181 -0.1140 -0.9570
    2SAPS   H6R  180   0.368   5.369   9.874 -1.5341  0.8611  1.0711
    2SAPS   C27  181   0.546   5.469   9.817 -0.5028 -0.0379  0.2962
    2SAPS   H7R  182   0.536   5.414   9.721 -0.5234 -0.6380  0.6378
    2SAPS   H7S  183   0.653   5.452   9.842 -0.2653 -0.5306 -1.0187
    2SAPS   C28  184   0.514   5.615   9.808  0.1065 -0.7619  0.2323
    2SAPS   H8R  185   0.466   5.658   9.898  0.5124 -0.2344  0.1962
    2SAPS   C29  186   0.532   5.686   9.697  0.2178 -0.3751 -0.1259
    2SAPS   H9R  187   0.506   5.793   9.703 -2.4258 -1.0160  0.3138
    2SAPS  C210  188   0.579   5.642   9.558  0.1052 -0.1202  0.0487
    2SAPS  H10R  189   0.655   5.567   9.586 -0.0861 -0.1800  0.4154
    2SAPS  H10S  190   0.632   5.722   9.502  3.0181 -2.0551 -0.0249
    2SAPS  C211  191   0.459   5.593   9.484 -0.1363  0.7760  0.1444
    2SAPS  H11R  192   0.416   5.502   9.528  1.2202 -0.9107 -1.9017
    2SAPS  C212  193   0.408   5.631   9.370  0.1829 -0.5104 -0.3644
    2SAPS  H12R  194   0.323   5.576   9.328 -0.2304 -0.6773  0.6861
    2SAPS  C213  195   0.455   5.742   9.275  0.0950  0.0190  0.4647
    2SAPS  H13R  196   0.477   5.698   9.176 -1.9611 -0.2408  0.0868
    2SAPS  H13S  197   0.545   5.793   9.315  1.8297 -0.2625 -2.9422
    2SAPS  C214  198   0.353   5.854   9.244 -0.3306  0.5838 -0.2349
    2SAPS  H14R  199   0.259   5.835   9.299  0.5385 -0.8973  0.7584
    2SAPS  C215  200   0.365   5.957   9.167  0.3444 -0.1910 -0.1796
    2SAPS  H15R  201   0.279   6.023   9.148  0.7637  0.3184 -0.2926
    2SAPS  C216  202   0.495   5.993   9.091  0.5022 -0.5240  0.2348
    2SAPS  H16R  203   0.583   5.926   9.098 -0.3762 -1.7634 -0.2752
    2SAPS  H16S  204   0.523   6.097   9.119 -0.0152  0.4961 -2.8329
    2SAPS  C217  205   0.469   6.001   8.932  0.4045  0.1921  0.8471
    2SAPS  H17R  206   0.433   6.104   8.917  1.8161  0.5271 -0.3734
    2SAPS  H17S  207   0.376   5.944   8.912  0.5085 -0.0563  1.0593
    2SAPS  C218  208   0.581   5.964   8.835  0.0844 -0.6563 -0.0805
    2SAPS  H18R  209   0.541   5.903   8.752  0.0471 -1.1958  0.3307
    2SAPS  H18S  210   0.650   5.895   8.888  0.4661  0.3211  0.7190
    2SAPS  C219  211   0.652   6.088   8.781  0.3151 -0.6406 -0.0188
    2SAPS  H19R  212   0.685   6.157   8.862 -0.4984 -0.4857  0.1890
    2SAPS  H19S  213   0.572   6.140   8.723 -1.1686 -0.9099  1.7725
    2SAPS  C220  214   0.773   6.047   8.690  0.0503 -0.1610  0.4357
    2SAPS  H20R  215   0.741   5.973   8.613 -2.5895  0.8240  0.5531
    2SAPS  H20S  216   0.861   6.009   8.746  0.2984  1.8416  1.4099
    2SAPS  H20T  217   0.813   6.141   8.648  1.4473  0.5098  3.1538
    2SAPS   C33  218   0.618   4.874   9.951  0.1899 -0.4414  0.1354
    2SAPS   H3X  219   0.544   4.792   9.942 -0.6425  0.4925 -1.8836
    2SAPS   H3Y  220   0.700   4.861   9.877  1.5589 -0.9675  1.7172
    2SAPS   C34  221   0.539   5.007   9.947  0.1591 -0.0035  0.8723
    2SAPS   H4X  222   0.612   5.087   9.971  1.2660 -0.0475 -2.2360
    2SAPS   H4Y  223   0.457   5.015  10.022 -2.1314 -1.6899 -1.3644
    2SAPS   C35  224   0.478   5.041   9.811 -0.1974  0.6286 -0.8850
    2SAPS   H5X  225   0.404   5.123   9.821 -1.7827 -0.9180  0.3910
    2SAPS   H5Y  226   0.407   4.960   9.785 -0.1864  0.1160  0.6093
    2SAPS   C36  227   0.568   5.070   9.690 -0.0300 -0.0809 -0.4196
    2SAPS   H6X  228   0.606   4.969   9.666  0.0351 -0.3836  0.8845
    2SAPS   H6Y  229   0.657   5.133   9.711  0.1479 -1.1884  2.3956
    2SAPS   C37  230   0.496   5.104   9.561 -0.1384 -0.4062 -0.4280
    2SAPS   H7X  231   0.429   5.188   9.590 -0.6664 -0.6262 -0.9827
    2SAPS   H7Y  232   0.428   5.025   9.522 -1.2632  0.8953 -1.1230
    2SAPS   C38  233   0.587   5.161   9.461 -0.0886  0.0075  0.7420
    2SAPS   H8X  234   0.654   5.090   9.409 -0.8228 -0.7404  0.8107
    2SAPS   H8Y  235   0.644   5.241   9.514 -1.2033  0.9215  0.5872
    2SAPS   C39  236   0.510   5.229   9.344  0.2700  0.1532 -0.3749
    2SAPS   H9X  237   0.457   5.321   9.378 -0.6997 -0.1436 -1.0449
    2SAPS   H9Y  238   0.436   5.155   9.306 -2.4201  1.4964  2.0861
    2SAPS  C310  239   0.598   5.268   9.225 -0.0336 -0.1390 -0.0679
    2SAPS  H10X  240   0.634   5.168   9.192 -0.7989 -0.7010  0.7986
    2SAPS  H10Y  241   0.685   5.330   9.256  0.9961 -1.3336 -0.4873
    2SAPS  C311  242   0.515   5.336   9.117  0.8902 -0.3098 -0.2406
    2SAPS  H11X  243   0.478   5.437   9.146  0.3576 -0.3849 -0.6600
    2SAPS  H11Y  244   0.421   5.280   9.098  1.4773 -0.6349 -2.2875
    2SAPS  C312  245   0.572   5.347   8.979 -0.0972  0.6759  0.6769
    2SAPS  H12X  246   0.606   5.245   8.950 -0.9571  0.8020 -0.8463
    2SAPS  H12Y  247   0.665   5.407   8.977  0.6845 -0.5578 -1.3068
    2SAPS  C313  248   0.474   5.411   8.871 -0.0550 -0.2503  0.6911
    2SAPS  H13X  249   0.449   5.516   8.897 -0.7073 -0.4568  0.8922
    2SAPS  H13Y  250   0.380   5.354   8.861 -0.2277  0.1808 -0.2650
    2SAPS  C314  251   0.537   5.411   8.736  0.3178 -0.7107 -0.3122
    2SAPS  H14X  252   0.571   5.310   8.705 -0.4472 -0.7663 -0.9554
    2SAPS  H14Y  253   0.618   5.486   8.723 -1.0214  0.3046 -3.1373
    2SAPS  C315  254   0.434   5.445   8.626  0.1324  0.9068  0.7103
    2SAPS  H15X  255   0.385   5.542   8.649 -1.5779 -0.0390  1.1500
    2SAPS  H15Y  256   0.356   5.366   8.625 -0.7707  1.7703  1.7317
    2SAPS  C316  257   0.486   5.459   8.485 -0.2386  0.5450  0.1907
    2SAPS  H16X  258   0.528   5.359   8.459  1.8634  1.9259 -1.9201
    2SAPS  H16Y  259   0.560   5.542   8.473 -0.8209  0.9687 -0.4946
    2SAPS  C317  260   0.377   5.476   8.375  0.8405  0.1458 -0.0935
    2SAPS  H17X  261   0.309   5.390   8.386  0.1500  1.0643  3.3994
    2SAPS  H17Y  262   0.418   5.475   8.272  1.2881 -0.9494  0.0945
    2SAPS  C318  263   0.303   5.610   8.377 -0.0755  0.2101 -0.1040
    2SAPS  H18X  264   0.219   5.615   8.304  1.2763  0.0825 -1.6791
    2SAPS  H18Y  265   0.372   5.693   8.352 -0.2086  0.5049  0.4926
    2SAPS  H18Z  266   0.257   5.635   8.475  0.3975  2.9126 -0.5255
    3SAPS     N  267   0.906   6.727  10.916 -0.4058  0.2910 -0.1223
    3SAPS   HN1  268   0.966   6.718  10.832 -1.4208  3.6682 -1.2960
    3SAPS   HN2  269   0.898   6.635  10.963 -2.7893  1.6611  2.2561
    3SAPS   HN3  270   0.814   6.746  10.870 -1.4682 -2.0472  0.9297
    3SAPS   C12  271   0.963   6.824  11.007 -0.0160  0.0179 -0.2181
    3SAPS  H12A  272   0.919   6.806  11.104  2.1789 -1.7319  0.5199
    3SAPS   C13  273   1.118   6.806  11.029  0.1693 -0.1135 -0.6485
    3SAPS  O13A  274   1.182   6.713  10.973  0.3587  0.0571 -0.3013
    3SAPS  O13B  275   1.184   6.884  11.105 -0.1087 -0.1170  0.8010
    3SAPS   C11  276   0.944   6.967  10.949 -0.5367  0.1924 -0.3320
    3SAPS  H11A  277   1.013   6.980  10.863  0.2904 -0.5568  0.2103
    3SAPS  H11B  278   0.974   7.039  11.028  0.3704 -0.3561 -0.1698
    3SAPS     P  279   0.757   7.135  10.873  0.0986  0.2558  0.1669
    3SAPS   O13  280   0.623   7.147  10.933  0.2960 -0.1082 -0.0514
    3SAPS   O14  281   0.852   7.245  10.913 -0.0334 -0.2059  0.0221
    3SAPS   O12  282   0.807   6.986  10.914  0.6011 -0.2534  0.2092
    3SAPS   O11  283   0.746   7.133  10.721  0.1307 -0.2103  0.1675
    3SAPS    C1  284   0.795   7.026  10.640  0.3546 -0.6254  0.4738
    3SAPS    HA  285   0.783   6.926  10.687  2.3891 -2.3382 -2.4148
    3SAPS    HB  286   0.737   7.020  10.545 -2.0141  1.4560  1.7655
    3SAPS    C2  287   0.945   7.053  10.591  0.2024  0.5889 -0.2692
    3SAPS    HS  288   1.000   7.090  10.681 -1.1434  1.2154  0.3134
    3SAPS   O21  289   0.947   7.150  10.486 -0.6846  0.0512 -0.4273
    3SAPS   C21  290   0.940   7.281  10.504  0.7759 -0.3642 -0.6904
    3SAPS   O22  291   0.953   7.342  10.611 -0.1647 -0.3399  0.3296
    3SAPS   C22  292   0.894   7.355  10.378 -0.7537 -0.4021  0.1898
    3SAPS   H2R  293   0.817   7.432  10.403 -0.7987 -0.3190 -0.2091
    3SAPS   H2S  294   0.982   7.403  10.329  0.0212  0.4182  2.3190
    3SAPS    C3  295   1.008   6.918  10.549  0.2252  0.4383 -0.0943
    3SAPS    HX  296   1.023   6.862  10.645 -2.4092  0.3733  0.3164
    3SAPS    HY  297   1.113   6.935  10.518  0.3044  0.4162  0.1596
    3SAPS   O31  298   0.933   6.834  10.460  0.0115  0.2381  0.0798
    3SAPS   C31  299   0.994   6.819  10.333 -0.4827  0.1626 -0.0771
    3SAPS   O32  300   1.096   6.877  10.299 -0.2512  0.1975  0.4878
    3SAPS   C32  301   0.902   6.717  10.263 -0.7593  0.1116 -0.4910
    3SAPS   H2X  302   0.798   6.754  10.273 -0.0162  2.1765 -0.2952
    3SAPS   H2Y  303   0.914   6.618  10.313  1.7517  0.1806 -0.8879
    3SAPS   C23  304   0.832   7.259  10.278 -0.4620  0.0896 -0.3406
    3SAPS   H3R  305   0.776   7.325  10.208 -0.9216 -0.7069 -0.7257
    3SAPS   H3S  306   0.748   7.201  10.319  0.1246 -1.0752 -0.7580
    3SAPS   C24  307   0.932   7.179  10.195 -0.8961 -0.4106 -0.6226
    3SAPS   H4R  308   0.989   7.111  10.262 -1.3659 -0.4312 -0.2440
    3SAPS   H4S  309   1.002   7.245  10.139 -0.1672 -0.2661  0.4503
    3SAPS   C25  310   0.853   7.107  10.090  0.4907  0.1467 -0.1914
    3SAPS   H5R  311   0.781   7.031  10.125 -2.7279  1.1995 -4.1669
    3SAPS   C26  312   0.855   7.134   9.962 -0.0061 -0.2070 -0.5448
    3SAPS   H6R  313   0.781   7.090   9.894 -1.1999 -1.5630  1.5771
    3SAPS   C27  314   0.930   7.248   9.900  0.2994  0.2135  0.1243
    3SAPS   H7R  315   1.035   7.244   9.936  0.1626 -0.5750  0.4627
    3SAPS   H7S  316   0.911   7.349   9.940 -0.4467  0.1029  0.0526
    3SAPS   C28  317   0.943   7.247   9.744 -0.7664  0.6581 -0.3820
    3SAPS   H8R  318   0.986   7.150   9.714 -0.8333  0.5969 -0.2832
    3SAPS   C29  319   0.924   7.353   9.666  0.5699 -0.0519  0.0225
    3SAPS   H9R  320   0.940   7.353   9.557 -0.5942 -0.7097 -0.1629
    3SAPS  C210  321   0.861   7.482   9.708  0.4908  0.3237 -0.0996
    3SAPS  H10R  322   0.811   7.474   9.807  0.1474 -0.3677 -0.3287
    3SAPS  H10S  323   0.773   7.506   9.644 -0.0810  0.8914  0.8844
    3SAPS  C211  324   0.960   7.595   9.702 -0.1192  0.0287  0.3042
    3SAPS  H11R  325   1.015   7.601   9.797 -2.1144 -0.7726  1.5567
    3SAPS  C212  326   0.981   7.688   9.606 -0.3398  0.2773 -0.9856
    3SAPS  H12R  327   1.040   7.776   9.632 -0.3282  0.0953 -0.3883
    3SAPS  C213  328   0.903   7.694   9.478 -0.2643  0.6677  0.4386
    3SAPS  H13R  329   0.822   7.771   9.478 -1.0687 -0.1527  1.2866
    3SAPS  H13S  330   0.851   7.598   9.456 -0.3136  0.7184  0.3367
    3SAPS  C214  331   1.001   7.712   9.364  0.3605  0.2213 -0.1799
    3SAPS  H14R  332   1.077   7.634   9.349 -0.7667 -1.2578  1.5655
    3SAPS  C215  333   0.998   7.804   9.267 -0.1666 -0.1305 -0.8712
    3SAPS  H15R  334   1.075   7.792   9.189 -0.3254 -0.1246 -1.0299
    3SAPS  C216  335   0.891   7.913   9.258 -1.5055 -0.9081 -0.1047
    3SAPS  H16R  336   0.800   7.917   9.322 -0.1029  1.8718  1.8293
    3SAPS  H16S  337   0.852   7.905   9.154  1.3988  0.3402 -1.3564
    3SAPS  C217  338   0.955   8.054   9.271  0.7690 -0.8855  0.2484
    3SAPS  H17R  339   0.872   8.127   9.256  0.1438 -1.5765  0.3556
    3SAPS  H17S  340   1.022   8.058   9.182 -0.7793 -1.4224 -0.9706
    3SAPS  C218  341   1.019   8.091   9.404  0.9486  0.4759 -0.7560
    3SAPS  H18R  342   1.094   8.018   9.441  2.5569  2.0640 -0.8159
    3SAPS  H18S  343   0.939   8.087   9.481  1.3435  1.1709 -0.3049
    3SAPS  C219  344   1.085   8.226   9.413 -0.5925 -0.7389 -0.4735
    3SAPS  H19R  345   1.018   8.306   9.372 -0.4107 -0.5707 -0.4417
    3SAPS  H19S  346   1.180   8.235   9.356 -0.6257  1.4928 -0.2435
    3SAPS  C220  347   1.118   8.270   9.562  0.1429  0.2230  0.2692
    3SAPS  H20R  348   1.033   8.245   9.629 -0.7662  0.3570 -0.8155
    3SAPS  H20S  349   1.144   8.378   9.575 -0.8223  0.6643 -1.2909
    3SAPS  H20T  350   1.208   8.212   9.591  0.3687 -0.8271 -2.3818
    3SAPS   C33  351   0.923   6.711  10.106  0.3182 -0.7260  0.0532
    3SAPS   H3X  352   0.974   6.615  10.082 -1.6321 -1.9233  0.5413
    3SAPS   H3Y  353   0.993   6.794  10.084  0.3643 -0.1673  2.1824
    3SAPS   C34  354   0.802   6.713  10.016  0.5484 -0.0669  0.0970
    3SAPS   H4X  355   0.733   6.799  10.035  0.9324  0.2640 -0.0009
    3SAPS   H4Y  356   0.738   6.623  10.027  3.0415 -1.7416  1.1581
    3SAPS   C35  357   0.849   6.724   9.869  0.8611 -0.4024 -0.4081
    3SAPS   H5X  358   0.926   6.647   9.845 -2.5828 -3.7327 -1.1838
    3SAPS   H5Y  359   0.909   6.818   9.864 -0.0228  0.3234  1.9910
    3SAPS   C36  360   0.740   6.714   9.763 -0.1663 -0.3409  0.1226
    3SAPS   H6X  361   0.666   6.794   9.783  0.5834  0.4680 -0.2773
    3SAPS   H6Y  362   0.690   6.615   9.764 -1.9834  0.5463 -0.2923
    3SAPS   C37  363   0.804   6.721   9.622  0.0091 -0.1047 -0.3351
    3SAPS   H7X  364   0.739   6.668   9.550 -1.2752  0.3126  0.4973
    3SAPS   H7Y  365   0.905   6.676   9.633  0.3929  1.0226  0.7605
    3SAPS   C38  366   0.809   6.874   9.582  1.4875 -0.1855  0.7238
    3SAPS   H8X  367   0.865   6.928   9.661 -0.8418  0.8562  1.7143
    3SAPS   H8Y  368   0.702   6.904   9.582  1.4768 -0.2135  1.4983
    3SAPS   C39  369   0.894   6.896   9.461  0.2603  0.3592  0.1186
    3SAPS   H9X  370   0.998   6.877   9.494  0.1795  0.8333  0.6551
    3SAPS   H9Y  371   0.897   7.007   9.450  3.7946  0.1604 -1.8680
    3SAPS  C310  372   0.835   6.831   9.333 -1.0395 -0.0397 -0.3647
    3SAPS  H10X  373   0.740   6.888   9.327 -0.4866  0.9182 -0.0626
    3SAPS  H10Y  374   0.814   6.722   9.345  1.3332 -0.9863 -3.8596
    3SAPS  C311  375   0.929   6.855   9.213  0.7795  0.3074 -0.0152
    3SAPS  H11X  376   1.027   6.802   9.216  0.4619 -0.3698 -1.1713
    3SAPS  H11Y  377   0.966   6.959   9.199  0.8622  0.4358  1.1106
    3SAPS  C312  378   0.858   6.820   9.075  0.6715 -0.0177 -0.0853
    3SAPS  H12X  379   0.808   6.721   9.075 -0.9344  0.7861 -0.3246
    3SAPS  H12Y  380   0.927   6.801   8.990  2.3116  1.6294  0.8352
    3SAPS  C313  381   0.776   6.941   9.034 -0.4659 -0.0789  0.0672
    3SAPS  H13X  382   0.834   7.036   9.043 -0.7558  0.1895 -0.7805
    3SAPS  H13Y  383   0.690   6.949   9.103 -0.7637  1.7590 -0.4929
    3SAPS  C314  384   0.716   6.919   8.894 -0.3758  0.6967  0.4034
    3SAPS  H14X  385   0.647   6.832   8.904  1.6069 -0.6671  2.9624
    3SAPS  H14Y  386   0.795   6.917   8.816  0.8651  0.6787  1.6560
    3SAPS  C315  387   0.632   7.034   8.844 -0.1540  0.1846 -0.5088
    3SAPS  H15X  388   0.694   7.113   8.798  0.9619 -1.3222 -1.6490
    3SAPS  H15Y  389   0.584   7.083   8.931  0.5033 -1.1054  0.6063
    3SAPS  C316  390   0.529   6.980   8.745 -0.4643  0.0341 -1.2159
    3SAPS  H16X  391   0.465   6.898   8.783  0.0602  0.4382  0.5832
    3SAPS  H16Y  392   0.575   6.955   8.647  0.0604  0.7659 -1.1622
    3SAPS  C317  393   0.449   7.109   8.719  0.2898 -0.2633  0.3945
    3SAPS  H17X  394   0.525   7.190   8.716 -0.1608  0.1718  0.6629
    3SAPS  H17Y  395   0.371   7.117   8.798 -2.0818 -0.7732 -1.8358
    3SAPS  C318  396   0.363   7.087   8.591  0.6606  0.1000  0.1904
    3SAPS  H18X  397   0.354   7.190   8.551  3.8547  0.1254 -0.5857
    3SAPS  H18Y  398   0.269   7.034   8.616 -0.1993  2.0469  1.1856
    3SAPS  H18Z  399   0.425   7.036   8.514 -0.9507 -0.4798 -0.7565
    4SAPS     N  400   3.341   1.399  11.071  0.3310  0.4133 -0.1764
    4SAPS   HN1  401   3.413   1.433  11.003 -0.6800 -3.3120 -3.3363
    4SAPS   HN2  402   3.378   1.326  11.134 -1.8284 -0.5890 -0.0172
    4SAPS   HN3  403   3.270   1.348  11.014 -0.3958 -0.4973  1.5204
    4SAPS   C12  404   3.297   1.520  11.148 -0.7089 -0.4442  0.1393
    4SAPS  H12A  405   3.212   1.500  11.210  0.5301 -0.8204  1.7473
    4SAPS   C13  406   3.416   1.587  11.217  0.4572 -0.0972 -0.0671
    4SAPS  O13A  407   3.535   1.553  11.196 -0.0872 -0.0941 -0.2223
    4SAPS  O13B  408   3.385   1.697  11.274  0.1542  0.2041  0.5505
    4SAPS   C11  409   3.236   1.617  11.043 -0.0472  0.1328  0.0137
    4SAPS  H11A  410   3.308   1.649  10.965 -0.5200  0.2833 -0.3591
    4SAPS  H11B  411   3.205   1.707  11.101 -1.5698 -0.7447  0.5979
    4SAPS     P  412   3.069   1.603  10.837 -0.1271  0.6601  0.0366
    4SAPS   O13  413   3.145   1.520  10.741 -0.5513  0.1781 -0.3847
    4SAPS   O14  414   2.918   1.598  10.819  0.3647 -0.1527 -0.3778
    4SAPS   O12  415   3.111   1.584  10.985  0.1487 -0.1164  0.1328
    4SAPS   O11  416   3.117   1.752  10.808  0.0063  0.3488 -0.6640
    4SAPS    C1  417   3.020   1.858  10.788  0.2355 -0.0699 -0.3722
    4SAPS    HA  418   2.924   1.856  10.843  0.7522  1.7909  0.6420
    4SAPS    HB  419   3.065   1.952  10.827 -2.2678  0.9456  0.1142
    4SAPS    C2  420   2.987   1.882  10.638  0.1102  0.3332  0.5974
    4SAPS    HS  421   2.949   1.782  10.605  0.9345  0.7053 -1.5625
    4SAPS   O21  422   3.100   1.922  10.560 -0.4627  0.3868  0.0750
    4SAPS   C21  423   3.100   1.878  10.436 -0.4367  0.3890  1.0132
    4SAPS   O22  424   3.022   1.804  10.386 -0.1013 -0.1623 -0.5104
    4SAPS   C22  425   3.218   1.950  10.374  0.4041 -0.3253  0.2954
    4SAPS   H2R  426   3.202   2.058  10.389 -0.6586  0.1754 -3.7987
    4SAPS   H2S  427   3.313   1.931  10.429  1.4194  0.3964 -1.1741
    4SAPS    C3  428   2.881   1.988  10.614  0.6551 -0.6175  0.4012
    4SAPS    HX  429   2.907   2.093  10.638 -0.8735  0.2633 -1.6863
    4SAPS    HY  430   2.805   1.967  10.693  1.0522  1.8753  1.4928
    4SAPS   O31  431   2.825   1.984  10.482 -0.9081 -0.1472  0.2103
    4SAPS   C31  432   2.736   1.896  10.443  0.0677  0.1550 -0.5950
    4SAPS   O32  433   2.685   1.811  10.516  0.0158 -0.6713  0.2052
    4SAPS   C32  434   2.714   1.930  10.295 -0.0885 -0.6807 -0.4142
    4SAPS   H2X  435   2.806   1.978  10.255 -0.1900  2.0996  2.4792
    4SAPS   H2Y  436   2.629   2.002  10.295 -0.9926 -1.6762  2.1759
    4SAPS   C23  437   3.232   1.911  10.226  0.4452 -0.1524  0.1009
    4SAPS   H3R  438   3.128   1.908  10.187  0.9335  1.4264 -1.4097
    4SAPS   H3S  439   3.260   1.803  10.224 -0.0207 -0.2709  0.0508
    4SAPS   C24  440   3.319   1.994  10.144  0.4287  0.1678 -0.3534
    4SAPS   H4R  441   3.355   1.940  10.054 -0.6550 -1.0272 -0.0934
    4SAPS   H4S  442   3.409   2.006  10.208 -1.5322  3.2047  1.9167
    4SAPS   C25  443   3.255   2.125  10.109  0.2792  1.1704  0.3397
    4SAPS   H5R  444   3.254   2.197  10.192  0.1139  1.4369  0.1029
    4SAPS   C26  445   3.187   2.156   9.997  0.2838  0.7304  0.3907
    4SAPS   H6R  446   3.141   2.256   9.998  1.6632  1.3638  1.0200
    4SAPS   C27  447   3.162   2.061   9.882 -0.4243  0.4464  0.8735
    4SAPS   H7R  448   3.242   1.984   9.881 -1.6263 -0.8498  2.4852
    4SAPS   H7S  449   3.184   2.113   9.786  0.2054 -2.0235 -0.3671
    4SAPS   C28  450   3.027   2.001   9.862 -0.1437 -0.2070  0.0472
    4SAPS   H8R  451   2.952   2.013   9.942  1.2132 -0.5866  1.3995
    4SAPS   C29  452   2.998   1.928   9.756 -0.6705 -0.4303  0.2485
    4SAPS   H9R  453   2.903   1.874   9.764 -0.8623  0.2014  2.5954
    4SAPS  C210  454   3.092   1.899   9.641  0.1116  0.5175 -0.1235
    4SAPS  H10R  455   3.081   1.792   9.613  0.6071  0.0406  1.4438
    4SAPS  H10S  456   3.200   1.897   9.665  0.6359  4.1632 -1.8454
    4SAPS  C211  457   3.070   1.999   9.528 -0.3322 -0.3421 -0.2616
    4SAPS  H11R  458   3.041   2.101   9.555  1.0345 -0.4493  1.6927
    4SAPS  C212  459   3.097   1.962   9.398  0.1109 -0.3645 -0.2552
    4SAPS  H12R  460   3.082   2.037   9.319 -3.1723  1.1283  1.6844
    4SAPS  C213  461   3.153   1.828   9.341 -0.0391 -1.0277  0.2661
    4SAPS  H13R  462   3.072   1.762   9.301  0.1764 -0.9887 -0.2313
    4SAPS  H13S  463   3.200   1.767   9.421  0.9316 -0.4615  0.1237
    4SAPS  C214  464   3.245   1.840   9.219 -0.1684  0.3505  0.1075
    4SAPS  H14R  465   3.351   1.829   9.246  0.0127  0.0551 -0.7303
    4SAPS  C215  466   3.208   1.868   9.092 -0.4123 -0.0101 -0.4494
    4SAPS  H15R  467   3.277   1.863   9.007  0.8616  1.0974  0.4931
    4SAPS  C216  468   3.064   1.884   9.047  0.5315 -0.8178  0.2430
    4SAPS  H16R  469   3.000   1.958   9.099  1.4363 -0.9878  1.6362
    4SAPS  H16S  470   3.007   1.789   9.052 -0.7504  0.0214  2.2422
    4SAPS  C217  471   3.070   1.947   8.905  0.2911  0.0764  0.2235
    4SAPS  H17R  472   3.115   2.048   8.896  0.9571 -0.1710  0.7848
    4SAPS  H17S  473   2.961   1.970   8.894  0.1926  0.6191  2.1506
    4SAPS  C218  474   3.117   1.861   8.783 -0.6194 -0.0549  0.1871
    4SAPS  H18R  475   3.088   1.760   8.817  1.5061  0.0696  2.5636
    4SAPS  H18S  476   3.228   1.867   8.778 -0.6257  2.2965  1.7659
    4SAPS  C219  477   3.040   1.884   8.654 -0.5817  0.7371  0.6370
    4SAPS  H19R  478   3.050   1.983   8.605  0.2375 -0.8263 -2.4949
    4SAPS  H19S  479   2.934   1.864   8.683 -0.8051 -0.2942 -0.8304
    4SAPS  C220  480   3.072   1.781   8.542  0.1618 -0.0313 -0.0817
    4SAPS  H20R  481   3.018   1.685   8.553  0.6247 -0.1389  1.3409
    4SAPS  H20S  482   3.180   1.761   8.523 -0.0093  0.0960 -1.2719
    4SAPS  H20T  483   3.033   1.828   8.449 -0.6340  1.9566  1.2332
    4SAPS   C33  484   2.676   1.797  10.216 -0.5588 -0.1097  0.0025
    4SAPS   H3X  485   2.590   1.745  10.263 -1.6086  1.2723 -0.3388
    4SAPS   H3Y  486   2.762   1.729  10.234  0.5403  1.1214 -0.5196
    4SAPS   C34  487   2.659   1.827  10.068  0.5307 -0.3494  0.9032
    4SAPS   H4X  488   2.753   1.865  10.022 -0.8629  1.0037 -0.8382
    4SAPS   H4Y  489   2.588   1.909  10.049  0.5378  0.2032  3.0506
    4SAPS   C35  490   2.633   1.705   9.988 -0.9537 -0.7062  0.0235
    4SAPS   H5X  491   2.540   1.651  10.016 -2.5134  1.5135 -0.7270
    4SAPS   H5Y  492   2.716   1.632   9.992 -1.0783 -0.8713 -0.3073
    4SAPS   C36  493   2.615   1.747   9.840 -0.5703 -0.0413 -0.0422
    4SAPS   H6X  494   2.687   1.825   9.807 -2.2617  1.8957  0.7237
    4SAPS   H6Y  495   2.514   1.788   9.817  0.1748  1.0100 -1.5302
    4SAPS   C37  496   2.637   1.623   9.754 -0.5720 -0.0385  0.9048
    4SAPS   H7X  497   2.568   1.540   9.782 -1.1980 -0.1573 -0.9321
    4SAPS   H7Y  498   2.743   1.590   9.760 -0.6018  0.0580  2.0232
    4SAPS   C38  499   2.595   1.646   9.598  0.1219  0.1176 -0.5554
    4SAPS   H8X  500   2.501   1.704   9.592  0.2891  0.6622  1.6470
    4SAPS   H8Y  501   2.580   1.545   9.553  0.4057 -0.2927  0.2625
    4SAPS   C39  502   2.707   1.705   9.521  0.0145 -0.6631  0.0419
    4SAPS   H9X  503   2.807   1.660   9.541  1.7347  3.2232  0.6914
    4SAPS   H9Y  504   2.719   1.815   9.522 -0.1863 -0.6205 -1.2408
    4SAPS  C310  505   2.703   1.676   9.368 -0.2878 -0.1943  0.2079
    4SAPS  H10X  506   2.700   1.566   9.348 -0.4645 -0.1057 -0.2635
    4SAPS  H10Y  507   2.802   1.714   9.336 -0.5608  1.4514  1.2482
    4SAPS  C311  508   2.587   1.755   9.308 -0.2088 -0.3125 -0.1400
    4SAPS  H11X  509   2.603   1.864   9.326 -0.5612 -0.2058 -0.4628
    4SAPS  H11Y  510   2.493   1.722   9.357  0.1643 -2.7248 -0.9700
    4SAPS  C312  511   2.567   1.739   9.153 -0.2349  0.0651  0.6605
    4SAPS  H12X  512   2.513   1.642   9.140 -1.7087  0.8165  1.1113
    4SAPS  H12Y  513   2.654   1.735   9.084 -1.7573 -0.7853 -1.2927
    4SAPS  C313  514   2.466   1.848   9.100 -0.7478  0.7811 -0.3954
    4SAPS  H13X  515   2.514   1.948   9.094 -2.5875  1.6335 -1.2537
    4SAPS  H13Y  516   2.383   1.864   9.172 -2.0179 -1.2609 -1.3501
    4SAPS  C314  517   2.408   1.813   8.959  0.4224  0.6266 -0.6343
    4SAPS  H14X  518   2.337   1.728   8.962  1.3108 -0.1925 -2.0399
    4SAPS  H14Y  519   2.488   1.783   8.888 -0.3686  0.3275 -1.4018
    4SAPS  C315  520   2.336   1.924   8.890  0.7625  0.3537 -0.0514
    4SAPS  H15X  521   2.404   2.009   8.869 -0.1635  1.7512  2.3635
    4SAPS  H15Y  522   2.258   1.967   8.957  0.7633 -1.0134  0.8419
    4SAPS  C316  523   2.277   1.872   8.764 -0.5563  0.4855 -0.0153
    4SAPS  H16X  524   2.211   1.788   8.794  0.0981 -0.7192 -1.8089
    4SAPS  H16Y  525   2.358   1.838   8.696  0.4666 -0.0339  1.4417
    4SAPS  C317  526   2.179   1.967   8.691 -0.1805  0.7216  0.4992
    4SAPS  H17X  527   2.248   2.040   8.643  0.2259  2.3272  3.3876
    4SAPS  H17Y  528   2.117   2.008   8.773 -0.2287  1.9897 -0.1551
    4SAPS  C318  529   2.079   1.900   8.601 -0.1367  0.7305 -0.4249
    4SAPS  H18X  530   2.133   1.850   8.517  2.1493  0.0184  1.3931
    4SAPS  H18Y  531   2.014   1.974   8.552 -1.3733  1.7004  2.5459
    4SAPS  H18Z  532   2.014   1.835   8.664  0.3092  1.7710  1.1286
    5SAPS     N  533   6.472   6.801  10.912  0.3290  0.8808  0.7129
    5SAPS   HN1  534   6.561   6.848  10.884  1.3394 -0.6848  1.2398
    5SAPS   HN2  535   6.470   6.736  10.992 -0.4923  0.1359  0.0989
    5SAPS   HN3  536   6.450   6.758  10.819  1.7751 -3.0636  2.0976
    5SAPS   C12  537   6.384   6.913  10.936 -0.0911 -0.4789 -0.2413
    5SAPS  H12A  538   6.355   6.957  10.842  0.0248 -0.6741 -0.3696
    5SAPS   C13  539   6.262   6.877  11.018  0.7284 -0.4885  0.4006
    5SAPS  O13A  540   6.256   6.767  11.078  0.5589 -0.1023  0.0220
    5SAPS  O13B  541   6.174   6.967  11.037  0.0800  0.1124  1.0563
    5SAPS   C11  542   6.470   7.022  11.013  0.3410  0.9121 -1.1511
    5SAPS  H11A  543   6.483   6.975  11.113 -4.9291 -0.5307 -1.0006
    5SAPS  H11B  544   6.398   7.106  11.024  0.2527  0.6275  0.6956
    5SAPS     P  545   6.635   7.206  10.946  0.4965 -0.2267  0.2884
    5SAPS   O13  546   6.577   7.271  11.067  0.5000  0.0236 -0.7106
    5SAPS   O14  547   6.784   7.204  10.945  0.2909 -0.4373 -0.3720
    5SAPS   O12  548   6.589   7.053  10.948 -0.4900  0.0070 -0.1205
    5SAPS   O11  549   6.588   7.260  10.807 -0.8539 -0.4355 -0.1491
    5SAPS    C1  550   6.597   7.191  10.681 -0.2968  0.4971 -0.2430
    5SAPS    HA  551   6.613   7.081  10.692 -0.8464  0.3650 -0.7437
    5SAPS    HB  552   6.505   7.212  10.622  0.1205  1.8925 -0.4155
    5SAPS    C2  553   6.726   7.240  10.587  0.2749  0.4405 -0.2292
    5SAPS    HS  554   6.813   7.227  10.654 -0.9147 -1.0621  1.0605
    5SAPS   O21  555   6.698   7.371  10.537 -0.4402  0.2126 -0.0781
    5SAPS   C21  556   6.800   7.447  10.543  0.1326  0.9648  0.3309
    5SAPS   O22  557   6.909   7.411  10.587 -0.0479  0.6894 -0.0404
    5SAPS   C22  558   6.763   7.582  10.489  0.0014  0.3023 -0.2870
    5SAPS   H2R  559   6.700   7.559  10.401 -3.5222  0.5423  2.0661
    5SAPS   H2S  560   6.708   7.629  10.573 -0.7842  0.7747 -1.0697
    5SAPS    C3  561   6.745   7.141  10.473 -0.6537 -0.2187  0.1717
    5SAPS    HX  562   6.650   7.121  10.420 -0.6245  0.6247 -0.2111
    5SAPS    HY  563   6.764   7.044  10.523  0.6530  0.7605  1.6451
    5SAPS   O31  564   6.847   7.183  10.379  0.1183  1.0275  0.6941
    5SAPS   C31  565   6.968   7.168  10.427 -0.5044 -0.4997  0.1037
    5SAPS   O32  566   6.995   7.126  10.541  0.2422  0.3354 -0.3717
    5SAPS   C32  567   7.071   7.214  10.323 -0.0993  0.2804 -0.4357
    5SAPS   H2X  568   7.097   7.317  10.356  0.4486 -0.1842  0.6154
    5SAPS   H2Y  569   7.016   7.211  10.227  0.3730 -2.8376 -0.6520
    5SAPS   C23  570   6.869   7.679  10.429  0.1784  0.1392 -0.4428
    5SAPS   H3R  571   6.959   7.675  10.495 -0.1513  0.7535  0.0505
    5SAPS   H3S  572   6.832   7.784  10.435 -1.1830 -0.4012  0.9639
    5SAPS   C24  573   6.908   7.651  10.281  0.4332 -0.1711  0.4592
    5SAPS   H4R  574   6.938   7.544  10.269  0.3625 -0.1285 -0.1000
    5SAPS   H4S  575   7.005   7.702  10.260  0.4628 -0.0786  0.8156
    5SAPS   C25  576   6.812   7.685  10.169 -0.3537  0.5252 -0.2162
    5SAPS   H5R  577   6.713   7.716  10.205 -0.6708 -1.5061  0.7471
    5SAPS   C26  578   6.845   7.696  10.038  0.3632  0.4325  0.7678
    5SAPS   H6R  579   6.774   7.724   9.959  2.9884 -1.8481 -2.5291
    5SAPS   C27  580   6.978   7.671   9.979 -0.5249 -0.0029 -0.4733
    5SAPS   H7R  581   7.047   7.664  10.066 -2.8058 -0.8541  1.2890
    5SAPS   H7S  582   7.000   7.761   9.917 -0.3551 -0.5281 -1.1788
    5SAPS   C28  583   7.006   7.549   9.898  1.0830 -0.1740 -0.8044
    5SAPS   H8R  584   7.055   7.468   9.954  3.2120  0.5214 -1.6193
    5SAPS   C29  585   6.990   7.545   9.760  0.0466 -0.1066 -0.6374
    5SAPS   H9R  586   7.003   7.448   9.708 -0.2010 -1.7504  2.2412
    5SAPS  C210  587   6.944   7.644   9.662 -0.4766 -0.7722 -0.6194
    5SAPS  H10R  588   6.850   7.688   9.703  1.1935  2.5365 -0.1191
    5SAPS  H10S  589   6.922   7.591   9.567  3.0065 -0.3427 -1.7558
    5SAPS  C211  590   7.034   7.765   9.635  1.0380 -0.1741 -0.3515
    5SAPS  H11R  591   7.056   7.833   9.719 -0.0170  1.4678 -1.3629
    5SAPS  C212  592   7.122   7.784   9.535 -0.3326  0.1279  0.6375
    5SAPS  H12R  593   7.186   7.874   9.527 -0.9313  0.6345  1.4517
    5SAPS  C213  594   7.140   7.706   9.411  0.1762 -0.4873 -0.0573
    5SAPS  H13R  595   7.094   7.759   9.325  0.3694  1.8945  1.2486
    5SAPS  H13S  596   7.073   7.618   9.409 -0.7140  0.0783  2.6035
    5SAPS  C214  597   7.280   7.667   9.393 -0.4098  0.2713  0.5510
    5SAPS  H14R  598   7.320   7.611   9.479 -1.6579  0.4498  1.2787
    5SAPS  C215  599   7.360   7.717   9.298  0.4833  0.4750 -0.0201
    5SAPS  H15R  600   7.466   7.686   9.291  0.4547  0.7628 -2.0306
    5SAPS  C216  601   7.334   7.819   9.184 -0.3892  0.4787 -0.5124
    5SAPS  H16R  602   7.432   7.870   9.183  1.0019 -2.1150  0.4185
    5SAPS  H16S  603   7.262   7.900   9.210 -1.8232 -0.4152 -1.6117
    5SAPS  C217  604   7.297   7.758   9.051 -0.0451 -0.4382  0.4666
    5SAPS  H17R  605   7.350   7.662   9.032 -0.4747 -0.6307  0.2251
    5SAPS  H17S  606   7.331   7.827   8.971 -0.6097  0.0048  0.6038
    5SAPS  C218  607   7.148   7.726   9.037  0.4465 -0.1814  0.4300
    5SAPS  H18R  608   7.118   7.636   9.095  0.8833 -0.3122  0.4599
    5SAPS  H18S  609   7.081   7.805   9.076 -0.3281 -0.2624 -0.6957
    5SAPS  C219  610   7.105   7.702   8.892  0.4804 -0.1034 -0.2372
    5SAPS  H19R  611   7.074   7.801   8.852  2.2484  0.3296 -0.5790
    5SAPS  H19S  612   7.010   7.645   8.890 -0.2957  1.0709  1.5083
    5SAPS  C220  613   7.204   7.626   8.795 -0.4316 -0.2436 -0.2259
    5SAPS  H20R  614   7.300   7.679   8.784  1.1426 -3.2513 -1.7241
    5SAPS  H20S  615   7.159   7.619   8.693  1.9990 -2.9573 -1.1814
    5SAPS  H20T  616   7.234   7.523   8.825  1.7786  0.1198 -1.1022
    5SAPS   C33  617   7.190   7.121  10.314 -0.1192 -0.1363 -0.5643
    5SAPS   H3X  618   7.157   7.014  10.310 -0.1376 -0.1757  0.4430
    5SAPS   H3Y  619   7.258   7.126  10.401 -0.6434 -1.6919 -0.0399
    5SAPS   C34  620   7.287   7.150  10.204 -0.2991  0.0001 -0.4011
    5SAPS   H4X  621   7.355   7.064  10.186 -0.6962 -0.4441  0.1969
    5SAPS   H4Y  622   7.346   7.235  10.245 -0.1826  0.4484 -1.4745
    5SAPS   C35  623   7.228   7.190  10.071  0.2845 -0.3962 -0.4075
    5SAPS   H5X  624   7.182   7.290  10.084  0.5871 -0.4634  1.3570
    5SAPS   H5Y  625   7.141   7.128  10.041  0.8739 -1.1278 -0.6128
    5SAPS   C36  626   7.327   7.206   9.954  0.5222  0.3682 -0.2565
    5SAPS   H6X  627   7.368   7.105   9.931 -0.6378 -0.6220  1.8143
    5SAPS   H6Y  628   7.408   7.276   9.985  2.8543 -2.1288 -0.5541
    5SAPS   C37  629   7.270   7.249   9.817  0.1715  0.2772 -0.0541
    5SAPS   H7X  630   7.214   7.344   9.814  2.7343  1.8935  1.1658
    5SAPS   H7Y  631   7.207   7.162   9.790 -1.6456  1.7811 -0.7205
    5SAPS   C38  632   7.373   7.255   9.710 -0.0000  0.3337  0.0014
    5SAPS   H8X  633   7.433   7.162   9.711  2.6160  1.9158 -2.4262
    5SAPS   H8Y  634   7.444   7.335   9.742 -0.9010  2.0138 -2.0869
    5SAPS   C39  635   7.316   7.273   9.572  0.4619  0.0610 -0.2706
    5SAPS   H9X  636   7.268   7.372   9.571  1.5297  0.6682  2.5714
    5SAPS   H9Y  637   7.241   7.191   9.563  0.2746  0.3228 -1.1382
    5SAPS  C310  638   7.414   7.240   9.461  0.1890 -0.0766 -0.1310
    5SAPS  H10X  639   7.463   7.144   9.488 -0.9673 -0.5488  0.2752
    5SAPS  H10Y  640   7.500   7.311   9.465  1.1339 -0.9297 -3.6567
    5SAPS  C311  641   7.363   7.240   9.322  0.4810  0.4767 -0.4279
    5SAPS  H11X  642   7.308   7.335   9.308  1.4595  0.9020 -1.4352
    5SAPS  H11Y  643   7.286   7.160   9.321 -1.4927  2.3072  0.6693
    5SAPS  C312  644   7.466   7.217   9.209  0.1072 -0.3305 -0.3244
    5SAPS  H12X  645   7.410   7.215   9.113 -0.8130 -0.5499  0.2093
    5SAPS  H12Y  646   7.527   7.127   9.232 -0.4098 -0.2303  1.5171
    5SAPS  C313  647   7.554   7.339   9.186  1.0886  0.8828  0.1259
    5SAPS  H13X  648   7.642   7.353   9.253  2.0023  1.2303 -1.1155
    5SAPS  H13Y  649   7.494   7.431   9.201 -1.2243 -0.7875  1.3178
    5SAPS  C314  650   7.611   7.336   9.048  0.0907  0.5828  0.3288
    5SAPS  H14X  651   7.531   7.309   8.976 -0.3866 -1.0925  1.4577
    5SAPS  H14Y  652   7.703   7.276   9.031 -0.1065  0.4397 -0.2347
    5SAPS  C315  653   7.666   7.478   8.996  0.2785 -0.3438  0.2521
    5SAPS  H15X  654   7.760   7.506   9.049 -0.5583  1.5126  0.7833
    5SAPS  H15Y  655   7.592   7.549   9.036  0.9293  0.1159  0.6474
    5SAPS  C316  656   7.697   7.481   8.851  0.3700 -0.1310  0.1970
    5SAPS  H16X  657   7.602   7.459   8.797  0.9856  1.1361 -1.4464
    5SAPS  H16Y  658   7.761   7.396   8.821 -2.3605 -2.0469 -0.3495
    5SAPS  C317  659   7.758   7.613   8.791  0.4288  0.6166  0.1129
    5SAPS  H17X  660   7.791   7.593   8.687 -0.0799 -1.9194  0.3959
    5SAPS  H17Y  661   7.855   7.635   8.840  0.0897  2.4072  0.0070
    5SAPS  C318  662   7.656   7.728   8.803  0.8727  0.2629  0.2023
    5SAPS  H18X  663   7.558   7.696   8.761  0.4812 -0.0131  1.3160
    5SAPS  H18Y  664   7.681   7.824   8.752  2.2625 -0.9554 -1.4715
    5SAPS  H18Z  665   7.642   7.756   8.910 -0.8860  1.6045 -0.3377
    6SAPS     N  666   6.178   6.505  11.143 -0.0444 -0.4897  0.3330
    6SAPS   HN1  667   6.262   6.474  11.197 -1.2560 -2.9497  0.8619
    6SAPS   HN2  668   6.204   6.592  11.092  0.8335 -1.5134 -1.0144
    6SAPS   HN3  669   6.105   6.528  11.214  0.7906 -0.1411  1.0909
    6SAPS   C12  670   6.132   6.405  11.044 -0.1897  0.5444  0.1633
    6SAPS  H12A  671   6.151   6.307  11.086  3.8999  1.7526  1.2825
    6SAPS   C13  672   5.978   6.397  11.033 -0.4533 -0.1052  0.2726
    6SAPS  O13A  673   5.896   6.448  11.117  0.2372  0.4782 -0.5040
    6SAPS  O13B  674   5.938   6.316  10.947  0.1546 -0.7902  0.3503
    6SAPS   C11  675   6.206   6.428  10.913 -0.0779  0.0047  0.6417
    6SAPS  H11A  676   6.167   6.352  10.842  0.0602  0.6351 -0.1117
    6SAPS  H11B  677   6.310   6.409  10.946  0.4334 -0.2149 -1.0445
    6SAPS     P  678   6.228   6.607  10.719 -0.5997  0.6113 -0.2058
    6SAPS   O13  679   6.114   6.681  10.657  0.2677 -0.2293  0.5901
    6SAPS   O14  680   6.360   6.670  10.708 -0.2967 -0.5758  0.3112
    6SAPS   O12  681   6.197   6.564  10.867  0.0854 -0.3202 -0.1439
    6SAPS   O11  682   6.244   6.469  10.646  0.4737  0.1494 -0.3818
    6SAPS    C1  683   6.360   6.426  10.586 -0.7134 -0.3191  0.2274
    6SAPS    HA  684   6.408   6.506  10.525  1.3838 -1.0355  0.9013
    6SAPS    HB  685   6.436   6.410  10.665  2.3383  0.6529 -2.4016
    6SAPS    C2  686   6.320   6.312  10.495  0.4276 -0.4646 -0.1349
    6SAPS    HS  687   6.409   6.269  10.446  0.5623  1.3626 -1.5343
    6SAPS   O21  688   6.226   6.356  10.392 -0.0677  0.2089  0.1511
    6SAPS   C21  689   6.273   6.436  10.297 -0.2883 -0.1817 -0.2024
    6SAPS   O22  690   6.390   6.469  10.279  0.4618  0.0253 -0.2462
    6SAPS   C22  691   6.160   6.465  10.204 -0.2551  0.0314 -0.4006
    6SAPS   H2R  692   6.114   6.367  10.179 -0.7761 -0.2740  1.6932
    6SAPS   H2S  693   6.083   6.517  10.265 -1.5111 -1.8578 -0.3313
    6SAPS    C3  694   6.260   6.195  10.577  0.4411 -0.3533  0.0032
    6SAPS    HX  695   6.150   6.213  10.581  0.7631  1.8083 -0.5635
    6SAPS    HY  696   6.295   6.190  10.683  1.2285 -2.9971 -0.3465
    6SAPS   O31  697   6.291   6.059  10.533 -0.0927 -0.0977  0.2376
    6SAPS   C31  698   6.215   6.013  10.443 -0.2809 -0.1785 -0.3672
    6SAPS   O32  699   6.103   6.054  10.411  0.2503  0.4855 -0.3024
    6SAPS   C32  700   6.291   5.901  10.380  1.6197 -0.4224 -0.1831
    6SAPS   H2X  701   6.332   5.834  10.458  1.8911 -2.5276 -2.0967
    6SAPS   H2Y  702   6.380   5.933  10.322  0.8932 -2.1892 -2.3529
    6SAPS   C23  703   6.204   6.558  10.089  0.3321  0.3336 -0.1419
    6SAPS   H3R  704   6.145   6.542   9.997 -1.9902 -0.3029  1.4174
    6SAPS   H3S  705   6.313   6.542  10.074  0.3245 -0.5667  0.7224
    6SAPS   C24  706   6.180   6.708  10.120 -0.4291 -0.3961 -0.2336
    6SAPS   H4R  707   6.250   6.773  10.062  2.7834 -0.0263  3.8689
    6SAPS   H4S  708   6.220   6.713  10.223 -0.8305 -0.8727 -0.0525
    6SAPS   C25  709   6.045   6.767  10.105 -0.4966  0.1797  0.6168
    6SAPS   H5R  710   5.963   6.724  10.163  0.7426 -2.2630  0.6333
    6SAPS   C26  711   6.017   6.880  10.036 -0.0090  0.1387 -0.5345
    6SAPS   H6R  712   5.909   6.900  10.031 -0.4144 -1.6888  0.4297
    6SAPS   C27  713   6.104   6.964   9.952 -0.0826 -0.4982  0.0519
    6SAPS   H7R  714   6.214   6.962   9.967  0.2657 -3.9787 -2.2649
    6SAPS   H7S  715   6.071   7.070   9.949  1.8024  0.1911  2.6381
    6SAPS   C28  716   6.078   6.905   9.813 -0.3227 -0.4753  0.7294
    6SAPS   H8R  717   6.049   6.799   9.812  1.7518 -1.0875  1.8852
    6SAPS   C29  718   6.094   6.977   9.695  0.1494 -0.0066 -1.0378
    6SAPS   H9R  719   6.073   6.933   9.596 -1.1055  2.2854 -1.8160
    6SAPS  C210  720   6.135   7.120   9.689 -0.2868  0.8371  0.3992
    6SAPS  H10R  721   6.083   7.175   9.770 -1.5426 -0.1178  0.2445
    6SAPS  H10S  722   6.105   7.168   9.593  1.9934  2.0472  0.2496
    6SAPS  C211  723   6.286   7.142   9.705  0.8001 -0.1697 -0.2808
    6SAPS  H11R  724   6.315   7.132   9.811 -1.4433  0.2104  0.3984
    6SAPS  C212  725   6.370   7.175   9.612 -0.3295  0.1420 -0.8071
    6SAPS  H12R  726   6.471   7.195   9.649  0.9839 -2.8741 -2.5180
    6SAPS  C213  727   6.337   7.187   9.470  0.1577 -0.2963 -0.7463
    6SAPS  H13R  728   6.245   7.133   9.437 -0.0630 -0.2608 -0.1961
    6SAPS  H13S  729   6.420   7.146   9.409 -0.2965 -0.8137 -1.0246
    6SAPS  C214  730   6.316   7.330   9.433  0.0827 -0.3271 -0.3254
    6SAPS  H14R  731   6.325   7.396   9.521  1.9277 -3.5074  1.9609
    6SAPS  C215  732   6.275   7.372   9.314 -0.0014 -0.6315 -0.0225
    6SAPS  H15R  733   6.251   7.480   9.310  2.6990  0.0106  0.0759
    6SAPS  C216  734   6.253   7.278   9.201 -0.1863  1.4970 -0.0662
    6SAPS  H16R  735   6.183   7.312   9.122  0.0396 -1.7695 -1.7991
    6SAPS  H16S  736   6.207   7.183   9.236  0.4653  2.0881  2.4852
    6SAPS  C217  737   6.384   7.226   9.134 -0.0414  0.1458  0.1304
    6SAPS  H17R  738   6.365   7.142   9.064 -2.3797 -1.2592  2.3788
    6SAPS  H17S  739   6.459   7.170   9.195  1.4312 -0.6921 -2.3807
    6SAPS  C218  740   6.464   7.349   9.073 -0.3325 -0.0856 -0.4016
    6SAPS  H18R  741   6.491   7.407   9.164 -2.7435 -1.0377  0.9614
    6SAPS  H18S  742   6.401   7.418   9.013  0.5022  2.6277  1.7271
    6SAPS  C219  743   6.581   7.291   8.995  0.4228 -0.5104 -0.4095
    6SAPS  H19R  744   6.559   7.193   8.947 -2.7970 -0.8206  1.5125
    6SAPS  H19S  745   6.654   7.259   9.073  1.4031 -0.2878 -1.2337
    6SAPS  C220  746   6.649   7.390   8.906  0.1455  0.0412  0.6987
    6SAPS  H20R  747   6.748   7.350   8.875  0.0803  0.9208 -0.7180
    6SAPS  H20S  748   6.665   7.488   8.956  0.8137  1.1194 -1.5663
    6SAPS  H20T  749   6.596   7.406   8.809 -0.7013 -0.6045  1.0540
    6SAPS   C33  750   6.202   5.838  10.270 -0.1621  0.2668  0.1686
    6SAPS   H3X  751   6.097   5.827  10.305 -0.8386  0.6334 -1.6815
    6SAPS   H3Y  752   6.232   5.734  10.246 -0.3504  0.2979 -0.1953
    6SAPS   C34  753   6.205   5.912  10.136 -0.4549 -0.2967 -0.0426
    6SAPS   H4X  754   6.306   5.955  10.121  0.1772 -0.6291  2.9301
    6SAPS   H4Y  755   6.141   6.002  10.142 -0.0541 -0.1444  2.2902
    6SAPS   C35  756   6.161   5.836  10.014 -0.3049 -0.4093  0.1988
    6SAPS   H5X  757   6.056   5.805  10.036 -0.2260 -0.2490  0.8046
    6SAPS   H5Y  758   6.220   5.744   9.993 -0.1337 -0.6102  1.5052
    6SAPS   C36  759   6.158   5.927   9.896 -0.2809  0.4645 -0.2582
    6SAPS   H6X  760   6.258   5.948   9.851 -0.5195 -0.8921 -1.4616
    6SAPS   H6Y  761   6.119   6.019   9.943  0.9191  0.2265  1.2305
    6SAPS   C37  762   6.077   5.875   9.784  0.1048  0.0444  0.0759
    6SAPS   H7X  763   5.982   5.841   9.832  0.7888  0.1907  1.5433
    6SAPS   H7Y  764   6.128   5.789   9.738  1.3166 -0.3180  2.0556
    6SAPS   C38  765   6.058   5.971   9.667  0.6407  0.9612  0.4910
    6SAPS   H8X  766   6.151   6.013   9.622  0.0902 -0.1059 -1.7195
    6SAPS   H8Y  767   5.998   6.058   9.702 -1.5029  0.2660 -1.3095
    6SAPS   C39  768   5.997   5.900   9.550  0.5659  0.2399 -0.1550
    6SAPS   H9X  769   5.893   5.866   9.567  0.9586  0.2302  2.4489
    6SAPS   H9Y  770   6.055   5.807   9.534  1.1803  0.2479  1.9139
    6SAPS  C310  771   5.994   5.968   9.410  1.0160  0.7143 -0.2843
    6SAPS  H10X  772   6.070   6.048   9.420  1.9199 -0.1304 -0.3808
    6SAPS  H10Y  773   5.904   6.033   9.402 -0.1104 -0.9231 -1.2261
    6SAPS  C311  774   6.017   5.871   9.302 -0.2856  0.3009  0.1522
    6SAPS  H11X  775   5.925   5.809   9.304 -0.0988  0.0282  0.1556
    6SAPS  H11Y  776   6.105   5.808   9.324  0.3532  1.6345  1.5029
    6SAPS  C312  777   6.038   5.947   9.164  0.1663 -0.0447  0.1187
    6SAPS  H12X  778   6.132   6.007   9.168  1.1767 -1.5465 -0.4957
    6SAPS  H12Y  779   5.955   6.021   9.161  0.0490 -0.2216 -1.8950
    6SAPS  C313  780   6.057   5.859   9.040  0.1480  0.5013 -0.3679
    6SAPS  H13X  781   5.963   5.807   9.013 -0.4868  1.5016 -0.1342
    6SAPS  H13Y  782   6.127   5.778   9.066 -3.1684 -2.4840 -0.3301
    6SAPS  C314  783   6.109   5.922   8.912 -0.0973 -0.6696  0.7150
    6SAPS  H14X  784   6.202   5.978   8.934  0.8673  0.0430 -4.3824
    6SAPS  H14Y  785   6.037   5.995   8.868  2.0739 -0.3592 -2.5572
    6SAPS  C315  786   6.139   5.831   8.799  0.4438 -0.4018 -0.3872
    6SAPS  H15X  787   6.051   5.773   8.765  0.4228 -0.8828  0.4688
    6SAPS  H15Y  788   6.210   5.753   8.835  0.9857  0.9147  1.4616
    6SAPS  C316  789   6.215   5.895   8.679 -0.8079  0.3542 -0.2482
    6SAPS  H16X  790   6.318   5.932   8.697 -1.0249  1.1348 -0.5922
    6SAPS  H16Y  791   6.158   5.988   8.661  0.7639  1.8062  1.9845
    6SAPS  C317  792   6.223   5.808   8.552  0.9561 -0.2065  0.6580
    6SAPS  H17X  793   6.270   5.863   8.468 -1.5666  1.7934  0.4839
    6SAPS  H17Y  794   6.118   5.794   8.519 -0.2547  0.0472  4.1888
    6SAPS  C318  795   6.300   5.686   8.567  0.5844 -0.4783 -0.1801
    6SAPS  H18X  796   6.277   5.630   8.661 -1.4095 -0.2179 -0.4855
    6SAPS  H18Y  797   6.404   5.720   8.583 -0.9929  4.6262 -0.0010
    6SAPS  H18Z  798   6.296   5.612   8.484 -0.9294  0.0201 -0.5632
    7SAPS     N  799   1.944   0.314  10.937  0.0455 -0.0417  0.6884
    7SAPS   HN1  800   2.027   0.264  10.975  1.0000  0.6359 -0.4772
    7SAPS   HN2  801   1.978   0.365  10.853 -0.6227 -0.3503  0.2249
    7SAPS   HN3  802   1.920   0.390  11.004 -0.0612  0.2109  0.3636
    7SAPS   C12  803   1.831   0.225  10.903 -0.5135 -0.3183 -0.4338
    7SAPS  H12A  804   1.860   0.151  10.831  0.8267 -0.8353  0.6339
    7SAPS   C13  805   1.775   0.140  11.024  0.3978 -0.4130 -0.0870
    7SAPS  O13A  806   1.815   0.149  11.142 -0.7673  0.0932  0.2479
    7SAPS  O13B  807   1.685   0.051  10.995 -0.2023 -0.4337 -0.3695
    7SAPS   C11  808   1.714   0.311  10.847 -0.0529  1.2417 -0.0814
    7SAPS  H11A  809   1.701   0.393  10.920 -1.1160 -0.7415  2.0016
    7SAPS  H11B  810   1.624   0.246  10.847 -0.0870  1.2820 -0.5619
    7SAPS     P  811   1.804   0.491  10.679 -0.1334 -0.1365  0.1151
    7SAPS   O13  812   1.732   0.601  10.739  0.6740  0.0502 -0.1662
    7SAPS   O14  813   1.948   0.469  10.716  0.0482  0.0126  0.5587
    7SAPS   O12  814   1.731   0.357  10.707 -0.2016  0.9282 -0.5220
    7SAPS   O11  815   1.787   0.511  10.525  0.3498 -0.0007  0.4197
    7SAPS    C1  816   1.710   0.440  10.432 -0.4374 -0.0328 -0.0098
    7SAPS    HA  817   1.783   0.409  10.354 -2.1494 -0.3628 -1.5041
    7SAPS    HB  818   1.671   0.345  10.476  0.4078  0.3961  1.7103
    7SAPS    C2  819   1.596   0.527  10.378  0.2590  0.4921  0.0750
    7SAPS    HS  820   1.515   0.462  10.340  0.5810  0.2780 -0.2461
    7SAPS   O21  821   1.630   0.613  10.269 -0.1124  0.6584  0.2723
    7SAPS   C21  822   1.664   0.567  10.155  0.1931  0.2118 -0.0642
    7SAPS   O22  823   1.668   0.447  10.129  0.2795  0.0753  0.4460
    7SAPS   C22  824   1.705   0.676  10.058 -0.1714 -0.7868  0.0913
    7SAPS   H2R  825   1.618   0.745  10.055  1.6654  1.5959 -0.0488
    7SAPS   H2S  826   1.806   0.713  10.085  0.9821 -3.7936  0.1017
    7SAPS    C3  827   1.524   0.598  10.496  0.1921  0.0192  0.0968
    7SAPS    HX  828   1.597   0.676  10.526  1.3235 -0.7819 -0.5487
    7SAPS    HY  829   1.511   0.530  10.582  0.1753 -0.4137 -0.2510
    7SAPS   O31  830   1.397   0.646  10.451  0.0788 -0.6048 -0.5954
    7SAPS   C31  831   1.397   0.778  10.415 -0.7276 -0.5144 -0.2412
    7SAPS   O32  832   1.493   0.856  10.428  0.3145  0.4928  0.1048
    7SAPS   C32  833   1.259   0.819  10.381 -0.1399  0.3632  0.0065
    7SAPS   H2X  834   1.217   0.878  10.466 -0.0453  0.4291  0.0078
    7SAPS   H2Y  835   1.185   0.737  10.371 -0.6210  0.5469  1.7807
    7SAPS   C23  836   1.719   0.626   9.909 -0.3242  0.3325 -0.3341
    7SAPS   H3R  837   1.709   0.716   9.845  1.2510  0.1354 -0.8842
    7SAPS   H3S  838   1.627   0.566   9.900 -1.3345  1.1126  3.6966
    7SAPS   C24  839   1.850   0.550   9.875 -0.3666 -0.4651 -0.0911
    7SAPS   H4R  840   1.879   0.478   9.955  0.0189  0.1669  0.3411
    7SAPS   H4S  841   1.933   0.622   9.860 -1.3195  0.3810 -1.3720
    7SAPS   C25  842   1.828   0.457   9.755  0.0793  0.2668 -0.4959
    7SAPS   H5R  843   1.755   0.376   9.768 -1.8940  1.6698 -2.5823
    7SAPS   C26  844   1.868   0.473   9.628 -0.4319  0.0600  0.5052
    7SAPS   H6R  845   1.840   0.381   9.574 -0.2747  0.6250 -0.5447
    7SAPS   C27  846   1.962   0.575   9.567 -0.2525 -0.1834 -0.0864
    7SAPS   H7R  847   2.065   0.533   9.562 -0.3729 -0.6254  1.0231
    7SAPS   H7S  848   1.957   0.662   9.635 -1.6248  0.1328 -0.5675
    7SAPS   C28  849   1.903   0.602   9.426  0.6217  0.3091 -0.5027
    7SAPS   H8R  850   1.817   0.670   9.435 -0.2207 -1.1354  3.7280
    7SAPS   C29  851   1.953   0.557   9.310  0.6877 -0.1537 -0.1106
    7SAPS   H9R  852   1.903   0.587   9.216 -1.2092 -1.6147  0.4015
    7SAPS  C210  853   2.064   0.458   9.297  0.5378  0.0935 -0.3303
    7SAPS  H10R  854   2.075   0.402   9.393  2.0960  2.2410  0.7981
    7SAPS  H10S  855   2.161   0.510   9.280 -0.0191  1.2720  0.0703
    7SAPS  C211  856   2.025   0.370   9.180 -0.1266 -0.0331 -0.0518
    7SAPS  H11R  857   1.988   0.271   9.211  2.4768 -0.1912  2.7688
    7SAPS  C212  858   2.057   0.386   9.053  0.4802 -0.1015 -0.1320
    7SAPS  H12R  859   2.008   0.320   8.979  0.7780  0.5503 -0.9224
    7SAPS  C213  860   2.134   0.501   9.003 -0.5800  0.2757 -0.0392
    7SAPS  H13R  861   2.241   0.472   9.003 -0.4234  0.8327 -0.9864
    7SAPS  H13S  862   2.127   0.595   9.062  2.6558 -0.9551  2.4523
    7SAPS  C214  863   2.098   0.543   8.865 -0.5905  0.0197  0.3479
    7SAPS  H14R  864   2.066   0.648   8.860 -1.2838 -0.2577 -1.1170
    7SAPS  C215  865   2.108   0.478   8.749 -0.9455 -0.0859 -0.4518
    7SAPS  H15R  866   2.063   0.536   8.667 -0.9098  0.4988 -0.0623
    7SAPS  C216  867   2.158   0.335   8.723  0.0701 -0.4182 -0.4966
    7SAPS  H16R  868   2.173   0.269   8.811  2.8527 -2.8902 -2.7348
    7SAPS  H16S  869   2.256   0.330   8.672  0.8993 -0.1740  1.0535
    7SAPS  C217  870   2.046   0.259   8.637 -0.6382  0.1010  0.6382
    7SAPS  H17R  871   2.043   0.301   8.534 -0.8514 -1.9305 -0.1940
    7SAPS  H17S  872   1.947   0.265   8.686 -0.2605 -2.3226  1.7841
    7SAPS  C218  873   2.087   0.112   8.614 -0.0996  0.3915  0.5717
    7SAPS  H18R  874   2.013   0.061   8.549 -2.1763  3.0682  0.8010
    7SAPS  H18S  875   2.081   0.065   8.715  1.1932  0.1850  0.5620
    7SAPS  C219  876   2.225   0.088   8.552 -0.0960  1.1685 -0.2750
    7SAPS  H19R  877   2.298   0.096   8.636 -0.9969 -2.0622  0.8576
    7SAPS  H19S  878   2.244   0.176   8.486 -1.2892  0.5227 -1.4868
    7SAPS  C220  879   2.236  -0.038   8.482 -0.4163  0.6574  0.4216
    7SAPS  H20R  880   2.338  -0.059   8.445 -1.5491 -1.7084 -1.5622
    7SAPS  H20S  881   2.165  -0.060   8.399  0.7252 -0.5772 -0.2540
    7SAPS  H20T  882   2.211  -0.122   8.551  0.3318 -0.6616 -0.8626
    7SAPS   C33  883   1.245   0.909  10.253 -0.1831 -0.7727 -0.7374
    7SAPS   H3X  884   1.310   0.997  10.268  0.9083 -1.8594  1.1089
    7SAPS   H3Y  885   1.147   0.960  10.238  0.3222 -0.1436 -1.9462
    7SAPS   C34  886   1.266   0.839  10.113  0.0731 -1.2098 -1.5953
    7SAPS   H4X  887   1.165   0.821  10.069 -2.3228  2.2468  2.1939
    7SAPS   H4Y  888   1.319   0.741  10.114 -0.2916 -1.4167 -2.1720
    7SAPS   C35  889   1.333   0.940  10.023  0.1306 -0.1575 -0.1418
    7SAPS   H5X  890   1.438   0.933  10.059 -0.8320 -2.3096  2.4611
    7SAPS   H5Y  891   1.291   1.042  10.020  1.8323  0.5684  0.0716
    7SAPS   C36  892   1.330   0.908   9.872  0.5737  0.0864 -0.2980
    7SAPS   H6X  893   1.241   0.847   9.846 -0.6144  2.1697 -1.2195
    7SAPS   H6Y  894   1.414   0.837   9.858 -0.7076 -1.4480 -0.3818
    7SAPS   C37  895   1.325   1.021   9.766 -0.0921 -0.6123 -0.0054
    7SAPS   H7X  896   1.413   1.088   9.774 -1.4588  1.2929 -0.6746
    7SAPS   H7Y  897   1.241   1.093   9.781 -0.7670 -1.5724  0.8801
    7SAPS   C38  898   1.314   0.980   9.613  0.0365 -0.3683 -0.3845
    7SAPS   H8X  899   1.266   1.074   9.578 -1.7145 -1.5295 -1.1126
    7SAPS   H8Y  900   1.262   0.884   9.594 -1.5856  0.2799  0.6598
    7SAPS   C39  901   1.451   0.965   9.546  0.5230  0.6377 -0.3010
    7SAPS   H9X  902   1.499   0.888   9.611 -0.4658 -0.2061 -0.5618
    7SAPS   H9Y  903   1.511   1.059   9.545 -0.3912  1.2228 -1.1044
    7SAPS  C310  904   1.424   0.925   9.398  0.4473 -0.0621  0.4124
    7SAPS  H10X  905   1.347   0.848   9.380  0.4844  0.2471 -1.0934
    7SAPS  H10Y  906   1.516   0.886   9.349  0.2398  0.6531 -0.5574
    7SAPS  C311  907   1.371   1.044   9.322  0.7997 -0.4270  0.5294
    7SAPS  H11X  908   1.444   1.125   9.343  0.4522 -0.2035  0.8758
    7SAPS  H11Y  909   1.270   1.063   9.365  1.2431  0.1133  1.3397
    7SAPS  C312  910   1.367   1.020   9.172 -0.1285 -0.2704 -0.4069
    7SAPS  H12X  911   1.294   0.939   9.147 -1.8166  1.1400 -0.1035
    7SAPS  H12Y  912   1.469   0.989   9.140 -0.0181  0.9171 -1.2316
    7SAPS  C313  913   1.343   1.150   9.096  0.5317  0.0232  0.1199
    7SAPS  H13X  914   1.426   1.216   9.130 -0.9489  1.4150  1.0912
    7SAPS  H13Y  915   1.247   1.195   9.131  0.9421  1.2165 -0.2632
    7SAPS  C314  916   1.328   1.127   8.949  0.1145  0.4514  0.1249
    7SAPS  H14X  917   1.291   1.220   8.900 -1.8438 -0.8907 -1.0160
    7SAPS  H14Y  918   1.264   1.039   8.927  1.7293 -0.2647 -1.9723
    7SAPS  C315  919   1.454   1.091   8.875 -0.2076  0.4056 -0.2607
    7SAPS  H15X  920   1.493   0.989   8.895  0.9076  1.3229  2.4017
    7SAPS  H15Y  921   1.529   1.168   8.903 -0.7771  0.4803  1.1169
    7SAPS  C316  922   1.446   1.098   8.723 -0.0935  0.0706 -0.1196
    7SAPS  H16X  923   1.544   1.062   8.683 -0.4897 -0.1167 -0.9275
    7SAPS  H16Y  924   1.434   1.206   8.700 -1.1533  0.1968  0.9690
    7SAPS  C317  925   1.335   1.011   8.660 -0.2294  0.6936 -0.5554
    7SAPS  H17X  926   1.336   1.025   8.550 -1.4750  1.9393 -0.4187
    7SAPS  H17Y  927   1.235   1.043   8.694 -0.3878 -1.4413  1.0608
    7SAPS  C318  928   1.351   0.862   8.688 -0.4040  0.0735 -0.0459
    7SAPS  H18X  929   1.328   0.851   8.796 -0.4858  0.7130  0.0008
    7SAPS  H18Y  930   1.456   0.832   8.664 -0.1094 -0.1406  1.4485
    7SAPS  H18Z  931   1.291   0.795   8.623 -1.1988 -0.1585  0.9173
    8SAPS     N  932   6.217   2.566  11.397 -0.3943 -0.6523  0.0625
    8SAPS   HN1  933   6.207   2.630  11.315  1.0667 -0.4974 -0.0169
    8SAPS   HN2  934   6.259   2.612  11.480  1.2063 -3.9747  1.1742
    8SAPS   HN3  935   6.279   2.488  11.368 -0.3121  0.3679 -2.7300
    8SAPS   C12  936   6.086   2.513  11.429 -0.0123 -0.4309 -0.1776
    8SAPS  H12A  937   6.090   2.436  11.506  0.8651 -0.8742 -0.6527
    8SAPS   C13  938   6.002   2.619  11.499  1.3451 -0.0579  0.0401
    8SAPS  O13A  939   6.051   2.731  11.531  0.8331  0.1916  0.8153
    8SAPS  O13B  940   5.898   2.574  11.562 -0.1644  0.7276 -0.4156
    8SAPS   C11  941   6.013   2.464  11.304 -0.4583  0.7001  0.0213
    8SAPS  H11A  942   5.998   2.543  11.228  0.8811  3.1656  2.2539
    8SAPS  H11B  943   5.910   2.436  11.335  0.4079 -0.3675  2.0186
    8SAPS     P  944   6.039   2.247  11.144  0.0123 -0.0871 -0.3690
    8SAPS   O13  945   6.108   2.124  11.188  0.3946  0.2513  0.0140
    8SAPS   O14  946   5.894   2.252  11.131  0.2572 -0.4538 -0.3379
    8SAPS   O12  947   6.089   2.367  11.240 -0.3824 -0.8023  0.1458
    8SAPS   O11  948   6.109   2.298  11.010  0.7348  0.2466  0.4431
    8SAPS    C1  949   6.244   2.338  11.005  0.4381 -0.2950 -0.2573
    8SAPS    HA  950   6.253   2.431  11.064  0.0564 -1.6425  1.9571
    8SAPS    HB  951   6.308   2.262  11.053  0.9363  1.5377  2.0777
    8SAPS    C2  952   6.274   2.369  10.861  0.2683 -0.0106  0.5198
    8SAPS    HS  953   6.209   2.452  10.826 -2.1239 -1.2544  1.9298
    8SAPS   O21  954   6.255   2.247  10.778 -0.0947 -0.5423 -0.2137
    8SAPS   C21  955   6.151   2.237  10.698 -0.0736 -0.9025  0.1790
    8SAPS   O22  956   6.059   2.320  10.688 -0.7440  0.2557  0.2008
    8SAPS   C22  957   6.146   2.110  10.621 -0.0839 -0.4706 -0.1387
    8SAPS   H2R  958   6.037   2.093  10.607 -0.2432 -0.5403  1.0974
    8SAPS   H2S  959   6.179   2.124  10.516  0.0440 -4.0409 -0.6455
    8SAPS    C3  960   6.419   2.425  10.838  0.3549 -0.0495  0.0009
    8SAPS    HX  961   6.501   2.361  10.877  2.3646  2.1038 -0.5623
    8SAPS    HY  962   6.417   2.515  10.902  2.6252  0.6397 -0.8463
    8SAPS   O31  963   6.428   2.454  10.698  0.0803  0.3751 -0.1288
    8SAPS   C31  964   6.523   2.544  10.670  0.2749  0.6273  1.1323
    8SAPS   O32  965   6.601   2.587  10.752 -0.2813 -0.3116  0.0412
    8SAPS   C32  966   6.497   2.584  10.521  0.8716  0.3031 -0.9601
    8SAPS   H2X  967   6.419   2.663  10.513  0.6579  0.3045  0.9603
    8SAPS   H2Y  968   6.455   2.497  10.467 -2.0103  0.1097  1.4572
    8SAPS   C23  969   6.194   1.982  10.694  0.5977 -0.6733 -0.2450
    8SAPS   H3R  970   6.195   1.995  10.804 -3.6558  3.1691 -0.5263
    8SAPS   H3S  971   6.304   1.974  10.678  0.8125  0.9572  0.3640
    8SAPS   C24  972   6.114   1.854  10.665 -0.1575  1.1208 -0.4012
    8SAPS   H4R  973   6.168   1.764  10.700 -0.6389  0.8728 -0.2933
    8SAPS   H4S  974   6.105   1.841  10.555  1.5822  2.6778 -0.7490
    8SAPS   C25  975   5.971   1.855  10.724  0.2530  0.5276  0.1657
    8SAPS   H5R  976   5.979   1.866  10.834 -2.0441 -1.5622  0.5836
    8SAPS   C26  977   5.854   1.836  10.662  0.4592 -0.1554 -0.7202
    8SAPS   H6R  978   5.766   1.845  10.728  1.0875 -0.0953  0.1112
    8SAPS   C27  979   5.829   1.819  10.517 -0.2642 -0.1061 -0.3866
    8SAPS   H7R  980   5.926   1.817  10.463  0.8799  2.2414  1.5437
    8SAPS   H7S  981   5.767   1.909  10.498 -1.2977  0.0144  3.2454
    8SAPS   C28  982   5.749   1.692  10.488  0.2793 -0.4334 -0.3333
    8SAPS   H8R  983   5.693   1.652  10.574 -1.2725 -0.8277 -1.5039
    8SAPS   C29  984   5.728   1.639  10.366 -0.0516  0.3393 -0.3083
    8SAPS   H9R  985   5.662   1.551  10.354 -2.4495  1.9677  0.4871
    8SAPS  C210  986   5.783   1.703  10.242  0.1301  0.4664  1.1056
    8SAPS  H10R  987   5.886   1.740  10.259  0.8739 -0.6777 -0.8492
    8SAPS  H10S  988   5.728   1.791  10.203  0.0934 -0.9300 -2.1265
    8SAPS  C211  989   5.803   1.600  10.127 -0.3864 -0.1243 -1.1224
    8SAPS  H11R  990   5.767   1.498  10.148 -1.6579  0.4335 -0.5525
    8SAPS  C212  991   5.848   1.628  10.006 -0.3226  0.4953  0.0492
    8SAPS  H12R  992   5.834   1.551   9.929  0.1511 -0.4399  0.8900
    8SAPS  C213  993   5.889   1.763   9.952  0.3027 -0.9722 -0.3234
    8SAPS  H13R  994   5.997   1.784   9.969 -0.5493  1.1997  3.0746
    8SAPS  H13S  995   5.838   1.837  10.017  0.6142  0.3305 -1.5428
    8SAPS  C214  996   5.854   1.801   9.810  0.6863  0.2919 -0.1386
    8SAPS  H14R  997   5.766   1.866   9.812 -1.0207 -1.9782  0.8630
    8SAPS  C215  998   5.911   1.765   9.692  0.4680  0.4941 -0.5247
    8SAPS  H15R  999   5.880   1.801   9.593  2.1909  2.3298 -0.4338
    8SAPS  C216 1000   6.029   1.664   9.676  0.0994  0.1039  0.3208
    8SAPS  H16R 1001   5.999   1.589   9.601  1.5412 -1.4262  1.2471
    8SAPS  H16S 1002   6.039   1.612   9.774  0.9242 -0.7982 -0.2418
    8SAPS  C217 1003   6.173   1.719   9.654 -0.4698  0.5817  0.2059
    8SAPS  H17R 1004   6.245   1.636   9.673  0.0634  1.2584  1.1848
    8SAPS  H17S 1005   6.208   1.791   9.731 -0.2069 -0.7014  1.3247
    8SAPS  C218 1006   6.200   1.789   9.523  0.1500  0.5499  0.0010
    8SAPS  H18R 1007   6.303   1.832   9.519 -0.9000  3.2034  0.2372
    8SAPS  H18S 1008   6.138   1.881   9.527  1.9097  1.7387  0.6185
    8SAPS  C219 1009   6.168   1.711   9.399 -0.2250  0.0166  0.7063
    8SAPS  H19R 1010   6.082   1.642   9.411  2.6412 -4.2429 -1.5407
    8SAPS  H19S 1011   6.258   1.648   9.379 -0.1827  0.5615 -0.9178
    8SAPS  C220 1012   6.141   1.789   9.267  0.5735  0.0222 -0.2014
    8SAPS  H20R 1013   6.066   1.733   9.207  1.0547 -1.0447  0.1767
    8SAPS  H20S 1014   6.231   1.813   9.206  1.6890  1.4680  1.9249
    8SAPS  H20T 1015   6.081   1.881   9.278  0.7209  0.1675 -0.6039
    8SAPS   C33 1016   6.636   2.646  10.460  0.8025  0.5948 -0.4021
    8SAPS   H3X 1017   6.723   2.577  10.462  0.2037 -0.1746 -0.4214
    8SAPS   H3Y 1018   6.684   2.726  10.519 -0.7901 -0.3175  2.2199
    8SAPS   C34 1019   6.616   2.698  10.315 -0.3654  0.7471  0.4386
    8SAPS   H4X 1020   6.545   2.783  10.304 -0.9932 -0.0464 -1.8437
    8SAPS   H4Y 1021   6.558   2.618  10.264 -1.3633  1.3821  0.5674
    8SAPS   C35 1022   6.749   2.734  10.241 -0.1687  0.6283  0.5305
    8SAPS   H5X 1023   6.812   2.646  10.217  1.7597  2.3008 -0.7158
    8SAPS   H5Y 1024   6.800   2.815  10.296  1.2288  0.4496 -0.4716
    8SAPS   C36 1025   6.722   2.789  10.103  0.2064 -0.0905  0.3273
    8SAPS   H6X 1026   6.815   2.822  10.052 -0.2644 -1.2310 -1.3331
    8SAPS   H6Y 1027   6.670   2.887  10.107  0.7160  0.2168 -0.4930
    8SAPS   C37 1028   6.638   2.703  10.005  0.1021 -0.8981  0.2998
    8SAPS   H7X 1029   6.531   2.688  10.031  0.0837 -1.6190 -0.1682
    8SAPS   H7Y 1030   6.682   2.602  10.020 -0.8935 -1.5234 -0.9262
    8SAPS   C38 1031   6.650   2.743   9.850 -0.3637 -0.7566 -0.2922
    8SAPS   H8X 1032   6.757   2.755   9.825 -0.4494 -1.7898 -1.1721
    8SAPS   H8Y 1033   6.594   2.837   9.832  1.1012  0.5982  2.1004
    8SAPS   C39 1034   6.587   2.631   9.766  0.3088  1.0379  0.0175
    8SAPS   H9X 1035   6.479   2.623   9.791  0.1980  2.5913  0.0507
    8SAPS   H9Y 1036   6.626   2.532   9.799  1.3042  0.8344 -1.7270
    8SAPS  C310 1037   6.613   2.660   9.617 -0.1451 -0.3483  0.8954
    8SAPS  H10X 1038   6.724   2.661   9.609 -0.2383 -0.4259 -0.6125
    8SAPS  H10Y 1039   6.570   2.759   9.591  0.6506  0.0313  1.0057
    8SAPS  C311 1040   6.575   2.549   9.528 -0.0371 -0.4485  0.0905
    8SAPS  H11X 1041   6.468   2.545   9.499 -0.1155 -0.2017  0.3430
    8SAPS  H11Y 1042   6.592   2.451   9.577 -2.2627 -0.7531  0.2652
    8SAPS  C312 1043   6.642   2.563   9.388  0.5985 -0.8952 -0.6108
    8SAPS  H12X 1044   6.647   2.463   9.340 -0.0880 -0.5405 -1.4309
    8SAPS  H12Y 1045   6.749   2.592   9.391  0.4493 -0.3434 -0.6041
    8SAPS  C313 1046   6.573   2.677   9.303  0.1799 -0.2470  0.5739
    8SAPS  H13X 1047   6.580   2.776   9.351 -1.1138  0.7002 -1.0991
    8SAPS  H13Y 1048   6.467   2.643   9.299 -0.0195  0.5132 -1.4255
    8SAPS  C314 1049   6.644   2.696   9.171 -0.0729 -0.2469 -0.1412
    8SAPS  H14X 1050   6.584   2.730   9.084  0.8453  0.4874 -0.4943
    8SAPS  H14Y 1051   6.671   2.590   9.149  3.0464  0.7406 -1.4086
    8SAPS  C315 1052   6.770   2.771   9.182  0.4231 -0.1628 -0.4641
    8SAPS  H15X 1053   6.823   2.756   9.278 -0.8150 -0.8635  0.1225
    8SAPS  H15Y 1054   6.759   2.881   9.173  0.2661 -0.1489 -0.0845
    8SAPS  C316 1055   6.882   2.742   9.081 -0.4489  0.4912 -0.6530
    8SAPS  H16X 1056   6.848   2.760   8.977 -0.0737  0.3328 -0.7990
    8SAPS  H16Y 1057   6.919   2.638   9.091 -0.4489  0.6392  1.2115
    8SAPS  C317 1058   7.012   2.833   9.101 -0.1748 -0.4504 -1.0421
    8SAPS  H17X 1059   7.043   2.836   9.208  0.4450 -0.3886 -1.2211
    8SAPS  H17Y 1060   6.989   2.939   9.074  1.9426  0.5642  0.9149
    8SAPS  C318 1061   7.123   2.781   9.016  0.2816  0.0286  0.3902
    8SAPS  H18X 1062   7.166   2.684   9.048 -1.6466 -1.3281 -1.0396
    8SAPS  H18Y 1063   7.199   2.862   9.008  1.6641 -1.1099  1.6702
    8SAPS  H18Z 1064   7.086   2.762   8.913 -0.6776  0.6257  0.6230
    9SAPS     N 1065   1.196   4.451   6.365  0.1038  0.0350 -0.2675
    9SAPS   HN1 1066   1.190   4.421   6.265 -1.0142 -0.1212 -0.1592
    9SAPS   HN2 1067   1.115   4.418   6.422 -0.3805  0.2427 -0.8212
    9SAPS   HN3 1068   1.191   4.555   6.366 -1.3272 -0.0229  1.0054
    9SAPS   C12 1069   1.323   4.413   6.419  0.7368 -0.0786  0.1397
    9SAPS  H12A 1070   1.350   4.470   6.508 -0.0463  1.3927 -0.5479
    9SAPS   C13 1071   1.329   4.266   6.460  0.4332 -0.3013  1.1494
    9SAPS  O13A 1072   1.242   4.185   6.417 -0.1075 -0.1684 -0.0187
    9SAPS  O13B 1073   1.434   4.229   6.519 -0.6754 -0.2289 -0.0020
    9SAPS   C11 1074   1.430   4.435   6.305  0.2210 -0.3496 -0.1225
    9SAPS  H11A 1075   1.406   4.373   6.217 -0.7947  0.4339 -0.4127
    9SAPS  H11B 1076   1.525   4.387   6.336  0.1677 -0.4547 -0.1232
    9SAPS     P 1077   1.565   4.654   6.311  0.2379 -0.5627 -0.0534
    9SAPS   O13 1078   1.689   4.600   6.246  0.6899 -0.1930 -0.2129
    9SAPS   O14 1079   1.530   4.800   6.297  0.0559 -0.9433  0.5194
    9SAPS   O12 1080   1.437   4.574   6.264 -0.5483 -0.7809  0.2433
    9SAPS   O11 1081   1.570   4.618   6.467  0.3288  0.1107 -0.2100
    9SAPS    C1 1082   1.688   4.646   6.546  0.2291  0.1153 -0.9937
    9SAPS    HA 1083   1.761   4.565   6.525  0.1079  0.3360 -2.2832
    9SAPS    HB 1084   1.734   4.743   6.517  1.0297 -0.0210 -0.1959
    9SAPS    C2 1085   1.639   4.653   6.698  0.1756  0.0721  0.3908
    9SAPS    HS 1086   1.723   4.696   6.757  0.6369  0.0588 -0.2576
    9SAPS   O21 1087   1.585   4.530   6.752  0.0998  0.0666  0.3065
    9SAPS   C21 1088   1.681   4.428   6.754 -0.4551  0.5166  0.3188
    9SAPS   O22 1089   1.798   4.446   6.723  0.1949  0.6990 -0.5200
    9SAPS   C22 1090   1.634   4.304   6.815 -0.2473  0.7110 -1.0020
    9SAPS   H2R 1091   1.541   4.270   6.764 -2.2308  2.0447  1.5684
    9SAPS   H2S 1092   1.717   4.230   6.812 -0.2586  0.6950 -0.9077
    9SAPS    C3 1093   1.528   4.762   6.707  0.2327  0.1374 -0.5523
    9SAPS    HX 1094   1.452   4.709   6.647 -2.2821  4.9836 -1.8941
    9SAPS    HY 1095   1.559   4.854   6.654  0.2281 -0.2697 -1.2586
    9SAPS   O31 1096   1.472   4.787   6.839  0.4816  0.3491 -0.6523
    9SAPS   C31 1097   1.547   4.853   6.932  0.4661  0.2499  0.2788
    9SAPS   O32 1098   1.664   4.886   6.915 -0.7355  0.2974 -0.4569
    9SAPS   C32 1099   1.480   4.856   7.074  0.2597 -0.6519  0.7103
    9SAPS   H2X 1100   1.440   4.755   7.098  2.0084 -1.4838  0.2505
    9SAPS   H2Y 1101   1.400   4.933   7.065 -0.4242 -1.5257 -0.9057
    9SAPS   C23 1102   1.587   4.314   6.962 -0.6642  0.1722 -0.0081
    9SAPS   H3R 1103   1.500   4.246   6.978 -0.5719  0.4154  1.6176
    9SAPS   H3S 1104   1.544   4.415   6.981 -1.5057  0.1061 -1.4663
    9SAPS   C24 1105   1.697   4.285   7.071 -0.1502  0.3207 -0.5389
    9SAPS   H4R 1106   1.775   4.356   7.036 -1.2803  1.3057 -1.0935
    9SAPS   H4S 1107   1.729   4.180   7.055  1.7767  0.5127  1.6967
    9SAPS   C25 1108   1.657   4.291   7.217 -0.4485 -0.1282  0.2406
    9SAPS   H5R 1109   1.579   4.215   7.228  0.3734 -0.8428  1.2126
    9SAPS   C26 1110   1.679   4.389   7.302  0.7007  0.0990  0.2650
    9SAPS   H6R 1111   1.645   4.384   7.407 -1.2240 -0.0617 -0.3320
    9SAPS   C27 1112   1.760   4.512   7.280 -0.8688 -0.3647 -0.7495
    9SAPS   H7R 1113   1.739   4.591   7.355  1.5017  1.4539 -1.9147
    9SAPS   H7S 1114   1.735   4.564   7.185 -1.8250  1.6608  0.5717
    9SAPS   C28 1115   1.911   4.485   7.279 -0.7722  0.5218 -0.2232
    9SAPS   H8R 1116   1.947   4.388   7.243  0.2608  0.7748  0.1045
    9SAPS   C29 1117   2.007   4.566   7.334  0.1538 -0.3553 -0.1872
    9SAPS   H9R 1118   2.110   4.527   7.341 -0.8065 -3.0202 -0.2868
    9SAPS  C210 1119   1.987   4.694   7.404 -0.1921  0.2529  0.0785
    9SAPS  H10R 1120   1.883   4.732   7.392 -0.2280  0.3727  0.7527
    9SAPS  H10S 1121   2.054   4.772   7.360  0.1490  0.1423  0.4015
    9SAPS  C211 1122   2.022   4.689   7.549 -0.2177  0.1286 -0.3488
    9SAPS  H11R 1123   2.130   4.704   7.560 -0.1002  0.1854 -1.4887
    9SAPS  C212 1124   1.953   4.654   7.657 -0.3540  0.1110 -0.8010
    9SAPS  H12R 1125   2.008   4.672   7.751  0.3717 -2.3306 -0.7406
    9SAPS  C213 1126   1.809   4.598   7.668  0.3927 -0.0450  0.9527
    9SAPS  H13R 1127   1.742   4.646   7.593  1.8516  1.0660  0.3367
    9SAPS  H13S 1128   1.741   4.633   7.749 -1.2721  0.1516 -0.4917
    9SAPS  C214 1129   1.803   4.446   7.644  0.5698 -0.6320  0.6820
    9SAPS  H14R 1130   1.845   4.411   7.549  2.3329  0.3456  1.0829
    9SAPS  C215 1131   1.737   4.359   7.721  0.4429  0.2958 -0.6143
    9SAPS  H15R 1132   1.712   4.261   7.678  1.5686 -0.2819  0.0564
    9SAPS  C216 1133   1.664   4.390   7.849 -0.5289  0.1993 -0.1521
    9SAPS  H16R 1134   1.554   4.394   7.837 -0.4029 -0.9598 -1.9804
    9SAPS  H16S 1135   1.689   4.492   7.884 -2.6045  0.8438 -0.4538
    9SAPS  C217 1136   1.698   4.299   7.972 -0.5094 -0.4269 -0.8798
    9SAPS  H17R 1137   1.691   4.192   7.944  1.2321 -0.5806 -0.8163
    9SAPS  H17S 1138   1.620   4.311   8.050  1.0438  1.5332  0.4566
    9SAPS  C218 1139   1.851   4.306   8.022  0.0927 -0.4021 -0.4090
    9SAPS  H18R 1140   1.875   4.393   8.088  2.0905 -1.2798  0.0856
    9SAPS  H18S 1141   1.912   4.327   7.931 -1.1425  2.6537 -0.5937
    9SAPS  C219 1142   1.900   4.194   8.100 -0.1954  0.2912 -0.0884
    9SAPS  H19R 1143   1.996   4.226   8.145 -0.7450  1.9934 -0.0942
    9SAPS  H19S 1144   1.911   4.100   8.042  0.1769  1.4984 -1.9989
    9SAPS  C220 1145   1.811   4.163   8.220 -0.4373  0.2345  0.6034
    9SAPS  H20R 1146   1.818   4.226   8.311 -1.2839  1.1751  0.0259
    9SAPS  H20S 1147   1.813   4.056   8.249 -1.4962 -0.5542 -2.0728
    9SAPS  H20T 1148   1.710   4.190   8.183 -1.0041 -1.2681  1.0160
    9SAPS   C33 1149   1.572   4.889   7.190 -0.2629 -0.6856 -0.4015
    9SAPS   H3X 1150   1.598   4.997   7.183  1.2934 -1.0480 -0.2838
    9SAPS   H3Y 1151   1.663   4.826   7.184 -0.8246 -1.4777 -0.7225
    9SAPS   C34 1152   1.512   4.856   7.325 -0.9521 -0.1320 -0.2998
    9SAPS   H4X 1153   1.463   4.759   7.345  0.3814 -0.9698 -1.0231
    9SAPS   H4Y 1154   1.429   4.928   7.341  1.4501  2.6893  0.0168
    9SAPS   C35 1155   1.619   4.881   7.435 -0.4366 -0.0377 -0.3959
    9SAPS   H5X 1156   1.694   4.950   7.390  0.7618 -0.3686  1.0434
    9SAPS   H5Y 1157   1.674   4.788   7.463 -1.2539 -1.0276 -2.0408
    9SAPS   C36 1158   1.568   4.936   7.573 -0.1709  0.3578 -0.2825
    9SAPS   H6X 1159   1.513   4.852   7.622 -1.5054  1.0819 -0.5155
    9SAPS   H6Y 1160   1.497   5.019   7.554  0.2669  0.3801 -1.8868
    9SAPS   C37 1161   1.685   4.978   7.662 -0.1673  0.0474 -0.4461
    9SAPS   H7X 1162   1.721   5.064   7.601 -0.5437 -0.4126 -1.3175
    9SAPS   H7Y 1163   1.764   4.900   7.668  0.2016  0.5335  1.4135
    9SAPS   C38 1164   1.634   5.011   7.802  0.3393  0.3145 -0.1270
    9SAPS   H8X 1165   1.604   4.921   7.860  1.9804  0.0306  0.2866
    9SAPS   H8Y 1166   1.546   5.078   7.793 -0.0420  0.4316  3.5758
    9SAPS   C39 1167   1.748   5.070   7.887 -0.4747  0.1095  0.2099
    9SAPS   H9X 1168   1.762   5.177   7.861 -0.9780  0.4215  1.2131
    9SAPS   H9Y 1169   1.841   5.013   7.871 -0.4524  0.5360 -1.2652
    9SAPS  C310 1170   1.720   5.068   8.039  0.3133 -0.6137  0.1140
    9SAPS  H10X 1171   1.691   4.966   8.070 -1.0859 -0.0175  0.8009
    9SAPS  H10Y 1172   1.638   5.142   8.053 -0.2911 -0.8057 -2.2987
    9SAPS  C311 1173   1.842   5.119   8.122  0.4265  0.3143 -0.2598
    9SAPS  H11X 1174   1.874   5.216   8.078  0.2883 -0.4195 -2.0481
    9SAPS  H11Y 1175   1.925   5.046   8.104  0.7645  0.4216  0.8634
    9SAPS  C312 1176   1.818   5.127   8.279  0.5115  0.0121 -0.5738
    9SAPS  H12X 1177   1.757   5.038   8.306  2.4598 -1.0494  0.4493
    9SAPS  H12Y 1178   1.760   5.220   8.302  1.6895 -0.2718  3.9421
    9SAPS  C313 1179   1.940   5.147   8.372 -0.1557  1.4160  0.3255
    9SAPS  H13X 1180   2.007   5.059   8.361  1.1278  2.6468 -1.9714
    9SAPS  H13Y 1181   1.897   5.133   8.474 -0.9329 -1.3843 -0.3431
    9SAPS  C314 1182   2.010   5.277   8.350 -0.2845 -0.5575 -0.7981
    9SAPS  H14X 1183   1.942   5.353   8.393  2.3716  1.9132 -0.8560
    9SAPS  H14Y 1184   2.031   5.312   8.246 -0.7326 -0.2245 -0.7754
    9SAPS  C315 1185   2.135   5.269   8.431 -0.1951  0.1473  0.1424
    9SAPS  H15X 1186   2.211   5.204   8.383 -1.0895 -0.3179 -0.6521
    9SAPS  H15Y 1187   2.113   5.222   8.529  1.3651  0.4560  0.6482
    9SAPS  C316 1188   2.205   5.404   8.456 -0.5171  0.3627 -1.0124
    9SAPS  H16X 1189   2.131   5.482   8.486 -1.0317 -0.8814  1.0391
    9SAPS  H16Y 1190   2.260   5.436   8.365 -0.5155 -0.7852 -1.4157
    9SAPS  C317 1191   2.309   5.392   8.568 -0.5068 -0.0042 -0.6402
    9SAPS  H17X 1192   2.379   5.312   8.535 -2.3033 -2.4775  1.4425
    9SAPS  H17Y 1193   2.270   5.358   8.666  1.9960  1.0945  0.7912
    9SAPS  C318 1194   2.405   5.510   8.594 -0.2206 -0.2144  0.4196
    9SAPS  H18X 1195   2.461   5.532   8.501  0.2179 -3.0814 -0.0413
    9SAPS  H18Y 1196   2.478   5.486   8.674 -1.5666  1.4820  2.2070
    9SAPS  H18Z 1197   2.346   5.601   8.618 -0.2747 -0.0294 -0.4012
   10SAPS     N 1198   1.631   4.038   6.440 -0.3396  0.2356 -0.5559
   10SAPS   HN1 1199   1.574   3.960   6.402 -0.4935 -0.0621  0.2663
   10SAPS   HN2 1200   1.672   4.003   6.529 -3.4646 -0.0454  0.8539
   10SAPS   HN3 1201   1.563   4.114   6.460 -1.2633 -0.3636 -1.4488
   10SAPS   C12 1202   1.734   4.087   6.343 -0.2469  0.5983  0.0512
   10SAPS  H12A 1203   1.802   4.003   6.334  0.8753  1.2466  2.1403
   10SAPS   C13 1204   1.683   4.125   6.202  0.6340  0.8324  0.1112
   10SAPS  O13A 1205   1.562   4.093   6.181  0.6552  0.2540  0.0533
   10SAPS  O13B 1206   1.760   4.162   6.110 -0.2001 -0.3867  0.0668
   10SAPS   C11 1207   1.792   4.219   6.399 -0.1371 -0.1783 -1.1730
   10SAPS  H11A 1208   1.716   4.292   6.434 -0.1620 -1.1962  0.9971
   10SAPS  H11B 1209   1.855   4.263   6.319 -0.8045  2.3241 -0.3384
   10SAPS     P 1210   2.025   4.136   6.513  0.4902 -0.0597  0.0530
   10SAPS   O13 1211   2.039   4.031   6.413 -0.2172 -0.3737  0.2824
   10SAPS   O14 1212   2.115   4.257   6.514  0.4805  0.2646 -0.4324
   10SAPS   O12 1213   1.878   4.188   6.505 -0.0272  0.0170 -0.3654
   10SAPS   O11 1214   2.012   4.078   6.653 -0.0152  0.5823 -0.0245
   10SAPS    C1 1215   1.982   4.161   6.774  0.8594 -0.2411  0.1285
   10SAPS    HA 1216   1.925   4.255   6.756  1.9747  0.4327  0.0845
   10SAPS    HB 1217   1.934   4.091   6.846  1.8195 -1.0067  0.0461
   10SAPS    C2 1218   2.109   4.215   6.848 -0.1297 -0.3941  0.0029
   10SAPS    HS 1219   2.158   4.279   6.771 -0.8557  1.0002  0.6681
   10SAPS   O21 1220   2.186   4.101   6.898  0.3776 -0.0459 -0.5539
   10SAPS   C21 1221   2.310   4.124   6.932  0.3828 -0.4428 -0.1239
   10SAPS   O22 1222   2.360   4.234   6.931 -0.4211  0.1013 -0.4576
   10SAPS   C22 1223   2.375   3.991   6.979 -0.2475 -0.4050 -0.1391
   10SAPS   H2R 1224   2.293   3.958   7.046 -0.9530  0.3837 -0.5939
   10SAPS   H2S 1225   2.374   3.925   6.890 -1.9991  0.2817 -0.6515
   10SAPS    C3 1226   2.052   4.301   6.967 -0.1998 -0.0119 -0.0757
   10SAPS    HX 1227   1.984   4.227   7.013  0.5776 -1.2923 -0.9654
   10SAPS    HY 1228   1.979   4.374   6.924 -0.3568 -0.1547 -0.0517
   10SAPS   O31 1229   2.140   4.347   7.072  0.1305 -0.1680 -0.5119
   10SAPS   C31 1230   2.205   4.458   7.035  0.0525 -0.4157 -0.2996
   10SAPS   O32 1231   2.190   4.508   6.925 -0.4561 -0.3245  0.0350
   10SAPS   C32 1232   2.311   4.499   7.140 -0.1117 -0.5316  0.1410
   10SAPS   H2X 1233   2.406   4.448   7.112  1.0051  1.8228 -0.4830
   10SAPS   H2Y 1234   2.289   4.450   7.237 -1.2659  0.1492  0.2276
   10SAPS   C23 1235   2.514   4.003   7.041 -0.3630  0.2112 -0.9507
   10SAPS   H3R 1236   2.587   4.060   6.981  1.7916 -2.3100 -0.8118
   10SAPS   H3S 1237   2.555   3.900   7.048 -0.3470  0.2216 -0.8806
   10SAPS   C24 1238   2.500   4.063   7.180 -0.2065  0.0371 -0.4258
   10SAPS   H4R 1239   2.459   4.163   7.152 -1.9943 -1.2186 -2.4572
   10SAPS   H4S 1240   2.606   4.074   7.209 -0.4510 -0.3602  0.6438
   10SAPS   C25 1241   2.415   3.989   7.283 -0.2640  0.1943 -0.2000
   10SAPS   H5R 1242   2.450   3.888   7.310  1.2157  1.1621  1.6428
   10SAPS   C26 1243   2.313   4.044   7.347  0.0232  0.5360  0.1471
   10SAPS   H6R 1244   2.262   3.973   7.415 -0.5122  0.8035  0.0223
   10SAPS   C27 1245   2.268   4.185   7.336  0.2703 -0.0959 -0.0953
   10SAPS   H7R 1246   2.224   4.200   7.235  1.1774  1.6580 -0.2507
   10SAPS   H7S 1247   2.357   4.251   7.350  0.9492 -1.0279  0.0012
   10SAPS   C28 1248   2.168   4.230   7.435  0.3539 -0.0659 -0.4235
   10SAPS   H8R 1249   2.067   4.208   7.396  0.3759 -0.5636 -0.2052
   10SAPS   C29 1250   2.187   4.306   7.546 -0.1634  0.2973 -0.4612
   10SAPS   H9R 1251   2.101   4.317   7.614  0.3376 -0.3314  0.2940
   10SAPS  C210 1252   2.313   4.368   7.610 -0.1045  0.2651 -0.2776
   10SAPS  H10R 1253   2.288   4.462   7.664  1.1836  0.0751  0.6760
   10SAPS  H10S 1254   2.386   4.401   7.533  0.4985 -0.2419  0.0735
   10SAPS  C211 1255   2.376   4.274   7.705 -0.3920  0.3234 -0.2122
   10SAPS  H11R 1256   2.450   4.212   7.652  0.1028 -0.7472  1.7138
   10SAPS  C212 1257   2.350   4.259   7.833 -0.5380 -0.3723  0.5254
   10SAPS  H12R 1258   2.398   4.179   7.891  0.4004 -0.0242  0.2434
   10SAPS  C213 1259   2.250   4.340   7.912  0.4928 -0.0658 -0.1439
   10SAPS  H13R 1260   2.159   4.277   7.926  2.1457 -2.3456  0.6641
   10SAPS  H13S 1261   2.218   4.434   7.862 -1.7845 -2.3077 -3.0957
   10SAPS  C214 1262   2.300   4.363   8.050 -0.6865 -0.6363 -0.3516
   10SAPS  H14R 1263   2.396   4.315   8.074  0.8078  2.7312  0.6196
   10SAPS  C215 1264   2.246   4.440   8.148 -0.5082 -0.0491 -0.2785
   10SAPS  H15R 1265   2.300   4.452   8.242 -0.5833 -0.6282 -0.1594
   10SAPS  C216 1266   2.118   4.522   8.139 -0.0575  0.4081  0.0221
   10SAPS  H16R 1267   2.044   4.476   8.208  2.1323 -2.5013  0.5339
   10SAPS  H16S 1268   2.063   4.517   8.042 -1.0348  1.7024  0.4829
   10SAPS  C217 1269   2.138   4.673   8.172  0.4670 -0.0128  0.3285
   10SAPS  H17R 1270   2.193   4.685   8.267  1.1959  3.3359 -0.4341
   10SAPS  H17S 1271   2.036   4.717   8.181  0.5115  0.4571 -1.2746
   10SAPS  C218 1272   2.201   4.758   8.060 -0.4727 -0.3709 -0.1899
   10SAPS  H18R 1273   2.146   4.755   7.963  0.3844  1.3262 -0.7417
   10SAPS  H18S 1274   2.300   4.715   8.033 -0.6155 -1.6284  1.2125
   10SAPS  C219 1275   2.233   4.909   8.088  0.7029  0.5072 -0.5277
   10SAPS  H19R 1276   2.135   4.959   8.072  0.4683 -0.0407 -0.8190
   10SAPS  H19S 1277   2.294   4.933   7.998  0.7703 -0.1748 -0.6635
   10SAPS  C220 1278   2.290   4.940   8.230 -0.6857 -0.0387 -0.0363
   10SAPS  H20R 1279   2.391   4.894   8.230  1.1393  3.7592  0.3086
   10SAPS  H20S 1280   2.229   4.895   8.311 -1.7593  0.3095 -0.6457
   10SAPS  H20T 1281   2.297   5.049   8.250  0.0270 -0.3001  1.2019
   10SAPS   C33 1282   2.333   4.646   7.158  0.0650  0.0930 -0.3462
   10SAPS   H3X 1283   2.251   4.671   7.229  1.6407  1.2540  1.0811
   10SAPS   H3Y 1284   2.318   4.700   7.062 -2.1628 -0.0123 -0.0900
   10SAPS   C34 1285   2.470   4.685   7.225 -0.8111  0.1835 -0.5071
   10SAPS   H4X 1286   2.554   4.672   7.154  1.9084  0.8510  2.5038
   10SAPS   H4Y 1287   2.477   4.611   7.307 -0.2217  0.1821 -0.5611
   10SAPS   C35 1288   2.485   4.827   7.284 -0.4858  0.5106 -0.0843
   10SAPS   H5X 1289   2.449   4.884   7.196 -0.7911  2.4956  1.2921
   10SAPS   H5Y 1290   2.593   4.851   7.292 -0.6378  1.4936 -0.8785
   10SAPS   C36 1291   2.406   4.850   7.413 -0.5556  0.3995 -0.3927
   10SAPS   H6X 1292   2.438   4.797   7.506 -2.2560 -1.4869 -0.8502
   10SAPS   H6Y 1293   2.306   4.825   7.374 -0.3472  1.3441 -1.5729
   10SAPS   C37 1294   2.424   4.994   7.455 -0.3089  1.2104  0.4455
   10SAPS   H7X 1295   2.391   5.052   7.366  0.6931 -0.5540 -1.1063
   10SAPS   H7Y 1296   2.531   5.017   7.472  0.3571 -1.2118 -0.2771
   10SAPS   C38 1297   2.358   5.043   7.585  0.1495 -0.1852 -0.0057
   10SAPS   H8X 1298   2.424   4.984   7.652  0.7432 -0.2764 -0.6577
   10SAPS   H8Y 1299   2.252   5.014   7.599  0.0124  0.3935  0.1561
   10SAPS   C39 1300   2.385   5.187   7.620 -0.4157 -0.4540 -0.2001
   10SAPS   H9X 1301   2.367   5.252   7.532 -0.5348  0.0368  0.1878
   10SAPS   H9Y 1302   2.494   5.186   7.642 -0.7602 -2.6202  1.6799
   10SAPS  C310 1303   2.306   5.222   7.749  0.4464  0.2368 -0.1025
   10SAPS  H10X 1304   2.345   5.157   7.831 -0.5672 -0.3854 -0.1134
   10SAPS  H10Y 1305   2.198   5.210   7.729  0.3680  1.1378 -0.2493
   10SAPS  C311 1306   2.330   5.365   7.783  0.3359  0.3903  0.0242
   10SAPS  H11X 1307   2.293   5.433   7.704 -0.6289  1.7444  1.6195
   10SAPS  H11Y 1308   2.440   5.378   7.795 -0.0569  1.6128  2.6952
   10SAPS  C312 1309   2.246   5.412   7.901  1.1119  0.2673 -0.8037
   10SAPS  H12X 1310   2.262   5.345   7.988  0.7029 -1.2686 -1.9021
   10SAPS  H12Y 1311   2.136   5.409   7.885  0.8410 -0.2846  1.0836
   10SAPS  C313 1312   2.279   5.559   7.948 -0.1249 -0.1395 -0.5275
   10SAPS  H13X 1313   2.245   5.639   7.880 -0.6377 -0.2056 -0.3502
   10SAPS  H13Y 1314   2.390   5.554   7.948 -0.1171 -0.0828  0.3686
   10SAPS  C314 1315   2.233   5.590   8.096 -0.1055 -0.8078 -0.3862
   10SAPS  H14X 1316   2.319   5.549   8.154  0.6310 -0.1126 -0.9623
   10SAPS  H14Y 1317   2.142   5.533   8.122 -0.2000 -2.5632 -4.1645
   10SAPS  C315 1318   2.224   5.744   8.114  0.0559 -0.4281 -0.0106
   10SAPS  H15X 1319   2.141   5.792   8.058  0.6594 -0.4425 -0.9339
   10SAPS  H15Y 1320   2.323   5.770   8.070  1.0667 -0.4006  2.2084
   10SAPS  C316 1321   2.235   5.798   8.259  0.2309  0.3591 -0.3562
   10SAPS  H16X 1322   2.310   5.743   8.318 -0.8645 -2.9010 -1.9115
   10SAPS  H16Y 1323   2.135   5.788   8.306  0.7641 -1.0602  0.4850
   10SAPS  C317 1324   2.285   5.952   8.259 -0.5437  0.4020 -0.2770
   10SAPS  H17X 1325   2.389   5.956   8.219 -0.2380  0.6440  0.5231
   10SAPS  H17Y 1326   2.278   5.988   8.364  1.2460 -0.0048  0.0010
   10SAPS  C318 1327   2.189   6.050   8.176 -0.7804  0.1990 -0.0975
   10SAPS  H18X 1328   2.235   6.150   8.185  0.9806 -0.7403  1.6067
   10SAPS  H18Y 1329   2.085   6.065   8.211 -1.5716 -1.2184 -1.7447
   10SAPS  H18Z 1330   2.187   6.016   8.070  0.5359  2.0924 -0.7626
   11SAPS     N 1331   4.437   0.914   6.098  0.0756 -0.4407  0.0249
   11SAPS   HN1 1332   4.384   1.003   6.096 -0.3320 -0.4734  4.7927
   11SAPS   HN2 1333   4.378   0.830   6.114  1.8186 -2.1752 -2.3570
   11SAPS   HN3 1334   4.513   0.924   6.168 -0.4773  1.1959  0.4186
   11SAPS   C12 1335   4.492   0.897   5.958 -0.1397 -0.3889 -0.3314
   11SAPS  H12A 1336   4.547   0.989   5.942  2.0625 -1.3281  1.6458
   11SAPS   C13 1337   4.588   0.778   5.926  0.4066  0.1174 -0.0625
   11SAPS  O13A 1338   4.594   0.678   6.007 -0.1610 -0.3206  0.2316
   11SAPS  O13B 1339   4.624   0.767   5.803  0.3634 -0.6892  0.9106
   11SAPS   C11 1340   4.366   0.888   5.861  0.1282 -0.0654  0.3420
   11SAPS  H11A 1341   4.324   0.792   5.900  1.9167 -0.7187  0.7214
   11SAPS  H11B 1342   4.396   0.875   5.755  1.6879  1.4344  0.5736
   11SAPS     P 1343   4.122   0.962   5.887  0.1592 -0.1816  0.0597
   11SAPS   O13 1344   4.037   1.081   5.863 -0.0686  0.0101  0.3783
   11SAPS   O14 1345   4.089   0.839   5.809 -0.2009  0.5692  0.2740
   11SAPS   O12 1346   4.272   0.997   5.870  0.2566 -0.7672 -0.9273
   11SAPS   O11 1347   4.117   0.925   6.041  0.7158  0.1590  0.2303
   11SAPS    C1 1348   4.089   1.016   6.146 -0.2119  0.2932 -0.1955
   11SAPS    HA 1349   4.176   1.066   6.195 -0.6077 -1.0188  1.8422
   11SAPS    HB 1350   4.020   1.093   6.105 -0.5051  0.0618 -0.1301
   11SAPS    C2 1351   4.002   0.941   6.257 -0.0567 -0.6641 -0.2258
   11SAPS    HS 1352   3.930   1.015   6.297 -0.4041 -1.6058  0.9267
   11SAPS   O21 1353   4.082   0.878   6.351 -0.4613  0.1121  0.2080
   11SAPS   C21 1354   4.153   0.952   6.441  0.1458 -0.1348  0.1877
   11SAPS   O22 1355   4.133   1.074   6.454 -0.0676  0.1723  0.1315
   11SAPS   C22 1356   4.224   0.849   6.515 -0.8102 -0.0853  0.6079
   11SAPS   H2R 1357   4.288   0.791   6.446 -1.2960 -0.6968  0.6699
   11SAPS   H2S 1358   4.293   0.907   6.581  1.3794 -0.1174 -1.5840
   11SAPS    C3 1359   3.911   0.825   6.200  0.8242  0.2035 -0.2770
   11SAPS    HX 1360   3.967   0.752   6.139  0.5310  0.7852 -1.2489
   11SAPS    HY 1361   3.843   0.867   6.123  2.3553  0.3755 -1.5351
   11SAPS   O31 1362   3.830   0.772   6.312  0.7645 -0.1945  0.5897
   11SAPS   C31 1363   3.863   0.651   6.353  0.1477  0.1621  0.3614
   11SAPS   O32 1364   3.961   0.586   6.313 -0.8071 -0.0473 -0.0985
   11SAPS   C32 1365   3.752   0.601   6.451 -0.5304  1.0133 -0.4164
   11SAPS   H2X 1366   3.706   0.515   6.397  2.2757 -0.7897 -0.0676
   11SAPS   H2Y 1367   3.684   0.683   6.480 -3.8123 -1.5727 -0.4399
   11SAPS   C23 1368   4.147   0.753   6.616  0.2827 -0.0244  0.0828
   11SAPS   H3R 1369   4.080   0.683   6.561 -1.8869 -0.2378  2.9043
   11SAPS   H3S 1370   4.089   0.822   6.680  0.1526  1.4192 -1.5787
   11SAPS   C24 1371   4.239   0.660   6.701 -0.4522  0.2169 -0.9558
   11SAPS   H4R 1372   4.312   0.721   6.759 -1.1715  2.4975 -2.3615
   11SAPS   H4S 1373   4.295   0.587   6.638  0.1835 -1.1479  1.1264
   11SAPS   C25 1374   4.165   0.579   6.805 -0.3478  0.4495 -0.0056
   11SAPS   H5R 1375   4.140   0.480   6.767 -1.1156  0.5078  0.3356
   11SAPS   C26 1376   4.123   0.617   6.927 -0.4649 -0.0967 -0.6735
   11SAPS   H6R 1377   4.074   0.540   6.987  0.3811  2.0415  2.8835
   11SAPS   C27 1378   4.134   0.749   6.994  0.3594  0.3420 -0.0761
   11SAPS   H7R 1379   4.036   0.782   7.034  0.3611  0.5092 -0.2057
   11SAPS   H7S 1380   4.156   0.827   6.917  0.4671  0.0966 -0.2955
   11SAPS   C28 1381   4.244   0.759   7.099 -0.3909  0.1447  0.2164
   11SAPS   H8R 1382   4.342   0.777   7.052  0.6064 -1.1696  1.7294
   11SAPS   C29 1383   4.237   0.760   7.233  0.0168  0.5411  0.1053
   11SAPS   H9R 1384   4.325   0.789   7.292 -0.7095  0.0183  1.4535
   11SAPS  C210 1385   4.118   0.742   7.318  0.5445 -0.2551  0.7629
   11SAPS  H10R 1386   4.025   0.738   7.257  0.7363  1.5107  0.3362
   11SAPS  H10S 1387   4.106   0.833   7.380  1.1222  0.8223 -0.6860
   11SAPS  C211 1388   4.121   0.624   7.405  0.5764 -0.6201 -0.0923
   11SAPS  H11R 1389   4.127   0.521   7.364  1.3995  0.0295 -1.6627
   11SAPS  C212 1390   4.136   0.636   7.539 -0.0595 -0.3730 -0.6936
   11SAPS  H12R 1391   4.133   0.543   7.597 -0.6309  1.3419  2.0866
   11SAPS  C213 1392   4.146   0.763   7.620 -0.1324  1.0376 -1.1599
   11SAPS  H13R 1393   4.078   0.837   7.573 -2.2745  0.0047  0.2276
   11SAPS  H13S 1394   4.243   0.815   7.608 -0.6892  1.8534 -2.2657
   11SAPS  C214 1395   4.095   0.739   7.761  0.4609  0.1314 -0.2103
   11SAPS  H14R 1396   3.993   0.697   7.763  0.3137  0.5003  2.0362
   11SAPS  C215 1397   4.157   0.764   7.880  0.2666  0.0892 -0.1498
   11SAPS  H15R 1398   4.105   0.734   7.972  0.0936 -1.2441 -0.6762
   11SAPS  C216 1399   4.293   0.829   7.902  0.6194 -0.2206 -0.2510
   11SAPS  H16R 1400   4.300   0.940   7.906  0.7652 -0.2709  2.0196
   11SAPS  H16S 1401   4.370   0.793   7.831 -0.6272  1.0425 -2.2789
   11SAPS  C217 1402   4.337   0.804   8.050  0.8279 -0.2826 -0.3263
   11SAPS  H17R 1403   4.332   0.696   8.074  2.7403 -0.2088  0.4718
   11SAPS  H17S 1404   4.264   0.856   8.115  0.8750  1.4122 -1.5725
   11SAPS  C218 1405   4.471   0.862   8.081 -0.2693  0.3697 -0.1050
   11SAPS  H18R 1406   4.463   0.969   8.108  1.9914  0.8603 -1.2768
   11SAPS  H18S 1407   4.538   0.845   7.994 -2.7315 -2.4481 -1.5040
   11SAPS  C219 1408   4.549   0.796   8.200 -1.3081 -0.7092  0.2039
   11SAPS  H19R 1409   4.568   0.690   8.174 -1.5200 -0.8557  0.6456
   11SAPS  H19S 1410   4.481   0.797   8.288 -1.2024  1.4973  0.2775
   11SAPS  C220 1411   4.680   0.857   8.218 -0.4525  0.5436  0.1733
   11SAPS  H20R 1412   4.668   0.952   8.274  1.6010  0.3611  0.9505
   11SAPS  H20S 1413   4.733   0.868   8.120 -0.3571  1.7690  0.3557
   11SAPS  H20T 1414   4.740   0.798   8.289 -2.4607  1.5237  2.7486
   11SAPS   C33 1415   3.821   0.542   6.575 -0.1779 -0.3479 -0.0475
   11SAPS   H3X 1416   3.853   0.617   6.651 -0.0889 -0.9780  0.5441
   11SAPS   H3Y 1417   3.914   0.481   6.571 -0.3448 -0.6486  0.5842
   11SAPS   C34 1418   3.715   0.460   6.648 -0.5226  0.0898 -1.0388
   11SAPS   H4X 1419   3.662   0.377   6.597 -0.1080  0.6240 -2.3466
   11SAPS   H4Y 1420   3.642   0.532   6.691 -1.1694 -1.0971 -0.0957
   11SAPS   C35 1421   3.759   0.392   6.784 -0.3431 -0.3330  0.1063
   11SAPS   H5X 1422   3.841   0.458   6.822 -0.6530  0.2404 -0.2202
   11SAPS   H5Y 1423   3.795   0.289   6.765  2.7233  0.9857 -1.6996
   11SAPS   C36 1424   3.645   0.386   6.887  0.0937 -0.6980  0.0694
   11SAPS   H6X 1425   3.559   0.335   6.838  0.5726 -1.5713  0.1176
   11SAPS   H6Y 1426   3.616   0.492   6.898  0.2725 -0.4851 -1.3687
   11SAPS   C37 1427   3.690   0.339   7.025  0.2557  0.2300 -0.5233
   11SAPS   H7X 1428   3.790   0.292   7.016  0.9759  2.1301 -2.9892
   11SAPS   H7Y 1429   3.631   0.250   7.055  4.7813 -2.3968  1.1641
   11SAPS   C38 1430   3.707   0.447   7.140 -0.4042 -0.1985  0.7799
   11SAPS   H8X 1431   3.604   0.486   7.152  0.4524  3.1957 -2.2633
   11SAPS   H8Y 1432   3.771   0.532   7.110 -2.6559  1.4763  0.6393
   11SAPS   C39 1433   3.768   0.389   7.263 -0.3844 -0.2937  0.1203
   11SAPS   H9X 1434   3.872   0.354   7.244 -0.2722 -1.5376  2.8850
   11SAPS   H9Y 1435   3.715   0.294   7.288 -0.8965  0.1758  0.8258
   11SAPS  C310 1436   3.750   0.472   7.389 -0.3277 -0.5753 -0.7368
   11SAPS  H10X 1437   3.647   0.491   7.424  0.0853  0.5767 -0.1069
   11SAPS  H10Y 1438   3.796   0.571   7.367  2.6838 -1.4656  1.2104
   11SAPS  C311 1439   3.818   0.405   7.512  0.6006 -0.3999  0.0839
   11SAPS  H11X 1440   3.928   0.405   7.500  0.6970  1.4699  0.7335
   11SAPS  H11Y 1441   3.792   0.297   7.518 -0.8457 -0.2353 -2.4623
   11SAPS  C312 1442   3.784   0.489   7.639 -0.0920  0.1902 -0.6078
   11SAPS  H12X 1443   3.678   0.522   7.641 -0.0959  0.2269 -1.2787
   11SAPS  H12Y 1444   3.854   0.574   7.650 -0.6490  0.3084  2.3313
   11SAPS  C313 1445   3.815   0.409   7.770 -0.7267  0.3653  0.8625
   11SAPS  H13X 1446   3.925   0.391   7.773 -0.2425  2.7021 -1.0037
   11SAPS  H13Y 1447   3.765   0.310   7.777  3.3185 -1.9130 -1.0722
   11SAPS  C314 1448   3.775   0.490   7.896 -0.0167 -0.0577  0.1656
   11SAPS  H14X 1449   3.681   0.546   7.876 -0.8684 -0.5269  2.6920
   11SAPS  H14Y 1450   3.847   0.574   7.908 -0.8955  0.7400 -0.0543
   11SAPS  C315 1451   3.766   0.401   8.023  0.7087 -1.1187 -0.2848
   11SAPS  H15X 1452   3.859   0.343   8.043  2.1021  1.1014 -0.1495
   11SAPS  H15Y 1453   3.672   0.342   8.017 -0.9429  1.4317 -0.1326
   11SAPS  C316 1454   3.751   0.501   8.139 -0.1516  0.1699  0.0909
   11SAPS  H16X 1455   3.681   0.581   8.107  1.8599  2.4057  1.0799
   11SAPS  H16Y 1456   3.849   0.545   8.169  0.0654  0.8694 -1.5622
   11SAPS  C317 1457   3.692   0.441   8.270  0.1939  0.1532 -0.2583
   11SAPS  H17X 1458   3.748   0.348   8.295 -0.2168 -0.9364 -3.2056
   11SAPS  H17Y 1459   3.584   0.423   8.249  0.3675  1.6076 -2.6390
   11SAPS  C318 1460   3.700   0.536   8.388  0.5421 -0.8147 -0.3780
   11SAPS  H18X 1461   3.657   0.478   8.472 -0.7165 -0.7474 -0.9665
   11SAPS  H18Y 1462   3.640   0.626   8.362  1.3529 -0.3443 -0.6623
   11SAPS  H18Z 1463   3.805   0.569   8.404 -0.0076  0.4376  0.8081
   12SAPS     N 1464   3.613   2.155   5.987 -0.4260 -0.6075  0.5338
   12SAPS   HN1 1465   3.605   2.106   6.078 -1.3083  0.0436  0.8174
   12SAPS   HN2 1466   3.632   2.084   5.913  3.1993  0.4216  0.4065
   12SAPS   HN3 1467   3.691   2.224   5.987 -0.2579 -0.7798 -1.1209
   12SAPS   C12 1468   3.486   2.232   5.961 -0.7493 -0.5506  0.2574
   12SAPS  H12A 1469   3.458   2.291   6.048 -0.1553 -0.1190  0.1553
   12SAPS   C13 1470   3.493   2.328   5.837  0.3823 -0.3563  0.7557
   12SAPS  O13A 1471   3.602   2.336   5.775  0.9601  0.0264  0.0116
   12SAPS  O13B 1472   3.383   2.377   5.796 -0.0471 -0.0822  0.8317
   12SAPS   C11 1473   3.368   2.131   5.936 -1.4802 -0.5833 -0.1943
   12SAPS  H11A 1474   3.397   2.071   5.847  2.0522  0.4758  0.1393
   12SAPS  H11B 1475   3.270   2.173   5.905 -0.6417  1.2391 -0.4030
   12SAPS     P 1476   3.298   1.916   6.066  0.1181  0.3383 -0.2796
   12SAPS   O13 1477   3.194   1.904   5.965  0.4232 -0.5276  0.3986
   12SAPS   O14 1478   3.414   1.823   6.048  0.5517  0.4144 -0.5569
   12SAPS   O12 1479   3.342   2.064   6.058 -0.7502  0.2308 -0.2633
   12SAPS   O11 1480   3.235   1.892   6.212 -0.0895  0.0768  0.1141
   12SAPS    C1 1481   3.299   1.947   6.322 -0.1410 -0.0658  0.2153
   12SAPS    HA 1482   3.349   2.041   6.292  0.9703 -0.8208 -0.3169
   12SAPS    HB 1483   3.222   1.963   6.401 -0.1404 -0.1600  0.2353
   12SAPS    C2 1484   3.402   1.850   6.385 -0.2078 -0.6488  0.3941
   12SAPS    HS 1485   3.453   1.808   6.296  0.5727  1.3116 -0.0986
   12SAPS   O21 1486   3.327   1.749   6.456  0.0165  0.3727  0.0908
   12SAPS   C21 1487   3.387   1.643   6.490  0.2403  0.6286 -0.4600
   12SAPS   O22 1488   3.498   1.612   6.451 -0.0533 -0.3140 -0.7365
   12SAPS   C22 1489   3.292   1.552   6.577  0.5477 -0.3031 -0.3942
   12SAPS   H2R 1490   3.190   1.596   6.576  0.7414  0.2133  0.8527
   12SAPS   H2S 1491   3.270   1.457   6.524 -0.7637  0.2232 -0.8281
   12SAPS    C3 1492   3.509   1.927   6.475  0.1642  0.2340 -0.5951
   12SAPS    HX 1493   3.550   2.018   6.425 -1.2067  2.2019  1.7440
   12SAPS    HY 1494   3.589   1.852   6.486  0.8537  1.2351  1.3184
   12SAPS   O31 1495   3.445   1.963   6.602 -0.0879 -0.4457 -0.4177
   12SAPS   C31 1496   3.500   1.909   6.707  0.0815 -0.7679 -0.7344
   12SAPS   O32 1497   3.602   1.845   6.709  0.3447  0.3860 -0.4230
   12SAPS   C32 1498   3.415   1.949   6.832  0.5763  0.8529 -0.3957
   12SAPS   H2X 1499   3.306   1.932   6.815  0.9449 -1.6036 -0.4494
   12SAPS   H2Y 1500   3.418   2.060   6.846  0.5240  0.6264  1.5789
   12SAPS   C23 1501   3.339   1.537   6.728  0.4459 -0.1077 -0.0795
   12SAPS   H3R 1502   3.254   1.501   6.790 -1.9681  2.3445 -1.8083
   12SAPS   H3S 1503   3.362   1.640   6.761 -2.1203  0.5116 -0.0823
   12SAPS   C24 1504   3.463   1.446   6.749  0.3473 -0.4857  0.4743
   12SAPS   H4R 1505   3.547   1.511   6.717 -1.0702  0.2288 -1.9453
   12SAPS   H4S 1506   3.467   1.364   6.674  2.1773 -0.8349  0.9283
   12SAPS   C25 1507   3.488   1.385   6.885 -0.3817  0.3496 -1.3021
   12SAPS   H5R 1508   3.410   1.320   6.927  1.4400 -1.8080 -1.1558
   12SAPS   C26 1509   3.589   1.413   6.968  0.4221 -0.9971  0.2570
   12SAPS   H6R 1510   3.584   1.350   7.058 -1.1238  0.2966  1.1139
   12SAPS   C27 1511   3.700   1.512   6.947  1.0324 -0.2190 -0.5171
   12SAPS   H7R 1512   3.652   1.605   6.909  0.1722  0.7053  2.7048
   12SAPS   H7S 1513   3.752   1.476   6.856 -0.0133 -0.2420 -1.1094
   12SAPS   C28 1514   3.777   1.546   7.077  0.1382 -0.0516 -0.2835
   12SAPS   H8R 1515   3.786   1.462   7.147 -1.5748  2.6458  3.3532
   12SAPS   C29 1516   3.818   1.665   7.130  0.2135  0.4513  0.7850
   12SAPS   H9R 1517   3.872   1.665   7.226  0.2907  1.5634  0.7424
   12SAPS  C210 1518   3.802   1.800   7.063 -0.6238 -0.8021  0.8486
   12SAPS  H10R 1519   3.714   1.840   7.117 -0.9871 -0.3223 -0.0936
   12SAPS  H10S 1520   3.787   1.791   6.953 -0.5477 -3.4223  1.0365
   12SAPS  C211 1521   3.924   1.882   7.077  0.6837  0.1671  0.8164
   12SAPS  H11R 1522   3.997   1.872   6.996 -0.4275  0.6604 -0.2610
   12SAPS  C212 1523   3.962   1.953   7.191  0.5206 -0.4901 -0.7970
   12SAPS  H12R 1524   4.056   2.009   7.203 -0.9015  1.7680  0.2081
   12SAPS  C213 1525   3.869   1.969   7.303 -0.3961  0.6668  0.9276
   12SAPS  H13R 1526   3.792   1.890   7.298  1.1192 -0.7180 -0.9583
   12SAPS  H13S 1527   3.819   2.068   7.294  1.5654  1.4030 -2.5891
   12SAPS  C214 1528   3.932   1.962   7.438 -0.0262 -0.2988 -0.0759
   12SAPS  H14R 1529   4.024   1.903   7.443 -0.7088 -1.2292  1.6099
   12SAPS  C215 1530   3.881   2.018   7.548 -0.1269 -0.4151 -0.0701
   12SAPS  H15R 1531   3.950   2.016   7.634  1.0060  0.3443 -0.9495
   12SAPS  C216 1532   3.743   2.076   7.556  0.3586  0.0565 -0.2103
   12SAPS  H16R 1533   3.688   2.068   7.460 -0.4305  3.4964 -0.1262
   12SAPS  H16S 1534   3.749   2.185   7.580  1.9520 -0.1333  0.3183
   12SAPS  C217 1535   3.659   2.016   7.670 -0.4103 -0.1738  0.1509
   12SAPS  H17R 1536   3.648   1.907   7.655  0.8419 -0.2382 -0.3526
   12SAPS  H17S 1537   3.553   2.049   7.669 -0.7798 -1.2614  2.2318
   12SAPS  C218 1538   3.712   2.034   7.812  0.6517 -0.4982 -0.0582
   12SAPS  H18R 1539   3.815   1.993   7.818  1.1592  0.9482  1.6334
   12SAPS  H18S 1540   3.646   1.982   7.884 -0.2888 -0.0305 -0.5647
   12SAPS  C219 1541   3.725   2.180   7.863 -0.1763 -0.1286  0.4206
   12SAPS  H19R 1542   3.623   2.224   7.859 -0.7569 -1.5359 -0.5241
   12SAPS  H19S 1543   3.772   2.242   7.784 -0.5662  0.1335  0.3926
   12SAPS  C220 1544   3.791   2.193   8.000  0.5557 -1.3623 -0.1149
   12SAPS  H20R 1545   3.818   2.299   8.018 -0.8351 -0.9997 -0.0985
   12SAPS  H20S 1546   3.878   2.124   8.000  0.4519 -1.5756 -2.9594
   12SAPS  H20T 1547   3.719   2.157   8.077  0.7918 -0.4857  0.5158
   12SAPS   C33 1548   3.462   1.893   6.966  0.1653 -0.0654 -0.3107
   12SAPS   H3X 1549   3.570   1.915   6.975 -0.0178  0.7248 -0.0490
   12SAPS   H3Y 1550   3.451   1.782   6.962 -2.1613  0.1365 -0.6165
   12SAPS   C34 1551   3.379   1.941   7.087 -0.5469 -0.0518 -0.2720
   12SAPS   H4X 1552   3.278   1.896   7.093 -0.6373 -0.0243 -1.5560
   12SAPS   H4Y 1553   3.383   2.051   7.078  0.3298 -0.1269 -0.8319
   12SAPS   C35 1554   3.449   1.886   7.213 -0.2132  0.0728 -0.2021
   12SAPS   H5X 1555   3.543   1.945   7.221 -0.1854  0.2155 -1.5168
   12SAPS   H5Y 1556   3.477   1.781   7.190  2.9753  0.7632  0.2035
   12SAPS   C36 1557   3.380   1.900   7.342  0.3784 -0.5094  0.1144
   12SAPS   H6X 1558   3.443   1.849   7.419  2.6840  2.1505  0.0944
   12SAPS   H6Y 1559   3.276   1.863   7.339 -0.4192  1.6038  0.6534
   12SAPS   C37 1560   3.354   2.041   7.375  0.0681  0.3409  0.0650
   12SAPS   H7X 1561   3.295   2.094   7.297  0.0361 -0.3715 -0.3979
   12SAPS   H7Y 1562   3.451   2.095   7.378 -0.4550  1.2291  1.8040
   12SAPS   C38 1563   3.279   2.066   7.511 -0.5755  0.6997  1.0939
   12SAPS   H8X 1564   3.337   2.013   7.589  1.1024  0.8197 -0.0603
   12SAPS   H8Y 1565   3.180   2.017   7.495  0.1391 -0.5775  0.4375
   12SAPS   C39 1566   3.256   2.217   7.538  0.1643  0.2311  0.2578
   12SAPS   H9X 1567   3.172   2.241   7.469 -1.0358 -0.2410  1.5328
   12SAPS   H9Y 1568   3.346   2.274   7.510  0.8383 -1.1293 -0.4255
   12SAPS  C310 1569   3.203   2.251   7.678  0.1468 -0.4799  0.6190
   12SAPS  H10X 1570   3.109   2.193   7.693  0.4449 -0.7404  1.5087
   12SAPS  H10Y 1571   3.193   2.361   7.681  0.7819 -0.3944 -0.2545
   12SAPS  C311 1572   3.304   2.218   7.791  0.9682 -0.1410  0.2944
   12SAPS  H11X 1573   3.388   2.290   7.787  0.7094  0.0983 -1.1648
   12SAPS  H11Y 1574   3.341   2.116   7.770 -1.3955 -0.4562 -2.7149
   12SAPS  C312 1575   3.242   2.232   7.934  0.7668 -0.6736 -0.9246
   12SAPS  H12X 1576   3.196   2.331   7.954  0.3450 -1.5059  2.5161
   12SAPS  H12Y 1577   3.328   2.215   8.003  0.5622  1.5659 -0.1063
   12SAPS  C313 1578   3.150   2.108   7.962 -0.1641 -0.3652  0.6720
   12SAPS  H13X 1579   3.202   2.023   7.912  0.7729  1.7631 -2.0951
   12SAPS  H13Y 1580   3.051   2.121   7.912  0.3638  0.6714 -0.1251
   12SAPS  C314 1581   3.143   2.079   8.113  0.3019 -0.4420 -0.6209
   12SAPS  H14X 1582   3.137   2.173   8.172 -0.3984  1.5240 -3.7043
   12SAPS  H14Y 1583   3.241   2.030   8.133  0.4113 -0.4441 -1.1647
   12SAPS  C315 1584   3.034   1.981   8.160  0.8016 -0.2067 -0.3550
   12SAPS  H15X 1585   2.936   2.029   8.137  1.0500  0.2479 -0.4767
   12SAPS  H15Y 1586   3.033   1.978   8.271 -0.6094 -1.4239 -0.3815
   12SAPS  C316 1587   3.056   1.839   8.097 -0.2215 -0.1427  0.4381
   12SAPS  H16X 1588   3.164   1.816   8.095 -0.0123  0.8347  0.3682
   12SAPS  H16Y 1589   3.020   1.839   7.991 -0.4072 -0.0116  0.5021
   12SAPS  C317 1590   3.005   1.718   8.183  0.0298 -0.1139 -0.1220
   12SAPS  H17X 1591   3.056   1.717   8.281 -2.7287  1.1100  1.3613
   12SAPS  H17Y 1592   3.043   1.625   8.136  1.0636 -0.9381  2.2927
   12SAPS  C318 1593   2.858   1.717   8.206  0.3604 -0.2536  0.5850
   12SAPS  H18X 1594   2.804   1.734   8.110  0.3324  0.6724  0.7607
   12SAPS  H18Y 1595   2.837   1.800   8.277  0.2454 -1.3712  1.8841
   12SAPS  H18Z 1596   2.831   1.618   8.249 -0.3076 -0.2944  0.0850
   13SAPS     N 1597   4.442   5.259   6.117  0.4331 -0.3757 -0.0955
   13SAPS   HN1 1598   4.393   5.179   6.162  1.0276 -1.1199 -0.7680
   13SAPS   HN2 1599   4.476   5.227   6.024 -0.3183 -1.4351 -0.0196
   13SAPS   HN3 1600   4.528   5.285   6.170  0.0940  1.6969 -0.5072
   13SAPS   C12 1601   4.361   5.382   6.084 -0.0912  0.1711 -0.4022
   13SAPS  H12A 1602   4.422   5.455   6.034  2.3381 -1.7063 -0.3088
   13SAPS   C13 1603   4.260   5.351   5.985 -0.0019 -0.6559 -0.5588
   13SAPS  O13A 1604   4.246   5.236   5.934  0.0130  0.2656 -0.4500
   13SAPS  O13B 1605   4.184   5.439   5.948 -0.3437 -0.3396 -0.2239
   13SAPS   C11 1606   4.291   5.433   6.202  0.1290  0.0333  0.2847
   13SAPS  H11A 1607   4.215   5.368   6.252 -0.4827  0.1965 -0.4243
   13SAPS  H11B 1608   4.221   5.511   6.165 -1.4360 -1.5062 -0.0779
   13SAPS     P 1609   4.404   5.607   6.367 -0.0528  0.3087  0.3262
   13SAPS   O13 1610   4.545   5.620   6.419  0.1940 -0.1475  0.1333
   13SAPS   O14 1611   4.368   5.699   6.261  0.5577 -0.0302 -0.4244
   13SAPS   O12 1612   4.386   5.462   6.305 -0.0447  0.1392  0.1423
   13SAPS   O11 1613   4.293   5.616   6.477 -0.4253  0.1619 -0.0139
   13SAPS    C1 1614   4.208   5.517   6.519 -0.3915 -0.6526 -0.0017
   13SAPS    HA 1615   4.110   5.540   6.472 -1.7527 -0.8516  2.6280
   13SAPS    HB 1616   4.238   5.413   6.494  0.4293 -0.4628  0.1666
   13SAPS    C2 1617   4.196   5.521   6.675 -0.2460  0.4966 -1.0799
   13SAPS    HS 1618   4.118   5.445   6.699  1.2073 -0.5292  0.5369
   13SAPS   O21 1619   4.177   5.651   6.728  0.1121 -0.1939  0.2870
   13SAPS   C21 1620   4.059   5.700   6.704  0.0279 -0.5881 -0.2734
   13SAPS   O22 1621   3.966   5.639   6.652  0.8010 -0.1724 -0.5958
   13SAPS   C22 1622   4.049   5.848   6.763  0.2976  0.0378 -0.0798
   13SAPS   H2R 1623   4.126   5.899   6.701  0.4032 -1.5860 -1.3289
   13SAPS   H2S 1624   3.942   5.875   6.748 -0.4381 -2.5801  0.2802
   13SAPS    C3 1625   4.319   5.461   6.740  0.1574 -0.4528 -0.3772
   13SAPS    HX 1626   4.412   5.512   6.708 -0.8707  1.0994 -0.9298
   13SAPS    HY 1627   4.331   5.360   6.696  0.4783 -0.5233 -0.1250
   13SAPS   O31 1628   4.294   5.448   6.883 -0.4831  0.2339 -0.0278
   13SAPS   C31 1629   4.345   5.537   6.956  0.2732 -0.2461 -0.3894
   13SAPS   O32 1630   4.426   5.624   6.922  0.6722  0.1629 -0.2319
   13SAPS   C32 1631   4.261   5.554   7.086  0.1835 -0.6003  0.2193
   13SAPS   H2X 1632   4.271   5.462   7.147 -1.6509 -0.2246  1.1126
   13SAPS   H2Y 1633   4.155   5.570   7.057 -0.1753 -0.3502  1.6302
   13SAPS   C23 1634   4.079   5.849   6.909 -0.6346  0.4357  0.0374
   13SAPS   H3R 1635   4.184   5.818   6.925 -0.7868 -0.0261  0.1685
   13SAPS   H3S 1636   4.014   5.784   6.972 -0.2164  1.2427  1.3061
   13SAPS   C24 1637   4.063   5.984   6.986 -0.3618  0.1319 -0.0894
   13SAPS   H4R 1638   4.095   5.966   7.091  1.1003  0.4759 -0.4705
   13SAPS   H4S 1639   3.955   6.011   6.984 -0.4052 -0.0356 -0.0554
   13SAPS   C25 1640   4.147   6.086   6.914 -0.1657  0.8973 -0.3902
   13SAPS   H5R 1641   4.113   6.115   6.814  0.3409  0.9924 -0.5358
   13SAPS   C26 1642   4.260   6.132   6.961 -0.3632  0.5388 -0.0794
   13SAPS   H6R 1643   4.325   6.205   6.911 -0.7393 -0.2204 -1.6868
   13SAPS   C27 1644   4.313   6.094   7.102  0.7978  0.0267 -0.2956
   13SAPS   H7R 1645   4.325   5.984   7.116  0.8823 -0.0010 -0.5751
   13SAPS   H7S 1646   4.230   6.117   7.171  1.0232 -1.4808  0.4979
   13SAPS   C28 1647   4.446   6.162   7.132  0.2222  0.0155 -0.0663
   13SAPS   H8R 1648   4.436   6.271   7.120 -5.2312 -0.2110  0.9114
   13SAPS   C29 1649   4.559   6.114   7.169  0.0804  0.1773  0.1995
   13SAPS   H9R 1650   4.651   6.170   7.189  1.0033 -0.9051 -0.9541
   13SAPS  C210 1651   4.597   5.972   7.206 -0.0882  0.2620  0.6477
   13SAPS  H10R 1652   4.518   5.904   7.166  1.1648 -0.1387 -1.2274
   13SAPS  H10S 1653   4.585   5.967   7.316 -0.1772  0.0163  0.6282
   13SAPS  C211 1654   4.738   5.935   7.158  0.2381 -0.4270 -0.7530
   13SAPS  H11R 1655   4.782   5.975   7.066 -1.3653  0.0548 -1.3175
   13SAPS  C212 1656   4.809   5.836   7.216  0.4830  0.0078  0.5278
   13SAPS  H12R 1657   4.909   5.817   7.173 -0.5927 -0.2113 -1.9570
   13SAPS  C213 1658   4.783   5.751   7.339  0.2200  0.5138 -0.1971
   13SAPS  H13R 1659   4.788   5.644   7.310  2.6422  0.8040 -0.9377
   13SAPS  H13S 1660   4.674   5.759   7.363  0.1812 -2.0126  0.6185
   13SAPS  C214 1661   4.891   5.773   7.447 -0.7701 -0.3036  0.2219
   13SAPS  H14R 1662   4.996   5.784   7.415 -1.1893 -0.8942 -1.4241
   13SAPS  C215 1663   4.860   5.802   7.578  0.8940  0.3532  0.3857
   13SAPS  H15R 1664   4.941   5.823   7.649  1.9572  0.3140 -0.8002
   13SAPS  C216 1665   4.721   5.794   7.642  0.3214 -0.1548 -0.0808
   13SAPS  H16R 1666   4.744   5.734   7.732 -2.0863 -3.7844 -1.7889
   13SAPS  H16S 1667   4.652   5.730   7.584 -1.6133  1.2974  0.5577
   13SAPS  C217 1668   4.662   5.937   7.659  0.1033 -0.5335  0.2584
   13SAPS  H17R 1669   4.555   5.925   7.687  0.1883 -1.2668  0.2931
   13SAPS  H17S 1670   4.666   5.989   7.561  1.5801 -1.7121 -0.3255
   13SAPS  C218 1671   4.721   6.008   7.781 -0.4983  0.4549 -0.8725
   13SAPS  H18R 1672   4.827   6.032   7.759 -0.6078  2.4580  0.6141
   13SAPS  H18S 1673   4.717   5.948   7.874  1.5281  0.3460 -0.8474
   13SAPS  C219 1674   4.665   6.147   7.813  0.0179  1.1828 -0.2916
   13SAPS  H19R 1675   4.556   6.142   7.833  0.4319  0.7224  1.9964
   13SAPS  H19S 1676   4.686   6.220   7.731  0.0828 -0.5941 -1.8949
   13SAPS  C220 1677   4.715   6.204   7.946  0.0135  0.0870  0.8809
   13SAPS  H20R 1678   4.826   6.194   7.945  0.0494  0.5386  0.3069
   13SAPS  H20S 1679   4.676   6.137   8.025  0.9790 -0.2456  1.0900
   13SAPS  H20T 1680   4.673   6.304   7.970 -0.3043 -0.5113  2.9469
   13SAPS   C33 1681   4.315   5.677   7.168 -0.1742  0.5470  0.0830
   13SAPS   H3X 1682   4.286   5.778   7.134  0.9413  1.7674  2.5910
   13SAPS   H3Y 1683   4.426   5.666   7.163 -0.2189 -0.2043  0.7301
   13SAPS   C34 1684   4.287   5.651   7.314  0.1347  0.1544  0.6048
   13SAPS   H4X 1685   4.352   5.568   7.348  1.3654  0.7397 -0.2781
   13SAPS   H4Y 1686   4.179   5.642   7.338 -0.4887  2.6285 -1.1054
   13SAPS   C35 1687   4.334   5.772   7.396  0.0499 -0.1498 -0.0790
   13SAPS   H5X 1688   4.276   5.852   7.346  0.4983  0.3474  0.2011
   13SAPS   H5Y 1689   4.437   5.804   7.371 -0.3876  2.1350  1.0067
   13SAPS   C36 1690   4.317   5.753   7.548 -0.6445 -0.0375  0.2985
   13SAPS   H6X 1691   4.417   5.770   7.593  0.1367 -1.3137 -0.9261
   13SAPS   H6Y 1692   4.282   5.650   7.568 -1.2196  0.2730  0.9116
   13SAPS   C37 1693   4.217   5.851   7.608 -0.9508  0.0608  0.6841
   13SAPS   H7X 1694   4.127   5.869   7.546 -0.2575 -0.1877 -0.3969
   13SAPS   H7Y 1695   4.280   5.942   7.611  0.3192 -0.7724  0.0320
   13SAPS   C38 1696   4.179   5.803   7.749  0.1821  0.5538  0.1857
   13SAPS   H8X 1697   4.164   5.694   7.740  2.1057  0.3426 -0.7545
   13SAPS   H8Y 1698   4.086   5.848   7.790  0.3220  2.2844 -1.3115
   13SAPS   C39 1699   4.306   5.819   7.846 -0.0362  0.6477 -0.0789
   13SAPS   H9X 1700   4.344   5.923   7.835  0.3751  0.6207  1.0140
   13SAPS   H9Y 1701   4.386   5.747   7.820 -0.6608 -0.6954  1.5951
   13SAPS  C310 1702   4.283   5.788   7.998  0.1094  0.3691 -0.5464
   13SAPS  H10X 1703   4.219   5.698   7.999 -0.3921  0.7193 -0.6590
   13SAPS  H10Y 1704   4.217   5.866   8.043  1.1326 -0.1397  1.8892
   13SAPS  C311 1705   4.412   5.766   8.072  0.1270  0.6622 -0.2207
   13SAPS  H11X 1706   4.491   5.840   8.048  1.5002 -0.1562  1.6025
   13SAPS  H11Y 1707   4.446   5.666   8.037  0.3166  0.5152  0.3772
   13SAPS  C312 1708   4.393   5.759   8.225  0.0094 -0.4835  0.3994
   13SAPS  H12X 1709   4.340   5.662   8.234 -0.5522 -0.2272 -0.0617
   13SAPS  H12Y 1710   4.324   5.838   8.263 -1.2188 -1.4358  0.1906
   13SAPS  C313 1711   4.520   5.766   8.317  0.1877  0.8347  0.3326
   13SAPS  H13X 1712   4.595   5.693   8.278 -0.9709  0.3673 -1.0470
   13SAPS  H13Y 1713   4.496   5.755   8.425  0.7083  4.2033  0.8459
   13SAPS  C314 1714   4.594   5.903   8.299  0.1512 -0.8345  0.9540
   13SAPS  H14X 1715   4.550   5.983   8.364  0.6130  0.8637 -0.7945
   13SAPS  H14Y 1716   4.584   5.935   8.193  1.6696  0.1669  1.1031
   13SAPS  C315 1717   4.740   5.905   8.345  0.5074  0.5979  0.7129
   13SAPS  H15X 1718   4.789   5.812   8.310  1.0504  1.1354  0.0306
   13SAPS  H15Y 1719   4.748   5.908   8.456  0.9123  0.8308  0.6741
   13SAPS  C316 1720   4.810   6.030   8.285 -0.0509  0.1457  0.2433
   13SAPS  H16X 1721   4.759   6.117   8.332  0.1790  1.2061 -1.4171
   13SAPS  H16Y 1722   4.799   6.031   8.174  1.3299  0.4183  0.1026
   13SAPS  C317 1723   4.961   6.048   8.300  0.4019 -0.8262 -0.3809
   13SAPS  H17X 1724   4.975   6.074   8.407  0.1491  0.9594 -0.7641
   13SAPS  H17Y 1725   5.016   6.129   8.249  1.3725 -1.0916  0.2250
   13SAPS  C318 1726   5.035   5.914   8.282 -0.5534  0.4336 -0.6733
   13SAPS  H18X 1727   5.142   5.932   8.308  0.1230 -1.3354 -2.1533
   13SAPS  H18Y 1728   5.031   5.890   8.174  1.5003  2.7503 -1.3148
   13SAPS  H18Z 1729   4.990   5.832   8.341 -0.1033  0.4590 -0.2915
   14SAPS     N 1730   3.406   1.132   5.719  0.4396 -0.3680 -0.0937
   14SAPS   HN1 1731   3.420   1.047   5.776  2.5873  0.2316  0.3029
   14SAPS   HN2 1732   3.306   1.158   5.730  0.6211 -0.1539  1.1127
   14SAPS   HN3 1733   3.429   1.119   5.619 -0.0419 -1.5604 -0.0612
   14SAPS   C12 1734   3.501   1.234   5.785 -0.7416  0.2168  0.0246
   14SAPS  H12A 1735   3.602   1.205   5.760 -0.4091  1.5256 -0.2178
   14SAPS   C13 1736   3.488   1.379   5.738 -1.2063 -0.2998 -0.3338
   14SAPS  O13A 1737   3.424   1.394   5.636 -0.3488 -0.0707  0.1142
   14SAPS  O13B 1738   3.544   1.476   5.800 -0.0323 -0.1407  0.1298
   14SAPS   C11 1739   3.483   1.238   5.947  0.3975  0.1850  0.7584
   14SAPS  H11A 1740   3.383   1.283   5.963  0.3676 -0.0085  1.1250
   14SAPS  H11B 1741   3.561   1.300   5.996  2.7755 -3.3882  1.6808
   14SAPS     P 1742   3.596   1.015   6.026 -0.1505 -0.1191  0.4940
   14SAPS   O13 1743   3.565   0.906   6.119 -0.0302 -0.0652 -0.4650
   14SAPS   O14 1744   3.652   0.970   5.898 -0.1281  0.3496 -0.1363
   14SAPS   O12 1745   3.472   1.108   6.003 -0.2001  0.3832 -0.3412
   14SAPS   O11 1746   3.701   1.100   6.098 -0.5417  0.5300 -0.1835
   14SAPS    C1 1747   3.669   1.147   6.228  0.5354  0.0656 -0.1975
   14SAPS    HA 1748   3.562   1.166   6.250  0.1636 -0.2674 -1.6878
   14SAPS    HB 1749   3.689   1.069   6.304  1.6003 -0.2710 -0.8118
   14SAPS    C2 1750   3.742   1.277   6.261 -0.1899  0.0652 -0.2898
   14SAPS    HS 1751   3.715   1.352   6.183 -1.0443  2.3861  2.1646
   14SAPS   O21 1752   3.886   1.259   6.270  0.0071  0.4042  0.1831
   14SAPS   C21 1753   3.957   1.377   6.256 -0.3400 -0.1657  0.3981
   14SAPS   O22 1754   3.899   1.480   6.233  0.7800 -0.8367 -0.0873
   14SAPS   C22 1755   4.115   1.349   6.263  0.5007 -0.8654 -0.0275
   14SAPS   H2R 1756   4.127   1.259   6.327 -2.7274 -1.9071 -0.7950
   14SAPS   H2S 1757   4.152   1.335   6.159  2.9716 -1.8395  0.9415
   14SAPS    C3 1758   3.685   1.337   6.399 -0.3306 -0.0748 -0.2435
   14SAPS    HX 1759   3.574   1.345   6.394 -0.3416 -0.0839 -0.0012
   14SAPS    HY 1760   3.719   1.442   6.404  2.5627 -1.0241  1.2581
   14SAPS   O31 1761   3.724   1.257   6.513  0.2598 -0.7445  0.4213
   14SAPS   C31 1762   3.830   1.288   6.590 -0.4682  0.1062 -0.9067
   14SAPS   O32 1763   3.913   1.375   6.567 -0.1781 -0.0504  0.3064
   14SAPS   C32 1764   3.838   1.207   6.719 -1.4988  0.0299  0.0485
   14SAPS   H2X 1765   3.774   1.117   6.708 -4.9534  2.0214  2.6776
   14SAPS   H2Y 1766   3.782   1.267   6.794 -1.1194  0.0834  0.2889
   14SAPS   C23 1767   4.173   1.476   6.337  0.1880 -0.4939  0.4971
   14SAPS   H3R 1768   4.115   1.504   6.428  1.6555 -1.5021  1.7684
   14SAPS   H3S 1769   4.173   1.564   6.270 -1.5482 -1.1595 -0.4081
   14SAPS   C24 1770   4.314   1.442   6.376  0.5061  0.2811  0.7795
   14SAPS   H4R 1771   4.373   1.414   6.286  1.3555  0.8231  1.1528
   14SAPS   H4S 1772   4.333   1.351   6.437 -1.1520  0.6683  1.9186
   14SAPS   C25 1773   4.378   1.559   6.445  0.3172  0.0722 -0.5280
   14SAPS   H5R 1774   4.442   1.625   6.385  0.5357  0.4314  0.0896
   14SAPS   C26 1775   4.382   1.574   6.585  0.3389 -0.6234  0.2683
   14SAPS   H6R 1776   4.429   1.664   6.628 -0.6756 -0.1718  0.4343
   14SAPS   C27 1777   4.319   1.480   6.686  0.2718 -0.3492  0.7894
   14SAPS   H7R 1778   4.388   1.466   6.771 -0.6930 -2.0275  1.3130
   14SAPS   H7S 1779   4.304   1.381   6.639  2.6585 -0.2312 -0.2670
   14SAPS   C28 1780   4.173   1.523   6.718 -0.2654 -0.3611  0.7434
   14SAPS   H8R 1781   4.108   1.546   6.633 -0.7595 -0.2585  1.1427
   14SAPS   C29 1782   4.117   1.519   6.841  0.3446  0.3056 -0.1073
   14SAPS   H9R 1783   4.015   1.558   6.852  0.0378 -0.5363  0.0299
   14SAPS  C210 1784   4.191   1.484   6.964  0.4738 -0.1842  0.1141
   14SAPS  H10R 1785   4.286   1.428   6.949  0.1404 -0.8701  0.5607
   14SAPS  H10S 1786   4.145   1.396   7.012 -1.9292 -0.6639 -2.9583
   14SAPS  C211 1787   4.198   1.598   7.065 -0.0683 -0.1592 -0.1135
   14SAPS  H11R 1788   4.227   1.696   7.025  0.0885 -0.2036 -0.1128
   14SAPS  C212 1789   4.175   1.585   7.201  0.3895 -0.2091  0.1285
   14SAPS  H12R 1790   4.169   1.666   7.276 -0.0462 -1.8968  1.9630
   14SAPS  C213 1791   4.135   1.456   7.273  0.3690  0.2788 -0.0736
   14SAPS  H13R 1792   4.156   1.369   7.206 -0.7902 -1.6403  1.9976
   14SAPS  H13S 1793   4.025   1.446   7.274  0.2939  1.1776  0.9354
   14SAPS  C214 1794   4.189   1.430   7.413 -0.3085  0.1566  0.4517
   14SAPS  H14R 1795   4.277   1.366   7.428  0.3069  0.6131 -1.1735
   14SAPS  C215 1796   4.128   1.473   7.519  0.3286 -0.2711  0.5513
   14SAPS  H15R 1797   4.173   1.459   7.618 -2.7570 -0.0134  2.0756
   14SAPS  C216 1798   3.998   1.549   7.520  0.1073  0.3291 -0.5359
   14SAPS  H16R 1799   3.917   1.476   7.501 -0.1677 -0.3433  2.8842
   14SAPS  H16S 1800   3.997   1.624   7.438  1.0790  0.6527 -0.2559
   14SAPS  C217 1801   3.988   1.629   7.651  0.5467  0.0592  0.3347
   14SAPS  H17R 1802   3.905   1.701   7.641 -0.1390 -1.0467 -2.1797
   14SAPS  H17S 1803   4.078   1.694   7.656  0.3280  0.3300  0.8327
   14SAPS  C218 1804   3.970   1.545   7.777 -0.2610 -0.0032 -0.0099
   14SAPS  H18R 1805   4.059   1.479   7.790  0.2038  0.0738 -2.5379
   14SAPS  H18S 1806   3.883   1.478   7.761  0.8153 -1.4454  0.0306
   14SAPS  C219 1807   3.941   1.632   7.900 -0.2157 -0.4766  0.5928
   14SAPS  H19R 1808   3.852   1.688   7.863  0.7201  0.1921 -0.6585
   14SAPS  H19S 1809   4.015   1.713   7.919 -0.4378 -0.1877  0.2438
   14SAPS  C220 1810   3.910   1.554   8.029  0.2180  0.0142 -0.1230
   14SAPS  H20R 1811   4.005   1.523   8.078  1.2423  1.5178 -1.1121
   14SAPS  H20S 1812   3.847   1.472   7.988  0.0021  0.2900 -0.3412
   14SAPS  H20T 1813   3.848   1.621   8.092 -2.2073 -0.3552 -2.0154
   14SAPS   C33 1814   3.977   1.169   6.766 -0.1064  0.2004  0.0702
   14SAPS   H3X 1815   4.046   1.256   6.762  1.4426 -0.9876  0.4653
   14SAPS   H3Y 1816   4.023   1.099   6.693  0.0298 -0.1556  0.4936
   14SAPS   C34 1817   3.984   1.105   6.903  0.0284  0.8163  0.1018
   14SAPS   H4X 1818   4.088   1.098   6.940  0.1252  0.9260 -0.1475
   14SAPS   H4Y 1819   3.947   1.001   6.896  2.8061 -0.0735 -2.2284
   14SAPS   C35 1820   3.904   1.168   7.019  0.4491 -0.3508  0.5267
   14SAPS   H5X 1821   3.796   1.177   6.993  0.9023  1.5164 -0.8713
   14SAPS   H5Y 1822   3.949   1.269   7.035 -2.8885  0.9852  1.9449
   14SAPS   C36 1823   3.933   1.101   7.153 -0.3962 -0.2433  0.1507
   14SAPS   H6X 1824   4.040   1.103   7.181 -0.7897  0.2066  1.7139
   14SAPS   H6Y 1825   3.905   0.993   7.146 -0.9993 -0.0750 -0.0622
   14SAPS   C37 1826   3.864   1.171   7.274 -0.0427 -0.0793  0.1340
   14SAPS   H7X 1827   3.755   1.178   7.253  0.3003  1.2009 -1.3121
   14SAPS   H7Y 1828   3.914   1.269   7.288 -1.3023  0.2882  2.2507
   14SAPS   C38 1829   3.882   1.087   7.399  0.2456 -0.2901 -0.5395
   14SAPS   H8X 1830   3.991   1.071   7.417  0.0100 -0.4976  0.7211
   14SAPS   H8Y 1831   3.829   0.990   7.396  0.2960 -0.2932 -1.2938
   14SAPS   C39 1832   3.844   1.163   7.524 -0.0830  0.6978  0.1624
   14SAPS   H9X 1833   3.738   1.197   7.516 -0.7051 -1.1455  0.3475
   14SAPS   H9Y 1834   3.905   1.250   7.556  2.1004  0.2427 -2.6145
   14SAPS  C310 1835   3.836   1.062   7.646 -0.5992  0.1335  0.1841
   14SAPS  H10X 1836   3.937   1.023   7.669 -1.1082 -2.9027 -2.3182
   14SAPS  H10Y 1837   3.771   0.973   7.628 -1.0374  0.4806  0.0159
   14SAPS  C311 1838   3.783   1.124   7.775 -0.4366  0.2742 -0.5861
   14SAPS  H11X 1839   3.678   1.152   7.751  0.0006  1.8009 -0.7387
   14SAPS  H11Y 1840   3.854   1.207   7.794  1.5084 -1.3794 -0.4172
   14SAPS  C312 1841   3.783   1.023   7.890  1.0019 -0.1102 -0.1846
   14SAPS  H12X 1842   3.879   0.968   7.888  1.2586  0.3662 -1.4532
   14SAPS  H12Y 1843   3.705   0.945   7.876  1.5117 -0.1038 -3.4327
   14SAPS  C313 1844   3.768   1.092   8.030 -0.1753 -0.2813 -0.1056
   14SAPS  H13X 1845   3.668   1.140   8.029  0.0133  0.1159  0.2570
   14SAPS  H13Y 1846   3.845   1.170   8.047  1.5687 -1.6588 -1.4514
   14SAPS  C314 1847   3.771   0.994   8.148  0.4564  0.0743 -0.4582
   14SAPS  H14X 1848   3.707   0.907   8.120  0.4692 -0.6743  1.7524
   14SAPS  H14Y 1849   3.725   1.037   8.239 -0.1575 -0.8281 -0.3276
   14SAPS  C315 1850   3.911   0.940   8.182  0.5419 -0.0776  0.7855
   14SAPS  H15X 1851   3.970   1.027   8.217  0.9523 -0.5850  1.3848
   14SAPS  H15Y 1852   3.958   0.918   8.084 -2.4687  0.8941 -0.9103
   14SAPS  C316 1853   3.921   0.843   8.302  0.6146 -0.3906  0.1974
   14SAPS  H16X 1854   3.836   0.771   8.299 -2.0692  2.5272  2.5786
   14SAPS  H16Y 1855   3.905   0.906   8.391  1.2761  0.5029 -0.3106
   14SAPS  C317 1856   4.051   0.765   8.314  0.5501 -0.5337  0.0842
   14SAPS  H17X 1857   4.080   0.731   8.212 -0.2751 -0.6004 -0.1356
   14SAPS  H17Y 1858   4.033   0.664   8.358  1.1017 -1.1509 -1.0688
   14SAPS  C318 1859   4.156   0.838   8.391  0.2501  0.1007  0.4023
   14SAPS  H18X 1860   4.242   0.772   8.414  0.8016 -0.2664 -2.5780
   14SAPS  H18Y 1861   4.124   0.876   8.491 -0.9613 -0.1280  0.1185
   14SAPS  H18Z 1862   4.192   0.924   8.331 -0.2942 -0.4144 -0.6792
   15SAPS     N 1863   4.840   0.588   5.850 -0.2233 -0.7577  0.6769
   15SAPS   HN1 1864   4.770   0.634   5.788  0.6835 -0.6964 -0.3150
   15SAPS   HN2 1865   4.840   0.485   5.836 -1.1178 -0.6508 -0.1477
   15SAPS   HN3 1866   4.812   0.613   5.947 -0.7617 -0.2035  0.3857
   15SAPS   C12 1867   4.974   0.657   5.831  0.7709  0.2262  0.1276
   15SAPS  H12A 1868   5.045   0.636   5.910  0.3644 -1.3924  0.0962
   15SAPS   C13 1869   5.044   0.614   5.698 -0.0012  0.1502 -0.1893
   15SAPS  O13A 1870   4.983   0.550   5.604 -0.7403  0.1346 -0.2392
   15SAPS  O13B 1871   5.164   0.643   5.688  0.0992 -0.0177 -0.7799
   15SAPS   C11 1872   4.945   0.809   5.819 -0.1018 -0.5331 -0.1584
   15SAPS  H11A 1873   4.863   0.822   5.746 -0.0775 -0.4882 -0.1777
   15SAPS  H11B 1874   5.035   0.869   5.794 -0.1490 -0.5262 -0.3093
   15SAPS     P 1875   5.009   0.914   6.050 -0.2504 -0.0189  0.4091
   15SAPS   O13 1876   5.142   0.845   6.025  0.3907 -0.1637 -0.4852
   15SAPS   O14 1877   5.003   1.065   6.043 -0.2612  0.5743 -0.6952
   15SAPS   O12 1878   4.894   0.850   5.950 -0.4231  0.2572  0.0149
   15SAPS   O11 1879   4.956   0.858   6.188 -0.1446  0.2905 -0.0765
   15SAPS    C1 1880   4.812   0.857   6.201  0.6281 -0.5049  0.0207
   15SAPS    HA 1881   4.773   0.956   6.169 -1.5827 -0.7045  1.9311
   15SAPS    HB 1882   4.770   0.775   6.139  2.9345 -0.9044 -1.0628
   15SAPS    C2 1883   4.769   0.821   6.345  0.2744  0.6962 -0.1271
   15SAPS    HS 1884   4.666   0.784   6.326  0.4843  1.0130 -2.0767
   15SAPS   O21 1885   4.767   0.932   6.439  0.0301  0.2193 -0.2248
   15SAPS   C21 1886   4.658   1.012   6.416 -0.2087 -0.3397  0.6167
   15SAPS   O22 1887   4.580   0.995   6.323  0.1300  0.1866  0.7492
   15SAPS   C22 1888   4.661   1.134   6.512  0.0579 -0.3734 -0.3005
   15SAPS   H2R 1889   4.740   1.123   6.590 -0.7212  1.0543  0.7231
   15SAPS   H2S 1890   4.681   1.220   6.445  0.4554 -2.2190 -2.6129
   15SAPS    C3 1891   4.851   0.707   6.414 -0.4471  0.1444  0.0229
   15SAPS    HX 1892   4.954   0.741   6.437 -0.6320 -0.4823  1.8590
   15SAPS    HY 1893   4.859   0.612   6.357 -2.5902  0.2927 -0.5833
   15SAPS   O31 1894   4.778   0.671   6.534  0.2310 -0.2728  0.4507
   15SAPS   C31 1895   4.823   0.691   6.651 -1.0852 -0.4751 -0.2782
   15SAPS   O32 1896   4.925   0.751   6.679  0.2673 -0.2182 -0.1405
   15SAPS   C32 1897   4.727   0.635   6.755  0.3512  0.3676 -0.3246
   15SAPS   H2X 1898   4.722   0.524   6.748 -1.0950  0.3472  0.7149
   15SAPS   H2Y 1899   4.623   0.671   6.736  0.5990  1.3384  0.1141
   15SAPS   C23 1900   4.517   1.137   6.570 -0.2950 -0.3060 -0.1954
   15SAPS   H3R 1901   4.447   1.096   6.494  1.0135  0.9571 -2.1237
   15SAPS   H3S 1902   4.478   1.240   6.582  0.4898  0.0640 -0.7976
   15SAPS   C24 1903   4.505   1.054   6.702  0.2586 -0.6433  0.7687
   15SAPS   H4R 1904   4.596   1.055   6.764 -0.3856  1.2251  1.7153
   15SAPS   H4S 1905   4.487   0.946   6.678  0.9349 -0.1246 -2.2253
   15SAPS   C25 1906   4.382   1.114   6.772 -0.2395  0.6259 -0.5470
   15SAPS   H5R 1907   4.299   1.135   6.704 -0.8290  1.3292  0.3808
   15SAPS   C26 1908   4.373   1.149   6.900  0.0933  0.4404  0.1521
   15SAPS   H6R 1909   4.275   1.193   6.921  0.4228  1.9598 -1.4362
   15SAPS   C27 1910   4.471   1.117   7.013 -0.0944 -0.9664  0.3158
   15SAPS   H7R 1911   4.572   1.080   6.984  2.3212  4.0977  1.5732
   15SAPS   H7S 1912   4.430   1.031   7.070  0.2992 -2.3119 -1.4096
   15SAPS   C28 1913   4.477   1.243   7.099  0.2624 -0.6273 -0.3654
   15SAPS   H8R 1914   4.486   1.340   7.047  0.1988  0.3676  1.4593
   15SAPS   C29 1915   4.476   1.255   7.232 -0.2829 -0.1328 -0.4064
   15SAPS   H9R 1916   4.473   1.353   7.282  1.9837 -0.9257  1.3519
   15SAPS  C210 1917   4.469   1.140   7.335  0.3508 -0.7084  0.4027
   15SAPS  H10R 1918   4.529   1.155   7.427  0.0407  0.3220  0.4456
   15SAPS  H10S 1919   4.532   1.054   7.305 -1.4569 -2.3123  1.1567
   15SAPS  C211 1920   4.333   1.106   7.378 -0.1699  0.0774  0.4921
   15SAPS  H11R 1921   4.264   1.071   7.300  0.6818  2.2861 -1.3223
   15SAPS  C212 1922   4.296   1.096   7.502 -0.3011  0.1405 -0.1393
   15SAPS  H12R 1923   4.197   1.055   7.529 -0.9152  0.8434 -1.2613
   15SAPS  C213 1924   4.388   1.110   7.623 -0.0221  0.1298 -0.2192
   15SAPS  H13R 1925   4.488   1.068   7.598  0.3120  0.9584 -0.2904
   15SAPS  H13S 1926   4.339   1.032   7.686 -0.4054 -0.2377 -0.9701
   15SAPS  C214 1927   4.399   1.244   7.692 -0.1087 -0.5424  0.0461
   15SAPS  H14R 1928   4.486   1.302   7.660 -0.8992  0.6761  0.0482
   15SAPS  C215 1929   4.326   1.299   7.787  0.5039 -0.1962 -0.4986
   15SAPS  H15R 1930   4.334   1.403   7.820  1.1298 -0.3571 -0.1349
   15SAPS  C216 1931   4.203   1.232   7.839  0.4371 -0.5740  0.1518
   15SAPS  H16R 1932   4.212   1.121   7.835 -0.4642 -0.6063 -1.3646
   15SAPS  H16S 1933   4.118   1.261   7.775  0.2157  0.5162  0.9115
   15SAPS  C217 1934   4.184   1.263   7.993  0.4692 -0.2222 -0.2773
   15SAPS  H17R 1935   4.087   1.225   8.031  1.6522 -2.2348  0.8191
   15SAPS  H17S 1936   4.173   1.372   8.012  1.7926  0.0782 -1.1614
   15SAPS  C218 1937   4.294   1.200   8.079  0.3808  0.4020 -0.5133
   15SAPS  H18R 1938   4.387   1.179   8.023 -0.2270 -2.3694 -0.5572
   15SAPS  H18S 1939   4.252   1.103   8.115  2.7618 -0.1796  0.7979
   15SAPS  C219 1940   4.339   1.275   8.205  0.2839 -0.5034 -0.2350
   15SAPS  H19R 1941   4.377   1.376   8.180 -1.0641  0.5456  1.7484
   15SAPS  H19S 1942   4.430   1.228   8.248  0.7066  1.1879  0.7754
   15SAPS  C220 1943   4.210   1.273   8.302 -0.4555  0.4561  0.1638
   15SAPS  H20R 1944   4.130   1.334   8.254 -2.2481 -0.4697  1.8760
   15SAPS  H20S 1945   4.238   1.324   8.396 -3.9087  1.2585  0.8501
   15SAPS  H20T 1946   4.187   1.167   8.325  0.9610 -0.1207 -1.0548
   15SAPS   C33 1947   4.778   0.683   6.890  0.0534 -0.1069 -0.3383
   15SAPS   H3X 1948   4.804   0.789   6.871  0.2670 -0.0931  0.0148
   15SAPS   H3Y 1949   4.875   0.632   6.910 -0.4760 -0.3261  1.8036
   15SAPS   C34 1950   4.685   0.674   7.006  0.2621 -0.1625  0.4690
   15SAPS   H4X 1951   4.668   0.565   7.018 -0.7418 -0.0380  0.1922
   15SAPS   H4Y 1952   4.588   0.722   6.983  0.6278  0.5646  0.4350
   15SAPS   C35 1953   4.748   0.731   7.134  0.0258 -0.2703 -0.0375
   15SAPS   H5X 1954   4.785   0.836   7.131  0.2125 -0.3308  0.0937
   15SAPS   H5Y 1955   4.834   0.667   7.164 -1.2517 -1.9334  0.1806
   15SAPS   C36 1956   4.636   0.738   7.247  0.4069 -0.0522 -0.2631
   15SAPS   H6X 1957   4.560   0.659   7.230  0.2335  0.2606 -0.9531
   15SAPS   H6Y 1958   4.579   0.832   7.232 -0.5135 -0.4639  0.5490
   15SAPS   C37 1959   4.691   0.729   7.390  1.1057  0.7541 -0.7346
   15SAPS   H7X 1960   4.780   0.795   7.394  2.0983 -0.4271 -2.7273
   15SAPS   H7Y 1961   4.714   0.621   7.402  0.4185  0.7346  0.5602
   15SAPS   C38 1962   4.589   0.762   7.503 -0.0716  0.5714  0.4589
   15SAPS   H8X 1963   4.486   0.737   7.470  1.2682 -0.9081 -2.9087
   15SAPS   H8Y 1964   4.594   0.872   7.521  1.1941  0.6003  0.0233
   15SAPS   C39 1965   4.616   0.682   7.627 -0.3898 -0.6180  0.5946
   15SAPS   H9X 1966   4.629   0.578   7.591  1.5074 -0.6322  1.2703
   15SAPS   H9Y 1967   4.543   0.694   7.710 -0.2892  4.1776  0.1259
   15SAPS  C310 1968   4.740   0.738   7.703 -0.0850 -0.2911  0.4396
   15SAPS  H10X 1969   4.712   0.842   7.729 -2.1346 -1.5278  3.5944
   15SAPS  H10Y 1970   4.831   0.734   7.640 -0.0009 -1.5859  0.6131
   15SAPS  C311 1971   4.762   0.658   7.830 -0.2386  0.5358 -0.3615
   15SAPS  H11X 1972   4.783   0.554   7.797  1.3852  1.4934 -2.4728
   15SAPS  H11Y 1973   4.667   0.644   7.886  1.1036 -2.0950  1.4113
   15SAPS  C312 1974   4.872   0.713   7.921 -0.3029  0.3850 -0.7852
   15SAPS  H12X 1975   4.858   0.820   7.949  2.6525  0.6027 -0.0360
   15SAPS  H12Y 1976   4.956   0.705   7.848  1.3788 -1.1432  1.2808
   15SAPS  C313 1977   4.898   0.634   8.050 -0.8475  0.2481  0.2210
   15SAPS  H13X 1978   4.892   0.526   8.026 -0.4499  0.2414  0.1523
   15SAPS  H13Y 1979   4.808   0.651   8.113 -1.9543 -1.2860 -0.9069
   15SAPS  C314 1980   5.028   0.659   8.128  0.1181 -0.5379  0.1369
   15SAPS  H14X 1981   5.025   0.766   8.157 -0.8195  0.1862 -2.4933
   15SAPS  H14Y 1982   5.115   0.649   8.060 -0.4863  1.1549 -0.9229
   15SAPS  C315 1983   5.046   0.569   8.246 -0.7717  1.6326 -0.2710
   15SAPS  H15X 1984   4.997   0.472   8.223  2.0338  0.8604 -3.3736
   15SAPS  H15Y 1985   4.985   0.607   8.331  0.5843  0.3078  1.3291
   15SAPS  C316 1986   5.201   0.551   8.280 -0.2544 -0.2279  0.2497
   15SAPS  H16X 1987   5.258   0.532   8.187 -0.5584 -1.3093  0.2831
   15SAPS  H16Y 1988   5.198   0.468   8.354 -1.7145 -0.9232 -0.5746
   15SAPS  C317 1989   5.254   0.677   8.353 -0.3733  0.2948  0.5174
   15SAPS  H17X 1990   5.245   0.769   8.291  0.1616  0.5463  0.7983
   15SAPS  H17Y 1991   5.364   0.662   8.363 -0.1233  0.2555 -1.9318
   15SAPS  C318 1992   5.200   0.698   8.492  0.0598  0.5508 -0.5082
   15SAPS  H18X 1993   5.216   0.620   8.569 -1.4357 -2.1170 -2.8246
   15SAPS  H18Y 1994   5.094   0.728   8.482  0.3593  0.9252 -2.8884
   15SAPS  H18Z 1995   5.248   0.792   8.527  0.0955  0.4628 -0.3163
   16SAPS     N 1996   5.930   2.194   6.361  0.5959  0.8007 -0.1842
   16SAPS   HN1 1997   5.973   2.100   6.349  0.6846  0.9380 -1.0185
   16SAPS   HN2 1998   5.958   2.238   6.451 -2.0288  0.0903  1.0179
   16SAPS   HN3 1999   5.827   2.186   6.371  0.8368 -1.4460  0.7195
   16SAPS   C12 2000   5.963   2.278   6.240 -0.8024 -0.3050 -0.8288
   16SAPS  H12A 2001   6.069   2.290   6.228 -0.5702  0.4506  1.7535
   16SAPS   C13 2002   5.923   2.217   6.103  0.2163 -0.1087  0.7197
   16SAPS  O13A 2003   5.886   2.100   6.095 -0.4383  0.0481  0.6819
   16SAPS  O13B 2004   5.923   2.294   6.003 -0.2229 -0.5919 -0.2389
   16SAPS   C11 2005   5.875   2.406   6.260 -0.5528  0.0234  0.1305
   16SAPS  H11A 2006   5.775   2.359   6.271 -0.4510 -0.3454 -0.4922
   16SAPS  H11B 2007   5.876   2.472   6.171  1.9258 -0.8945 -0.5506
   16SAPS     P 2008   6.034   2.565   6.388  0.5019 -0.0062  0.2753
   16SAPS   O13 2009   6.153   2.484   6.407 -0.2585 -0.2810  0.3325
   16SAPS   O14 2010   6.037   2.657   6.272 -0.4617  0.6133 -0.0381
   16SAPS   O12 2011   5.905   2.468   6.385  0.1290 -0.0876  0.0275
   16SAPS   O11 2012   5.997   2.642   6.521 -0.1349  0.2432 -0.8338
   16SAPS    C1 2013   6.002   2.582   6.652 -0.5164  0.2070  0.1526
   16SAPS    HA 2014   5.956   2.652   6.724  1.3092  0.4025  1.1691
   16SAPS    HB 2015   5.948   2.485   6.663  0.0788 -0.1561 -0.0320
   16SAPS    C2 2016   6.148   2.563   6.700  0.7927  0.3202 -0.0192
   16SAPS    HS 2017   6.207   2.487   6.644 -0.5019 -1.6415  1.2160
   16SAPS   O21 2018   6.134   2.504   6.830 -0.1581  0.7194 -0.3187
   16SAPS   C21 2019   6.232   2.442   6.890 -0.2381  0.4587  0.2179
   16SAPS   O22 2020   6.342   2.420   6.847  0.0298  0.2364 -0.1528
   16SAPS   C22 2021   6.185   2.403   7.031  0.3662 -0.6758  0.3177
   16SAPS   H2R 2022   6.225   2.471   7.109 -0.7956  0.2936  0.0805
   16SAPS   H2S 2023   6.074   2.408   7.032  0.4230  1.0919  0.2367
   16SAPS    C3 2024   6.219   2.702   6.711  0.4848 -0.0506 -0.8866
   16SAPS    HX 2025   6.237   2.741   6.608 -0.4685  0.9700 -0.6842
   16SAPS    HY 2026   6.316   2.694   6.763 -0.9272 -0.3588  1.7848
   16SAPS   O31 2027   6.132   2.798   6.770 -0.3841  0.1826 -0.2863
   16SAPS   C31 2028   6.153   2.838   6.897  0.4699 -0.2583  0.1793
   16SAPS   O32 2029   6.230   2.796   6.976  0.1304 -0.2658 -0.1172
   16SAPS   C32 2030   6.053   2.944   6.940 -0.1461 -0.7481 -0.1877
   16SAPS   H2X 2031   5.950   2.914   6.912 -1.0026  0.7461  1.2744
   16SAPS   H2Y 2032   6.082   3.041   6.893 -1.1262 -0.4762 -0.2464
   16SAPS   C23 2033   6.234   2.265   7.064  0.1760 -0.6587  0.0489
   16SAPS   H3R 2034   6.344   2.257   7.074  0.2462  0.9531  0.6461
   16SAPS   H3S 2035   6.199   2.191   6.989  0.3303 -1.8302  1.1212
   16SAPS   C24 2036   6.194   2.218   7.207  0.7825  0.2630 -0.1301
   16SAPS   H4R 2037   6.247   2.272   7.288 -1.0197  0.2697  1.0613
   16SAPS   H4S 2038   6.235   2.118   7.228 -0.7654 -0.1118  1.2243
   16SAPS   C25 2039   6.046   2.211   7.234 -0.0760  0.5498  0.2361
   16SAPS   H5R 2040   5.993   2.162   7.151 -0.1068 -0.0649  0.6208
   16SAPS   C26 2041   5.968   2.260   7.332 -0.9689 -0.1570  0.3429
   16SAPS   H6R 2042   5.860   2.241   7.321 -0.6221 -2.3450  0.3072
   16SAPS   C27 2043   6.014   2.335   7.461  0.4797  0.4698 -0.9080
   16SAPS   H7R 2044   6.122   2.309   7.469  0.0503 -1.0514  0.0894
   16SAPS   H7S 2045   5.959   2.286   7.544  1.5905 -0.7506 -0.8878
   16SAPS   C28 2046   5.992   2.482   7.431  0.8091 -0.1538 -0.0155
   16SAPS   H8R 2047   6.030   2.509   7.331  0.1286  0.4590 -0.1092
   16SAPS   C29 2048   5.913   2.564   7.499 -0.0954 -0.0863  0.6826
   16SAPS   H9R 2049   5.913   2.666   7.457 -1.3143 -0.4273 -0.1747
   16SAPS  C210 2050   5.830   2.529   7.620 -0.5883 -0.9724  0.2853
   16SAPS  H10R 2051   5.817   2.419   7.626  1.6157 -1.2717 -0.1154
   16SAPS  H10S 2052   5.732   2.576   7.597  1.5656  2.7611 -1.7367
   16SAPS  C211 2053   5.870   2.582   7.754  0.3866  0.4387  0.6088
   16SAPS  H11R 2054   5.933   2.672   7.750  0.7128  0.1704 -0.8495
   16SAPS  C212 2055   5.845   2.526   7.869  1.0391 -0.2974 -0.3568
   16SAPS  H12R 2056   5.852   2.604   7.947 -1.4192 -1.1640  0.7697
   16SAPS  C213 2057   5.771   2.395   7.902  0.0409  0.9050  0.3656
   16SAPS  H13R 2058   5.741   2.328   7.819 -0.5982 -2.6682  3.3038
   16SAPS  H13S 2059   5.679   2.411   7.963 -0.0234  0.9261  0.2619
   16SAPS  C214 2060   5.870   2.317   7.987 -0.3032 -0.9035  0.5562
   16SAPS  H14R 2061   5.913   2.228   7.937  2.6410  1.6017 -1.5500
   16SAPS  C215 2062   5.926   2.342   8.110  1.2155 -0.8743 -0.5822
   16SAPS  H15R 2063   5.993   2.266   8.153  0.6253 -0.1174  1.7475
   16SAPS  C216 2064   5.891   2.456   8.200  0.7339  0.1768 -0.0218
   16SAPS  H16R 2065   5.816   2.528   8.161 -2.0537 -1.9562  1.1769
   16SAPS  H16S 2066   5.981   2.515   8.228  1.9384 -1.3344 -0.6431
   16SAPS  C217 2067   5.816   2.407   8.320 -0.9110  0.3646  0.5877
   16SAPS  H17R 2068   5.850   2.307   8.355 -0.8080 -0.1602 -0.9998
   16SAPS  H17S 2069   5.714   2.390   8.281 -1.4030  2.1059  1.0912
   16SAPS  C218 2070   5.816   2.518   8.429  0.4255  0.3615  0.3180
   16SAPS  H18R 2071   5.756   2.604   8.393  0.8777 -0.3300 -2.1795
   16SAPS  H18S 2072   5.917   2.552   8.462  0.4741  1.4876 -0.9706
   16SAPS  C219 2073   5.753   2.482   8.565  0.1881 -0.1169 -0.2220
   16SAPS  H19R 2074   5.830   2.431   8.627 -0.4184  0.6102  1.1528
   16SAPS  H19S 2075   5.664   2.417   8.551 -0.7384  1.0024  0.4220
   16SAPS  C220 2076   5.716   2.600   8.663 -0.4681 -0.1875 -0.1897
   16SAPS  H20R 2077   5.801   2.671   8.663  0.6073 -1.4106 -2.8980
   16SAPS  H20S 2078   5.681   2.557   8.759 -1.1962 -0.3856 -0.5362
   16SAPS  H20T 2079   5.625   2.649   8.621 -0.0315  2.8552  2.1787
   16SAPS   C33 2080   6.063   2.968   7.096 -0.6397 -0.0154  0.1153
   16SAPS   H3X 2081   6.171   2.968   7.121 -0.9549  0.9531  1.5232
   16SAPS   H3Y 2082   6.007   2.898   7.162 -2.3797  0.7522 -0.5006
   16SAPS   C34 2083   6.018   3.107   7.143 -0.2782 -0.0813  0.5956
   16SAPS   H4X 2084   5.910   3.131   7.128  0.1638  2.1662  0.8563
   16SAPS   H4Y 2085   6.073   3.179   7.079 -0.2343 -0.6993 -0.0608
   16SAPS   C35 2086   6.049   3.111   7.297 -0.1922 -0.0783 -0.3395
   16SAPS   H5X 2087   6.154   3.078   7.305 -0.9913 -2.5013  0.7904
   16SAPS   H5Y 2088   5.987   3.034   7.348 -1.6863  1.9116  0.9540
   16SAPS   C36 2089   6.021   3.254   7.357 -0.0270 -0.0945  0.1487
   16SAPS   H6X 2090   5.914   3.270   7.384 -0.4625 -3.3791  0.5124
   16SAPS   H6Y 2091   6.053   3.329   7.281 -0.7078  0.7064  0.6357
   16SAPS   C37 2092   6.103   3.299   7.483 -0.2064  0.2924  0.2140
   16SAPS   H7X 2093   6.065   3.402   7.497  0.2720  0.5149 -0.1261
   16SAPS   H7Y 2094   6.211   3.292   7.457 -0.2966  0.6792 -0.2472
   16SAPS   C38 2095   6.076   3.218   7.619  0.3033 -0.2034  0.8284
   16SAPS   H8X 2096   6.152   3.261   7.688  0.9506  0.9073 -0.5598
   16SAPS   H8Y 2097   6.110   3.112   7.605  0.6687  0.2490 -2.0336
   16SAPS   C39 2098   5.930   3.231   7.649  0.2995  0.4573 -0.2556
   16SAPS   H9X 2099   5.872   3.178   7.572  1.1414 -1.3812  0.3500
   16SAPS   H9Y 2100   5.904   3.339   7.658  2.0172  0.7838  1.2810
   16SAPS  C310 2101   5.893   3.162   7.781 -0.6886 -0.2109  0.6752
   16SAPS  H10X 2102   5.919   3.055   7.766 -1.8039 -0.1319 -2.1523
   16SAPS  H10Y 2103   5.782   3.170   7.785 -1.0524 -1.1239 -4.4280
   16SAPS  C311 2104   5.975   3.205   7.909 -0.3129  0.0297 -0.1714
   16SAPS  H11X 2105   5.967   3.314   7.929  0.7802  0.6321 -2.7884
   16SAPS  H11Y 2106   6.082   3.184   7.891 -0.5117 -0.6598 -0.5707
   16SAPS  C312 2107   5.937   3.132   8.040  0.7410  0.1230 -0.4911
   16SAPS  H12X 2108   6.008   3.167   8.118  1.1579 -0.4170 -0.6235
   16SAPS  H12Y 2109   5.945   3.023   8.020 -1.4667 -0.0829 -0.3603
   16SAPS  C313 2110   5.795   3.152   8.096 -0.7395  0.4022  0.5389
   16SAPS  H13X 2111   5.778   3.099   8.192  0.7720 -0.8512  0.1465
   16SAPS  H13Y 2112   5.721   3.114   8.022  0.5765  1.3647 -1.3292
   16SAPS  C314 2113   5.757   3.306   8.113  0.5333  0.1688 -0.5485
   16SAPS  H14X 2114   5.776   3.349   8.013  1.1223  1.2254  0.0112
   16SAPS  H14Y 2115   5.832   3.337   8.190 -0.3229  1.9009 -0.4086
   16SAPS  C315 2116   5.612   3.313   8.159 -0.7045  0.0565  0.5007
   16SAPS  H15X 2117   5.605   3.280   8.265  1.0914  1.2960  1.0260
   16SAPS  H15Y 2118   5.563   3.236   8.095 -1.0520 -0.7305  1.6917
   16SAPS  C316 2119   5.550   3.453   8.140 -0.1950  0.7739  0.2926
   16SAPS  H16X 2120   5.564   3.485   8.035 -2.7375  0.5991 -0.1448
   16SAPS  H16Y 2121   5.609   3.527   8.197 -1.2103  2.8746 -1.3405
   16SAPS  C317 2122   5.406   3.448   8.188  0.1891  0.4296  0.7494
   16SAPS  H17X 2123   5.358   3.361   8.138  1.0577  0.1084  0.4676
   16SAPS  H17Y 2124   5.353   3.535   8.142  2.5740  0.3121 -2.4401
   16SAPS  C318 2125   5.374   3.456   8.335  1.1211  0.4859  0.6438
   16SAPS  H18X 2126   5.266   3.452   8.363  1.7890 -2.1422  3.0490
   16SAPS  H18Y 2127   5.427   3.546   8.373  0.2877  0.8736  0.9095
   16SAPS  H18Z 2128   5.421   3.365   8.378  0.1550 -0.6342 -0.6019
   17SAPC     N 2129   4.458   6.120  10.424 -0.8165 -0.0461 -0.1785
   17SAPC   C12 2130   4.378   5.989  10.409  0.3591  0.0740  0.3024
   17SAPC  H12A 2131   4.295   6.010  10.474 -0.6261  0.7099 -1.1245
   17SAPC  H12B 2132   4.445   5.912  10.444  0.3911 -1.5948 -3.2078
   17SAPC   C13 2133   4.544   6.137  10.311 -0.1797 -0.3040  0.9996
   17SAPC  H13A 2134   4.601   6.046  10.301 -1.0962 -0.5490 -2.9412
   17SAPC  H13B 2135   4.485   6.161  10.224 -1.2597  0.8581  2.0341
   17SAPC  H13C 2136   4.614   6.218  10.327 -0.7751  0.3609  0.2822
   17SAPC   C14 2137   4.367   6.242  10.422  0.2444 -0.7175 -0.0629
   17SAPC  H14A 2138   4.313   6.255  10.514  0.2413  0.2412 -0.1908
   17SAPC  H14B 2139   4.424   6.333  10.430  0.5466 -0.9481  0.4327
   17SAPC  H14C 2140   4.293   6.234  10.344  0.7710 -1.5771 -0.4889
   17SAPC   C15 2141   4.538   6.103  10.545  0.6530  0.1577 -0.7557
   17SAPC  H15A 2142   4.592   6.195  10.564  1.9699 -0.9887  1.2421
   17SAPC  H15B 2143   4.476   6.086  10.632 -1.3303 -1.2629 -2.4218
   17SAPC  H15C 2144   4.610   6.023  10.548 -1.9660 -2.2388  0.7839
   17SAPC   C11 2145   4.333   5.946  10.267 -0.4374  0.4449 -0.2961
   17SAPC  H11A 2146   4.277   5.850  10.277 -0.8641  0.5992 -1.1764
   17SAPC  H11B 2147   4.423   5.922  10.206  0.7996  1.5811  1.0260
   17SAPC     P 2148   4.099   6.068  10.232 -0.0848 -0.5048 -0.0015
   17SAPC   O13 2149   4.045   5.958  10.317 -0.3706 -0.3000  0.4920
   17SAPC   O14 2150   4.074   6.206  10.270  0.0695 -0.2266 -0.1033
   17SAPC   O12 2151   4.261   6.047  10.210 -0.2258  0.1628  0.1707
   17SAPC   O11 2152   4.042   6.049  10.087  1.3826  0.3104  0.5006
   17SAPC    C1 2153   4.064   5.933  10.006  0.3461  0.0449  0.3676
   17SAPC    HA 2154   4.134   5.861  10.055 -1.4227 -1.1180  1.2330
   17SAPC    HB 2155   3.964   5.886   9.996  0.1042  0.4350  0.9240
   17SAPC    C2 2156   4.110   5.970   9.866 -0.2746 -0.1726 -0.4127
   17SAPC    HS 2157   4.133   5.878   9.809 -2.3243  0.5357 -2.4560
   17SAPC   O21 2158   4.227   6.055   9.877  0.0847  0.3563  0.7572
   17SAPC   C21 2159   4.344   5.987   9.901 -0.1704  0.3012 -0.7633
   17SAPC   O22 2160   4.352   5.870   9.916 -0.3578  0.0187  0.6281
   17SAPC   C22 2161   4.454   6.094   9.927  0.1601  0.3535  0.1844
   17SAPC   H2R 2162   4.446   6.164   9.841  0.5003 -0.1757 -0.2776
   17SAPC   H2S 2163   4.435   6.148  10.022 -0.3891  1.2632 -0.4345
   17SAPC    C3 2164   4.007   6.054   9.800  0.3330 -0.0162 -0.3464
   17SAPC    HX 2165   3.997   6.147   9.859  1.7069 -0.3297  0.4115
   17SAPC    HY 2166   3.912   5.999   9.818  1.6457 -1.7393  1.5819
   17SAPC   O31 2167   4.036   6.096   9.667  1.0904 -0.1379  0.4353
   17SAPC   C31 2168   3.998   6.005   9.575  0.2310  0.1392  0.6064
   17SAPC   O32 2169   3.941   5.901   9.605 -0.0454  0.1509  0.6648
   17SAPC   C32 2170   4.041   6.063   9.435 -0.0926 -0.3520 -0.4316
   17SAPC   H2X 2171   4.147   6.095   9.442 -0.1033 -0.1577 -1.1340
   17SAPC   H2Y 2172   3.989   6.158   9.410 -1.2035 -0.8948 -0.2246
   17SAPC   C23 2173   4.596   6.028   9.935  0.0813 -0.0920 -0.4874
   17SAPC   H3R 2174   4.603   5.940  10.002  0.7077 -0.4191 -0.9818
   17SAPC   H3S 2175   4.660   6.110   9.975  0.0425 -0.5562  0.5525
   17SAPC   C24 2176   4.649   5.964   9.810  0.6250 -0.3483 -0.3409
   17SAPC   H4R 2177   4.584   5.884   9.768  0.9430 -1.8324  1.8763
   17SAPC   H4S 2178   4.742   5.908   9.836  0.5258  0.3161  1.5426
   17SAPC   C25 2179   4.690   6.062   9.704 -0.0084 -0.0660 -0.2141
   17SAPC   H5R 2180   4.786   6.112   9.728  0.4279 -0.8269 -0.3786
   17SAPC   C26 2181   4.633   6.079   9.587  0.4916 -0.4668 -0.9760
   17SAPC   H6R 2182   4.678   6.139   9.507  1.0558  1.6018  0.8384
   17SAPC   C27 2183   4.512   6.005   9.538 -0.0138 -0.9415  0.1004
   17SAPC   H7R 2184   4.452   5.968   9.624 -0.8277  0.7799  0.2860
   17SAPC   H7S 2185   4.543   5.911   9.488  1.5296 -1.3668  1.8329
   17SAPC   C28 2186   4.428   6.104   9.465  0.0353 -0.0930  0.1285
   17SAPC   H8R 2187   4.364   6.157   9.537  2.4442  1.2845  1.3202
   17SAPC   C29 2188   4.424   6.141   9.338 -0.8402  0.1230  0.5467
   17SAPC   H9R 2189   4.347   6.214   9.310 -1.5627 -0.8004  0.0894
   17SAPC  C210 2190   4.511   6.089   9.223  0.1585  0.9581  0.0595
   17SAPC  H10R 2191   4.526   5.979   9.237 -2.6639  0.3195 -1.6062
   17SAPC  H10S 2192   4.617   6.121   9.237 -0.0150  1.7475 -0.4292
   17SAPC  C211 2193   4.471   6.123   9.088  0.4440 -0.3664 -0.6502
   17SAPC  H11R 2194   4.364   6.151   9.087  0.0026 -1.9202  0.7234
   17SAPC  C212 2195   4.551   6.127   8.980 -0.4117 -0.0415  0.3393
   17SAPC  H12R 2196   4.510   6.152   8.881 -0.4099  0.9368  0.5880
   17SAPC  C213 2197   4.692   6.079   8.979 -0.4581  0.5662  0.5089
   17SAPC  H13R 2198   4.739   6.088   9.080 -2.3715  2.4411  1.2595
   17SAPC  H13S 2199   4.757   6.132   8.907 -1.8915 -1.5647 -2.4600
   17SAPC  C214 2200   4.676   5.933   8.949 -0.2475 -0.3887 -1.0364
   17SAPC  H14R 2201   4.625   5.873   9.026  1.2229  0.7413  0.8694
   17SAPC  C215 2202   4.726   5.867   8.845  0.5558 -0.1156  0.6444
   17SAPC  H15R 2203   4.709   5.758   8.855 -1.9236  0.2326  0.4888
   17SAPC  C216 2204   4.808   5.914   8.727  0.0978 -0.5729 -0.1399
   17SAPC  H16R 2205   4.748   6.001   8.692  1.0746  0.2344  0.1594
   17SAPC  H16S 2206   4.805   5.851   8.635  1.7429  1.5532 -1.7131
   17SAPC  C217 2207   4.954   5.966   8.745  0.0176  0.3171 -0.9327
   17SAPC  H17R 2208   4.955   6.011   8.847 -0.9272 -2.7309  0.5212
   17SAPC  H17S 2209   4.977   6.045   8.672  0.5346  0.3213 -0.7616
   17SAPC  C218 2210   5.069   5.866   8.764 -0.8682  0.5968 -1.3791
   17SAPC  H18R 2211   5.083   5.815   8.666  0.6349  1.8804 -1.8446
   17SAPC  H18S 2212   5.046   5.789   8.841 -1.8365  1.6284 -0.6142
   17SAPC  C219 2213   5.207   5.930   8.797  0.3816 -0.0765 -0.2244
   17SAPC  H19R 2214   5.211   5.983   8.895  1.5316 -1.4023  0.4720
   17SAPC  H19S 2215   5.210   6.006   8.716  1.8988 -0.1249 -0.2296
   17SAPC  C220 2216   5.333   5.843   8.778  0.2732  0.0763  0.0638
   17SAPC  H20R 2217   5.427   5.899   8.797  0.6055  0.0478 -1.4517
   17SAPC  H20S 2218   5.336   5.786   8.683  1.0429 -0.0957  0.1892
   17SAPC  H20T 2219   5.327   5.766   8.858 -1.8587 -0.7680 -0.8644
   17SAPC   C33 2220   4.024   5.967   9.315 -0.0967  0.1482  0.9429
   17SAPC   H3X 2221   3.917   5.941   9.298  0.9319 -2.9368 -1.2379
   17SAPC   H3Y 2222   4.058   5.864   9.336 -1.7363 -0.2840  1.5735
   17SAPC   C34 2223   4.091   6.019   9.191 -0.3117 -0.1875  1.1186
   17SAPC   H4X 2224   4.201   6.020   9.210 -0.3262 -1.5646  1.3140
   17SAPC   H4Y 2225   4.050   6.121   9.182 -0.3892 -0.3412 -0.5817
   17SAPC   C35 2226   4.052   5.955   9.058 -0.2377  0.1492 -0.0124
   17SAPC   H5X 2227   3.947   5.973   9.025 -0.3901  0.7495  0.7755
   17SAPC   H5Y 2228   4.063   5.845   9.069  2.7945  0.1255 -2.6049
   17SAPC   C36 2229   4.148   6.007   8.949  0.7284 -0.2224 -0.1130
   17SAPC   H6X 2230   4.253   6.008   8.986  0.2399  0.2054  1.2819
   17SAPC   H6Y 2231   4.124   6.112   8.921  1.2497 -0.7334 -2.5612
   17SAPC   C37 2232   4.151   5.915   8.833 -0.4767  0.1452  0.2070
   17SAPC   H7X 2233   4.051   5.924   8.785 -0.9077 -3.3667  0.3223
   17SAPC   H7Y 2234   4.156   5.809   8.865 -0.0453  0.3510  0.8323
   17SAPC   C38 2235   4.271   5.935   8.735  0.4487 -1.2057 -0.0703
   17SAPC   H8X 2236   4.277   5.843   8.673 -2.3588 -2.2300  1.1091
   17SAPC   H8Y 2237   4.369   5.948   8.786  2.0317 -0.3955 -3.1907
   17SAPC   C39 2238   4.240   6.052   8.647 -0.5643 -0.2975  0.7396
   17SAPC   H9X 2239   4.222   6.143   8.708  1.6395  2.7403 -2.8799
   17SAPC   H9Y 2240   4.151   6.015   8.591 -1.2602  0.4541  1.3253
   17SAPC  C310 2241   4.345   6.086   8.537 -0.4696  0.6525  0.2029
   17SAPC  H10X 2242   4.351   5.999   8.469  0.1043  0.1934  0.8344
   17SAPC  H10Y 2243   4.445   6.098   8.584 -0.3511 -1.0481  0.3953
   17SAPC  C311 2244   4.310   6.210   8.456  0.6320 -0.0872 -0.1194
   17SAPC  H11X 2245   4.306   6.287   8.536 -1.2902  0.0501 -0.3244
   17SAPC  H11Y 2246   4.209   6.208   8.410 -1.0827 -0.8544  3.4940
   17SAPC  C312 2247   4.417   6.239   8.342  0.3837 -0.8295 -0.5354
   17SAPC  H12X 2248   4.403   6.184   8.246  0.6278 -3.1684  0.7290
   17SAPC  H12Y 2249   4.515   6.216   8.389 -0.2443 -0.5323  0.9338
   17SAPC  C313 2250   4.415   6.392   8.296 -0.3180 -0.9207  0.8328
   17SAPC  H13X 2251   4.445   6.453   8.384  0.5269  1.4498 -1.0492
   17SAPC  H13Y 2252   4.316   6.422   8.258 -0.2594 -1.1760  0.4792
   17SAPC  C314 2253   4.519   6.409   8.185  0.5286  0.3610 -0.0393
   17SAPC  H14X 2254   4.500   6.356   8.089 -2.5166 -1.1257  1.3235
   17SAPC  H14Y 2255   4.616   6.362   8.213 -0.4827 -2.9439 -1.7065
   17SAPC  C315 2256   4.541   6.554   8.141  0.1379 -0.0269 -0.8790
   17SAPC  H15X 2257   4.622   6.557   8.065  0.5105  0.4207 -0.4702
   17SAPC  H15Y 2258   4.594   6.601   8.227 -0.9921  0.2547 -0.3307
   17SAPC  C316 2259   4.419   6.642   8.109  0.5227  0.0337  0.5855
   17SAPC  H16X 2260   4.459   6.745   8.102 -0.9880  0.5103 -1.5618
   17SAPC  H16Y 2261   4.343   6.647   8.189 -0.8600  1.4448 -0.7996
   17SAPC  C317 2262   4.355   6.606   7.968  0.0290 -0.2888  0.2599
   17SAPC  H17X 2263   4.350   6.495   7.967 -1.9009 -0.2078  0.6028
   17SAPC  H17Y 2264   4.419   6.632   7.881 -1.6778  0.9873 -0.6307
   17SAPC  C318 2265   4.213   6.658   7.961 -0.7589 -0.2242 -0.8262
   17SAPC  H18X 2266   4.141   6.616   8.036 -2.4468  2.3617 -0.9423
   17SAPC  H18Y 2267   4.208   6.769   7.960  0.1965 -0.1132  2.0577
   17SAPC  H18Z 2268   4.168   6.634   7.862 -1.3072  0.8356 -0.8405
   18SAPC     N 2269   5.486   5.777  10.676 -0.1963  0.2881 -0.1564
   18SAPC   C12 2270   5.452   5.767  10.533 -1.1197 -0.3765 -0.4250
   18SAPC  H12A 2271   5.521   5.822  10.471 -2.2317  0.9151 -0.5428
   18SAPC  H12B 2272   5.360   5.824  10.534 -0.0813  1.3839  2.7771
   18SAPC   C13 2273   5.620   5.713  10.691  0.5688  0.0508 -1.0343
   18SAPC  H13A 2274   5.608   5.605  10.688  1.3031 -0.0136 -1.6671
   18SAPC  H13B 2275   5.676   5.724  10.600  1.2852 -4.3236 -1.2571
   18SAPC  H13C 2276   5.665   5.730  10.787 -1.2885 -0.8707  0.0370
   18SAPC   C14 2277   5.481   5.918  10.711  0.1280  0.8003  0.4660
   18SAPC  H14A 2278   5.535   5.936  10.803 -0.3718  0.6740  0.7861
   18SAPC  H14B 2279   5.531   5.969  10.631  1.7559 -1.8978 -0.2660
   18SAPC  H14C 2280   5.379   5.955  10.708  0.7637  2.7961  1.8312
   18SAPC   C15 2281   5.384   5.706  10.764  0.0775  0.5942 -0.0551
   18SAPC  H15A 2282   5.295   5.768  10.761  0.1642  0.7118 -0.1713
   18SAPC  H15B 2283   5.355   5.607  10.731 -2.0570  1.3232 -0.4621
   18SAPC  H15C 2284   5.426   5.707  10.863 -1.3479  0.5329  0.5639
   18SAPC   C11 2285   5.426   5.623  10.466 -0.3821  0.9129 -1.1649
   18SAPC  H11A 2286   5.502   5.589  10.393  0.0815  0.3308 -0.4159
   18SAPC  H11B 2287   5.329   5.638  10.414 -2.0395 -1.5526  1.0816
   18SAPC     P 2288   5.317   5.394  10.547 -0.3031  0.1459 -0.0991
   18SAPC   O13 2289   5.368   5.280  10.631 -0.0865  0.2776 -0.7116
   18SAPC   O14 2290   5.185   5.445  10.576  0.0157  0.5763  0.2520
   18SAPC   O12 2291   5.413   5.517  10.561 -0.0060 -0.6569 -0.2234
   18SAPC   O11 2292   5.312   5.352  10.390  0.7159  0.2289 -0.1579
   18SAPC    C1 2293   5.407   5.262  10.339  0.2501 -0.1859  0.2954
   18SAPC    HA 2294   5.495   5.325  10.315 -0.2745  0.3232 -0.3086
   18SAPC    HB 2295   5.449   5.189  10.411 -1.3857 -0.0896  1.3910
   18SAPC    C2 2296   5.362   5.204  10.201 -0.4179 -0.1296  0.2585
   18SAPC    HS 2297   5.445   5.155  10.145 -0.2668  0.6742 -0.2308
   18SAPC   O21 2298   5.312   5.317  10.132 -0.9671 -0.0678  0.0353
   18SAPC   C21 2299   5.401   5.387  10.067 -0.3754 -0.2423 -0.2014
   18SAPC   O22 2300   5.520   5.381  10.079 -0.2652 -0.0682  0.6848
   18SAPC   C22 2301   5.320   5.497   9.994  0.2047  0.0029  0.6270
   18SAPC   H2R 2302   5.260   5.557  10.066  2.4657  0.6902  1.9823
   18SAPC   H2S 2303   5.382   5.583   9.962 -1.2106 -0.2199 -2.8967
   18SAPC    C3 2304   5.254   5.088  10.208  0.8116 -0.3502  1.1323
   18SAPC    HX 2305   5.177   5.090  10.287 -2.6746 -1.0316 -2.0725
   18SAPC    HY 2306   5.319   5.004  10.241  0.8713 -1.8450 -2.5554
   18SAPC   O31 2307   5.218   5.045  10.078 -0.6591 -0.5802  0.2760
   18SAPC   C31 2308   5.109   5.103  10.028 -0.5312 -0.4785  0.1861
   18SAPC   O32 2309   5.051   5.200  10.075  0.5860 -0.0198 -0.1405
   18SAPC   C32 2310   5.069   5.039   9.893  0.2049 -0.0294 -0.6958
   18SAPC   H2X 2311   5.035   4.934   9.905  1.2551 -0.5570 -2.2014
   18SAPC   H2Y 2312   5.165   5.033   9.836  1.0423 -1.4926  0.8144
   18SAPC   C23 2313   5.247   5.448   9.869 -0.4352  0.4353 -0.1559
   18SAPC   H3R 2314   5.188   5.532   9.826 -0.6628  0.5484  0.3778
   18SAPC   H3S 2315   5.172   5.373   9.901 -0.4072 -0.2445 -1.6397
   18SAPC   C24 2316   5.335   5.388   9.753  0.1622 -0.1387 -0.6694
   18SAPC   H4R 2317   5.391   5.304   9.801  0.7025  0.2936 -0.5272
   18SAPC   H4S 2318   5.405   5.468   9.722  0.6430  0.0840  0.9499
   18SAPC   C25 2319   5.245   5.338   9.637  0.1829  0.1726 -0.0231
   18SAPC   H5R 2320   5.201   5.239   9.652  1.7993 -0.3700  1.3653
   18SAPC   C26 2321   5.205   5.412   9.531 -0.0044  1.2181  0.3148
   18SAPC   H6R 2322   5.134   5.366   9.462  2.4538 -0.9400 -0.8703
   18SAPC   C27 2323   5.253   5.551   9.491 -0.3261 -0.0597  0.4127
   18SAPC   H7R 2324   5.336   5.585   9.557  1.3464 -3.1309  0.0113
   18SAPC   H7S 2325   5.173   5.625   9.509  1.4533  2.0075  0.0129
   18SAPC   C28 2326   5.308   5.553   9.354  0.5254 -0.1183 -0.0387
   18SAPC   H8R 2327   5.373   5.467   9.328  0.1198 -0.5250  0.2800
   18SAPC   C29 2328   5.268   5.633   9.249 -0.6271  0.2943  0.2912
   18SAPC   H9R 2329   5.315   5.625   9.150 -0.6383 -2.7857  0.4693
   18SAPC  C210 2330   5.166   5.746   9.252  0.4499 -0.1916  0.1194
   18SAPC  H10R 2331   5.213   5.838   9.210 -2.0762  1.2331  0.2777
   18SAPC  H10S 2332   5.143   5.766   9.359 -1.1150 -3.3522  0.4277
   18SAPC  C211 2333   5.041   5.720   9.165  0.2973 -0.3189  0.1205
   18SAPC  H11R 2334   5.046   5.754   9.061  0.2559 -0.6280  0.0164
   18SAPC  C212 2335   4.926   5.667   9.207  0.3893 -0.0308  0.0116
   18SAPC  H12R 2336   4.839   5.653   9.141  0.3723 -1.4722  0.3355
   18SAPC  C213 2337   4.900   5.628   9.352  0.2908  0.6514  0.3347
   18SAPC  H13R 2338   4.990   5.578   9.392  0.5878  0.0767 -1.0341
   18SAPC  H13S 2339   4.815   5.557   9.357  0.7011  0.0057 -1.5155
   18SAPC  C214 2340   4.874   5.751   9.435  0.3179  0.1372  0.6646
   18SAPC  H14R 2341   4.898   5.848   9.389 -1.2742  1.2773  2.1698
   18SAPC  C215 2342   4.825   5.744   9.564  0.2393 -0.6272  0.4290
   18SAPC  H15R 2343   4.812   5.844   9.608  1.4695  0.8421 -2.4084
   18SAPC  C216 2344   4.786   5.619   9.637  0.0190  0.2840  1.2059
   18SAPC  H16R 2345   4.815   5.528   9.581 -0.1379  0.2856  1.1207
   18SAPC  H16S 2346   4.677   5.616   9.658 -0.0769  1.5420  0.9541
   18SAPC  C217 2347   4.856   5.611   9.772 -0.2277  0.3652 -0.2949
   18SAPC  H17R 2348   4.807   5.681   9.842 -0.0442  2.7671 -2.5133
   18SAPC  H17S 2349   4.963   5.643   9.771 -0.1906  0.3101  0.8650
   18SAPC  C218 2350   4.839   5.471   9.826 -0.0938  0.0983 -0.4383
   18SAPC  H18R 2351   4.905   5.398   9.773  1.1162  2.0381 -1.6820
   18SAPC  H18S 2352   4.735   5.441   9.803 -0.8297  1.5873  0.9028
   18SAPC  C219 2353   4.852   5.464   9.978  0.0287 -0.2707  0.2953
   18SAPC  H19R 2354   4.956   5.471  10.016  0.1723 -1.2694  0.1121
   18SAPC  H19S 2355   4.814   5.369  10.021  2.2981 -0.5056  1.8890
   18SAPC  C220 2356   4.763   5.570  10.057 -0.1282 -0.3164 -0.3131
   18SAPC  H20R 2357   4.810   5.671  10.054 -2.3641  0.7673  0.1246
   18SAPC  H20S 2358   4.749   5.546  10.165 -0.2525 -2.7408 -0.8331
   18SAPC  H20T 2359   4.663   5.591  10.013  0.2703  1.6225 -0.3177
   18SAPC   C33 2360   4.961   5.114   9.818  0.7427 -0.5254  0.5548
   18SAPC   H3X 2361   5.004   5.216   9.807 -0.4398  0.0299  0.9330
   18SAPC   H3Y 2362   4.885   5.116   9.899 -1.3775 -2.5646 -1.3160
   18SAPC   C34 2363   4.919   5.073   9.678  0.5166 -0.6369 -0.6578
   18SAPC   H4X 2364   4.850   4.986   9.684  0.4424 -0.5834 -0.7145
   18SAPC   H4Y 2365   5.010   5.049   9.619  0.9561 -0.4094 -0.0643
   18SAPC   C35 2366   4.838   5.173   9.590 -0.9913 -0.4841  0.3754
   18SAPC   H5X 2367   4.902   5.259   9.560 -0.1318 -1.4856 -0.7034
   18SAPC   H5Y 2368   4.750   5.211   9.646 -0.1173  0.7596  0.9463
   18SAPC   C36 2369   4.804   5.105   9.455  0.1429 -0.5945  0.2789
   18SAPC   H6X 2370   4.709   5.050   9.473 -0.6600 -0.5991 -3.7281
   18SAPC   H6Y 2371   4.877   5.024   9.432  0.0212 -0.8984  0.9270
   18SAPC   C37 2372   4.805   5.203   9.339 -0.0625  0.5749  1.0219
   18SAPC   H7X 2373   4.883   5.282   9.341  1.3670 -0.7944  0.9460
   18SAPC   H7Y 2374   4.708   5.255   9.331 -1.0004 -1.0320  1.6665
   18SAPC   C38 2375   4.818   5.126   9.205  0.4601  0.3947 -0.8039
   18SAPC   H8X 2376   4.734   5.054   9.213 -0.1424  1.3381  1.9599
   18SAPC   H8Y 2377   4.919   5.080   9.210  1.3944  1.9767 -4.1764
   18SAPC   C39 2378   4.819   5.217   9.083  0.3297 -0.2292 -0.6961
   18SAPC   H9X 2379   4.869   5.149   9.010  0.0517  0.8152 -1.8771
   18SAPC   H9Y 2380   4.892   5.301   9.082 -1.6396  1.6652  3.3569
   18SAPC  C310 2381   4.676   5.251   9.024 -0.1192 -0.1260  0.6753
   18SAPC  H10X 2382   4.606   5.176   9.067 -0.0877 -1.5758 -1.6898
   18SAPC  H10Y 2383   4.684   5.238   8.914  0.0613  0.6241  0.6036
   18SAPC  C311 2384   4.629   5.389   9.063  0.3782  0.2698  0.1598
   18SAPC  H11X 2385   4.691   5.463   9.009 -0.2722  1.5375  1.1203
   18SAPC  H11Y 2386   4.651   5.396   9.172 -1.4954 -3.8300  0.9157
   18SAPC  C312 2387   4.477   5.411   9.027 -0.3500 -0.6813 -0.3751
   18SAPC  H12X 2388   4.414   5.352   9.096  0.3450 -1.2800 -0.2433
   18SAPC  H12Y 2389   4.457   5.384   8.921 -1.5010 -1.1454 -0.0495
   18SAPC  C313 2390   4.418   5.551   9.041 -0.5385 -0.3780 -0.1152
   18SAPC  H13X 2391   4.307   5.550   9.028 -0.6182  2.2664  0.0089
   18SAPC  H13Y 2392   4.460   5.614   8.959 -0.9351 -0.5646 -0.4704
   18SAPC  C314 2393   4.444   5.625   9.172 -0.0554 -0.3709  1.2919
   18SAPC  H14X 2394   4.388   5.720   9.176  0.4210 -0.0747  0.8604
   18SAPC  H14Y 2395   4.549   5.644   9.201  0.4228  0.6897 -1.0973
   18SAPC  C315 2396   4.387   5.550   9.292 -0.1668  0.0516 -0.7169
   18SAPC  H15X 2397   4.441   5.453   9.293  0.5025  0.4340  1.0869
   18SAPC  H15Y 2398   4.280   5.527   9.270  0.3404 -0.6548 -2.5571
   18SAPC  C316 2399   4.403   5.621   9.430  0.3591  0.0170  0.1435
   18SAPC  H16X 2400   4.383   5.730   9.425  2.0377  0.3550  0.4527
   18SAPC  H16Y 2401   4.508   5.610   9.467 -0.0277 -1.2312  0.8888
   18SAPC  C317 2402   4.307   5.567   9.531 -0.1562 -0.3116  0.0346
   18SAPC  H17X 2403   4.359   5.491   9.592  0.8138  0.8215  0.6515
   18SAPC  H17Y 2404   4.230   5.508   9.478 -1.9664 -0.0424  2.3025
   18SAPC  C318 2405   4.230   5.674   9.614 -0.0627  0.7695  0.1945
   18SAPC  H18X 2406   4.205   5.623   9.709  2.1292 -1.6884 -0.4589
   18SAPC  H18Y 2407   4.127   5.696   9.580 -0.1984 -0.7340 -0.4170
   18SAPC  H18Z 2408   4.290   5.767   9.616 -0.0757  0.7865 -0.0959
   19SAPC     N 2409   3.848   6.703  10.972  0.6307 -0.2829  0.0425
   19SAPC   C12 2410   3.883   6.836  10.917 -0.7926  0.1586 -0.1578
   19SAPC  H12A 2411   3.946   6.876  10.996 -0.3255 -1.3180  0.2294
   19SAPC  H12B 2412   3.799   6.904  10.915 -1.8951 -1.0768  2.0317
   19SAPC   C13 2413   3.773   6.622  10.867 -0.5560  0.6525  0.5789
   19SAPC  H13A 2414   3.696   6.680  10.819  1.9073  1.9336 -1.9450
   19SAPC  H13B 2415   3.849   6.600  10.793 -0.3534 -1.5661  1.4032
   19SAPC  H13C 2416   3.734   6.531  10.911 -1.7580  0.6680 -0.4079
   19SAPC   C14 2417   3.972   6.636  11.029  0.0881 -0.2904  0.0696
   19SAPC  H14A 2418   4.054   6.633  10.959  1.7293 -0.3193  1.9556
   19SAPC  H14B 2419   4.004   6.683  11.120  0.6356 -0.8745  0.1813
   19SAPC  H14C 2420   3.959   6.529  11.040  0.6459 -0.2731  0.9320
   19SAPC   C15 2421   3.751   6.727  11.084  0.7977  0.1946  0.7191
   19SAPC  H15A 2422   3.786   6.789  11.165  0.2994  0.3215  0.8427
   19SAPC  H15B 2423   3.660   6.772  11.047  1.2196  0.3388 -0.1501
   19SAPC  H15C 2424   3.719   6.633  11.128 -4.2796  0.8081 -1.3103
   19SAPC   C11 2425   3.970   6.845  10.788 -0.7299  0.3141  0.2404
   19SAPC  H11A 2426   4.062   6.783  10.796 -0.0612  1.3442  0.6938
   19SAPC  H11B 2427   4.012   6.944  10.761 -0.5224 -0.4316 -2.2537
   19SAPC     P 2428   3.795   6.869  10.595 -0.0685 -0.0641 -0.0055
   19SAPC   O13 2429   3.859   6.883  10.462 -0.3958  0.4666  0.2569
   19SAPC   O14 2430   3.668   6.796  10.591 -0.2702 -0.5117 -0.2713
   19SAPC   O12 2431   3.895   6.795  10.682  0.0153  0.1643  0.2362
   19SAPC   O11 2432   3.773   7.009  10.662 -0.0476  0.7773  0.0923
   19SAPC    C1 2433   3.642   7.069  10.674 -0.1814 -0.1675 -0.3384
   19SAPC    HA 2434   3.563   6.993  10.695 -1.8965  1.1286 -1.9645
   19SAPC    HB 2435   3.637   7.139  10.760 -0.8938 -0.3705 -0.2155
   19SAPC    C2 2436   3.602   7.153  10.551  0.0395  0.0688  0.5413
   19SAPC    HS 2437   3.509   7.208  10.577  1.7565  3.1989  0.2886
   19SAPC   O21 2438   3.582   7.064  10.441 -0.1535  0.0376 -0.5153
   19SAPC   C21 2439   3.471   6.997  10.452 -0.4691  0.0615  0.2888
   19SAPC   O22 2440   3.389   7.003  10.544  0.3146  0.3303  0.0427
   19SAPC   C22 2441   3.458   6.891  10.342 -0.6450 -0.5916  0.0953
   19SAPC   H2R 2442   3.548   6.882  10.279 -1.7746 -1.3409 -1.4316
   19SAPC   H2S 2443   3.456   6.796  10.400 -2.4303  0.1154  1.2618
   19SAPC    C3 2444   3.705   7.253  10.512  0.4292  0.0284 -0.3865
   19SAPC    HX 2445   3.801   7.201  10.489 -0.6413 -2.6186  0.8825
   19SAPC    HY 2446   3.723   7.325  10.594  0.3069  0.7731 -1.0111
   19SAPC   O31 2447   3.660   7.321  10.401 -0.6999 -0.2640 -0.0585
   19SAPC   C31 2448   3.733   7.322  10.289 -0.7134  0.0613  0.0435
   19SAPC   O32 2449   3.848   7.298  10.270  0.0020  0.1110 -0.8015
   19SAPC   C32 2450   3.647   7.356  10.172 -0.0003 -0.0496 -0.5874
   19SAPC   H2X 2451   3.565   7.420  10.210 -0.2736 -1.4840  1.3030
   19SAPC   H2Y 2452   3.590   7.263  10.151 -2.1803  0.4917  2.7162
   19SAPC   C23 2453   3.324   6.906  10.268 -0.8340 -0.0568  0.1234
   19SAPC   H3R 2454   3.248   6.894  10.347 -0.1196 -0.5873  0.7409
   19SAPC   H3S 2455   3.321   6.812  10.207  1.3897  0.3601 -0.6899
   19SAPC   C24 2456   3.307   7.022  10.166  1.0074 -0.3530 -0.5535
   19SAPC   H4R 2457   3.336   6.975  10.069 -0.7613 -0.8732 -0.8517
   19SAPC   H4S 2458   3.378   7.107  10.175 -1.2826  1.8139 -2.0389
   19SAPC   C25 2459   3.167   7.071  10.162 -0.0808  0.2144  0.0207
   19SAPC   H5R 2460   3.122   7.085  10.261  1.0230 -2.5743  0.9493
   19SAPC   C26 2461   3.090   7.094  10.056  0.2291 -0.9508  0.5443
   19SAPC   H6R 2462   2.985   7.121  10.069 -0.0955 -1.0851 -1.6442
   19SAPC   C27 2463   3.127   7.083   9.907  0.0306  0.4275  0.4021
   19SAPC   H7R 2464   3.069   6.992   9.882  0.9462  0.0834 -0.4976
   19SAPC   H7S 2465   3.232   7.050   9.892 -0.2109  0.7087 -2.1664
   19SAPC   C28 2466   3.085   7.198   9.819 -0.8789  0.0255  0.0785
   19SAPC   H8R 2467   2.982   7.235   9.831 -0.1794  0.9955  3.4630
   19SAPC   C29 2468   3.172   7.258   9.734  0.2933 -0.2567 -0.3545
   19SAPC   H9R 2469   3.143   7.333   9.659  1.3479  0.5360  0.0158
   19SAPC  C210 2470   3.312   7.207   9.712  0.2147 -0.0318 -0.4868
   19SAPC  H10R 2471   3.318   7.097   9.696  1.4931  0.1511 -1.3835
   19SAPC  H10S 2472   3.363   7.217   9.810  0.4474 -0.3821 -0.5735
   19SAPC  C211 2473   3.395   7.273   9.610 -0.7266  0.5789  0.2535
   19SAPC  H11R 2474   3.460   7.357   9.641 -1.2430  1.0888 -0.0214
   19SAPC  C212 2475   3.390   7.224   9.478 -0.1782 -0.6088 -0.0214
   19SAPC  H12R 2476   3.442   7.267   9.391 -1.1953 -1.0191 -0.8423
   19SAPC  C213 2477   3.306   7.104   9.439 -0.0681  0.4929  0.2179
   19SAPC  H13R 2478   3.200   7.135   9.454  0.1699  0.2832  2.4339
   19SAPC  H13S 2479   3.326   7.025   9.515 -0.9829 -1.0826 -1.1431
   19SAPC  C214 2480   3.335   7.041   9.308 -0.0950  0.2000 -0.0702
   19SAPC  H14R 2481   3.437   7.056   9.271  1.3362 -3.2451  2.2116
   19SAPC  C215 2482   3.250   6.966   9.233  0.3236 -0.1780  0.0248
   19SAPC  H15R 2483   3.284   6.914   9.142  1.7499  0.6471  0.0752
   19SAPC  C216 2484   3.112   6.943   9.263  0.5383  0.0517 -0.4778
   19SAPC  H16R 2485   3.050   6.984   9.180 -0.2957 -2.4055 -1.1018
   19SAPC  H16S 2486   3.071   7.003   9.347  0.1843 -0.7012 -0.1126
   19SAPC  C217 2487   3.079   6.792   9.284 -0.0266 -0.1293 -0.2038
   19SAPC  H17R 2488   2.970   6.784   9.265 -0.1744 -0.8223  0.8858
   19SAPC  H17S 2489   3.085   6.778   9.394 -2.7068  1.0832  0.1395
   19SAPC  C218 2490   3.139   6.682   9.192 -0.2854 -0.0435  0.2327
   19SAPC  H18R 2491   3.101   6.581   9.219  0.6473 -0.9502 -1.7034
   19SAPC  H18S 2492   3.247   6.671   9.215 -0.0975  0.5889 -0.3444
   19SAPC  C219 2493   3.102   6.706   9.045 -0.2150  0.4054 -0.0949
   19SAPC  H19R 2494   3.177   6.783   9.018 -1.1610  1.1421 -0.6685
   19SAPC  H19S 2495   3.005   6.760   9.047 -1.5765 -1.8331 -2.2248
   19SAPC  C220 2496   3.117   6.583   8.957 -0.0932  0.9663  0.3633
   19SAPC  H20R 2497   3.217   6.534   8.960 -1.6085 -2.3800 -0.5983
   19SAPC  H20S 2498   3.094   6.612   8.852 -2.3841 -0.6732  0.3817
   19SAPC  H20T 2499   3.043   6.505   8.985 -0.7958  0.3993 -2.8475
   19SAPC   C33 2500   3.721   7.400  10.042 -0.0154 -0.3184  0.0996
   19SAPC   H3X 2501   3.663   7.363   9.956 -0.5495 -1.8966  1.1117
   19SAPC   H3Y 2502   3.822   7.354  10.030 -0.3941 -0.5248 -2.5334
   19SAPC   C34 2503   3.738   7.545  10.050 -0.3011  0.0473  0.1277
   19SAPC   H4X 2504   3.743   7.584  10.154  0.4772 -2.1014  0.9127
   19SAPC   H4Y 2505   3.651   7.589   9.997 -0.0867 -0.2631 -0.4864
   19SAPC   C35 2506   3.873   7.577   9.985  0.0139  0.2353  0.8018
   19SAPC   H5X 2507   3.873   7.546   9.879 -0.9431  0.4391  0.7378
   19SAPC   H5Y 2508   3.945   7.522  10.049  0.8819  0.2341 -0.1826
   19SAPC   C36 2509   3.918   7.727  10.005 -0.8881  0.0272  0.6870
   19SAPC   H6X 2510   3.889   7.746  10.110 -1.4787 -1.0993  0.7317
   19SAPC   H6Y 2511   3.852   7.785   9.937  0.1702 -2.1506 -2.3318
   19SAPC   C37 2512   4.058   7.763   9.967  0.8035  0.2114  0.0925
   19SAPC   H7X 2513   4.136   7.714  10.028  2.2739  1.0710 -1.0755
   19SAPC   H7Y 2514   4.069   7.873   9.977  0.8461  0.2893 -0.8219
   19SAPC   C38 2515   4.092   7.713   9.820  0.3024  0.0682 -0.1847
   19SAPC   H8X 2516   4.076   7.603   9.813 -0.2843 -0.0088  1.9859
   19SAPC   H8Y 2517   4.199   7.728   9.793  1.5562 -1.5255  3.5510
   19SAPC   C39 2518   4.008   7.772   9.700  0.1480 -0.0363 -0.1862
   19SAPC   H9X 2519   4.020   7.883   9.706  0.4647 -0.1302  0.9126
   19SAPC   H9Y 2520   3.899   7.750   9.710 -0.4127  1.7533 -1.8907
   19SAPC  C310 2521   4.059   7.719   9.564 -0.0068  0.2102 -0.2928
   19SAPC  H10X 2522   4.057   7.608   9.575 -2.3058  0.2304 -0.2835
   19SAPC  H10Y 2523   4.169   7.732   9.554  0.2106  0.2031  1.7630
   19SAPC  C311 2524   3.982   7.790   9.448  0.2789 -0.4325  0.0076
   19SAPC  H11X 2525   3.988   7.900   9.459 -2.6485 -0.0758 -1.4885
   19SAPC  H11Y 2526   3.874   7.765   9.454  0.2670 -0.3488  0.1359
   19SAPC  C312 2527   4.029   7.751   9.311  0.1461 -0.0566  0.4201
   19SAPC  H12X 2528   3.978   7.807   9.229 -0.0714 -1.4626 -0.4262
   19SAPC  H12Y 2529   4.008   7.646   9.281  2.2733 -0.1175 -0.9831
   19SAPC  C313 2530   4.179   7.798   9.287 -0.0851  0.3863 -0.8082
   19SAPC  H13X 2531   4.255   7.742   9.344  1.6119  0.9359 -2.4630
   19SAPC  H13Y 2532   4.199   7.903   9.317 -2.5817  1.3941 -2.4179
   19SAPC  C314 2533   4.218   7.780   9.138 -0.3934 -0.1763 -0.4479
   19SAPC  H14X 2534   4.320   7.824   9.134 -0.3803 -0.2195 -0.6034
   19SAPC  H14Y 2535   4.164   7.842   9.062 -0.0494 -2.0083 -2.2400
   19SAPC  C315 2536   4.247   7.637   9.097  0.3215  0.4656  0.1881
   19SAPC  H15X 2537   4.159   7.572   9.112  0.7129  0.5226  3.0096
   19SAPC  H15Y 2538   4.323   7.596   9.167 -0.5616 -0.2420  0.7288
   19SAPC  C316 2539   4.286   7.629   8.948  0.1738 -0.7424  0.3036
   19SAPC  H16X 2540   4.318   7.527   8.917 -0.4263 -1.2738  1.4236
   19SAPC  H16Y 2541   4.369   7.698   8.925 -0.3752  0.6950  2.5203
   19SAPC  C317 2542   4.172   7.680   8.861  0.0323 -0.2106  0.0693
   19SAPC  H17X 2543   4.205   7.690   8.755  0.5755  0.7079  0.3189
   19SAPC  H17Y 2544   4.148   7.787   8.882 -1.7745 -0.4459 -0.7005
   19SAPC  C318 2545   4.049   7.600   8.863 -0.7876 -0.4474 -0.3673
   19SAPC  H18X 2546   4.002   7.599   8.762 -1.6735  0.3238  0.0343
   19SAPC  H18Y 2547   3.967   7.632   8.931 -0.1093  1.1805 -0.2953
   19SAPC  H18Z 2548   4.068   7.491   8.873 -1.6489 -0.6580 -0.9851
   20SAPC     N 2549   3.350   3.931  11.209  0.0918 -0.0705  0.1567
   20SAPC   C12 2550   3.462   3.905  11.109  0.0473 -0.4509  0.1170
   20SAPC  H12A 2551   3.431   3.817  11.055  1.9358 -0.6435 -0.7008
   20SAPC  H12B 2552   3.552   3.875  11.161  0.3601 -0.4733 -0.4370
   20SAPC   C13 2553   3.215   3.952  11.137 -0.0579 -0.5386 -0.1555
   20SAPC  H13A 2554   3.196   3.879  11.060 -0.7157  2.0653 -2.5098
   20SAPC  H13B 2555   3.135   3.942  11.209  0.0965 -0.5426  0.0175
   20SAPC  H13C 2556   3.211   4.048  11.089  1.2107 -1.2775 -1.8143
   20SAPC   C14 2557   3.355   3.831  11.305  0.1553  0.5712 -0.5545
   20SAPC  H14A 2558   3.277   3.842  11.378 -0.5413 -2.3400 -0.8162
   20SAPC  H14B 2559   3.340   3.738  11.252 -0.4050  0.6214 -0.4879
   20SAPC  H14C 2560   3.453   3.816  11.347  0.7309 -0.6771 -2.2844
   20SAPC   C15 2561   3.369   4.063  11.281  0.2066 -0.0643  0.3764
   20SAPC  H15A 2562   3.464   4.055  11.333  0.7578 -1.2916 -0.8019
   20SAPC  H15B 2563   3.376   4.145  11.210  1.8556 -0.3709  0.1667
   20SAPC  H15C 2564   3.290   4.084  11.352 -1.1507 -0.7265 -0.9404
   20SAPC   C11 2565   3.499   4.017  11.009 -0.1980 -0.3488  0.2211
   20SAPC  H11A 2566   3.595   3.979  10.969 -0.6739 -1.4280  0.0814
   20SAPC  H11B 2567   3.517   4.112  11.065  1.1373  1.0216 -2.4714
   20SAPC     P 2568   3.383   3.959  10.790  0.1573 -0.0240 -0.3377
   20SAPC   O13 2569   3.359   3.818  10.824  0.0603  0.2825 -0.2229
   20SAPC   O14 2570   3.283   4.032  10.711  0.1483 -0.1284  0.0779
   20SAPC   O12 2571   3.394   4.044  10.920  0.0095 -0.6606  0.5394
   20SAPC   O11 2572   3.524   3.965  10.713 -0.0830 -0.1805  0.0490
   20SAPC    C1 2573   3.602   4.083  10.701 -0.1771 -0.4200 -0.4152
   20SAPC    HA 2574   3.541   4.176  10.700  0.1767 -0.1540  1.2900
   20SAPC    HB 2575   3.673   4.091  10.786 -0.5828 -1.7224  0.0496
   20SAPC    C2 2576   3.695   4.071  10.581  0.5895  0.0451  0.5570
   20SAPC    HS 2577   3.760   4.161  10.576  2.4477 -1.3396 -1.0355
   20SAPC   O21 2578   3.613   4.052  10.455  0.3884  0.2327 -0.6661
   20SAPC   C21 2579   3.543   4.155  10.416 -0.1476  0.1590 -0.6502
   20SAPC   O22 2580   3.536   4.260  10.479 -0.3408 -0.4519 -0.0012
   20SAPC   C22 2581   3.469   4.116  10.290  0.0614  0.0779 -0.4219
   20SAPC   H2R 2582   3.364   4.085  10.309  0.4784 -1.0565  0.0925
   20SAPC   H2S 2583   3.467   4.207  10.227 -3.2464 -0.0202 -0.5458
   20SAPC    C3 2584   3.798   3.951  10.595  0.3169  0.1806  0.4063
   20SAPC    HX 2585   3.748   3.852  10.586  2.1556 -0.7112 -0.4394
   20SAPC    HY 2586   3.848   3.943  10.694  3.1503 -0.6265 -1.0331
   20SAPC   O31 2587   3.897   3.942  10.489  0.0220 -0.6520  0.0445
   20SAPC   C31 2588   4.008   4.010  10.513 -0.3230  0.1294 -0.4422
   20SAPC   O32 2589   4.025   4.079  10.615  0.2174 -0.3926  0.2672
   20SAPC   C32 2590   4.116   3.977  10.406 -0.0622  0.4512 -0.5831
   20SAPC   H2X 2591   4.073   3.925  10.318 -5.0872 -1.4427  2.7680
   20SAPC   H2Y 2592   4.183   3.901  10.452 -0.7443  1.2204  1.7793
   20SAPC   C23 2593   3.532   3.998  10.212  0.1966  0.2603  0.8724
   20SAPC   H3R 2594   3.463   3.981  10.126  0.0054  0.8836  0.9006
   20SAPC   H3S 2595   3.507   3.909  10.273 -1.6035  1.0620  1.3506
   20SAPC   C24 2596   3.674   4.024  10.159 -0.7875  0.2036 -0.0530
   20SAPC   H4R 2597   3.740   4.076  10.232  1.3581 -1.8736 -0.4654
   20SAPC   H4S 2598   3.667   4.087  10.068  0.8757  1.7009  0.8145
   20SAPC   C25 2599   3.750   3.899  10.127 -0.1826  1.0003 -0.3441
   20SAPC   H5R 2600   3.791   3.852  10.217  0.7359 -0.3490 -1.4435
   20SAPC   C26 2601   3.787   3.850  10.006  0.2838  0.4512 -0.0034
   20SAPC   H6R 2602   3.849   3.759  10.002 -2.4928 -1.4519 -2.0481
   20SAPC   C27 2603   3.748   3.918   9.875 -0.1119 -0.1778  0.4602
   20SAPC   H7R 2604   3.838   3.976   9.845  1.0188  0.7974  5.1708
   20SAPC   H7S 2605   3.671   3.997   9.886  2.6142  2.8796 -1.4128
   20SAPC   C28 2606   3.701   3.823   9.768  0.1010  0.4594 -1.5825
   20SAPC   H8R 2607   3.615   3.764   9.804  0.4549  0.3596 -0.8841
   20SAPC   C29 2608   3.747   3.802   9.644  0.3921  0.6043  0.0013
   20SAPC   H9R 2609   3.698   3.729   9.577  1.2106  1.2869 -1.3565
   20SAPC  C210 2610   3.863   3.870   9.587 -0.1490 -0.1065  0.1367
   20SAPC  H10R 2611   3.882   3.820   9.490  1.2855 -0.5215  0.6216
   20SAPC  H10S 2612   3.942   3.864   9.665  0.8041  0.5531 -0.7623
   20SAPC  C211 2613   3.844   4.015   9.546  0.0922  0.1724 -0.1070
   20SAPC  H11R 2614   3.790   4.073   9.622 -1.8296  0.4648 -1.6671
   20SAPC  C212 2615   3.874   4.070   9.428  0.6904  0.6091  0.4390
   20SAPC  H12R 2616   3.874   4.179   9.409  2.3988  0.6878  0.8426
   20SAPC  C213 2617   3.927   4.004   9.300  0.3822 -0.0101  0.1948
   20SAPC  H13R 2618   3.853   4.035   9.222  0.8458  4.1843  1.3059
   20SAPC  H13S 2619   3.914   3.894   9.308 -1.1164  0.0599 -0.9539
   20SAPC  C214 2620   4.066   4.051   9.262  0.9879  0.5501 -0.1929
   20SAPC  H14R 2621   4.149   4.062   9.334  2.2664 -2.1106 -1.1702
   20SAPC  C215 2622   4.119   4.065   9.139  1.2311 -0.3746 -0.3901
   20SAPC  H15R 2623   4.214   4.118   9.128  0.2042  1.5431 -0.2703
   20SAPC  C216 2624   4.042   4.030   9.014 -0.6537 -0.0266 -0.0194
   20SAPC  H16R 2625   3.963   4.099   8.980  0.4459  0.9449 -0.6550
   20SAPC  H16S 2626   3.999   3.928   9.026  0.3383 -0.2267  2.1411
   20SAPC  C217 2627   4.125   4.031   8.883 -0.2584 -0.4347  0.0014
   20SAPC  H17R 2628   4.208   3.960   8.900  0.9861  0.1308 -3.3842
   20SAPC  H17S 2629   4.157   4.135   8.861 -0.5089 -0.2782  0.3590
   20SAPC  C218 2630   4.052   3.990   8.756 -0.2440 -0.0150  0.0039
   20SAPC  H18R 2631   3.998   3.897   8.784 -2.6559  0.9982 -1.1706
   20SAPC  H18S 2632   4.119   3.961   8.672 -1.5687  0.7252 -1.3128
   20SAPC  C219 2633   3.944   4.093   8.716 -0.3598 -0.5676  0.2541
   20SAPC  H19R 2634   3.987   4.191   8.684 -0.8503  0.2181  1.9631
   20SAPC  H19S 2635   3.877   4.121   8.800  2.1487  0.5382  1.9602
   20SAPC  C220 2636   3.857   4.053   8.595 -0.0723 -0.2312  0.1795
   20SAPC  H20R 2637   3.840   3.943   8.605  0.9957 -0.3212  1.0643
   20SAPC  H20S 2638   3.923   4.062   8.505  0.0253 -0.9398  0.1790
   20SAPC  H20T 2639   3.756   4.098   8.583  0.6141  1.5250  0.9099
   20SAPC   C33 2640   4.196   4.098  10.365 -0.0859  0.5133 -0.6349
   20SAPC   H3X 2641   4.283   4.067  10.303  0.7725 -0.9610  1.2266
   20SAPC   H3Y 2642   4.237   4.143  10.458 -1.7286 -0.9658  0.8508
   20SAPC   C34 2643   4.123   4.208  10.287  0.7891  0.6394  0.4040
   20SAPC   H4X 2644   4.190   4.294  10.263 -0.3107  1.1207 -1.0812
   20SAPC   H4Y 2645   4.041   4.251  10.348 -1.2799  0.7840 -2.3364
   20SAPC   C35 2646   4.066   4.159  10.150 -0.5902  0.3866  0.4291
   20SAPC   H5X 2647   4.014   4.241  10.097  1.7395  1.7287  0.1891
   20SAPC   H5Y 2648   3.995   4.075  10.170 -0.2510  0.5219  2.3422
   20SAPC   C36 2649   4.181   4.108  10.058 -0.2223  0.7712 -0.0272
   20SAPC   H6X 2650   4.249   4.038  10.111 -0.5629  0.5954  0.1774
   20SAPC   H6Y 2651   4.242   4.201  10.051 -2.1994  2.3002  1.9595
   20SAPC   C37 2652   4.135   4.058   9.921 -0.2687 -0.0553 -0.4853
   20SAPC   H7X 2653   4.056   3.980   9.930 -2.7413  2.4794  0.4397
   20SAPC   H7Y 2654   4.217   4.003   9.869  1.1213  1.9681 -0.4627
   20SAPC   C38 2655   4.079   4.171   9.832  0.0539 -0.2930  0.6009
   20SAPC   H8X 2656   4.060   4.258   9.899  2.9578  0.3619  0.6485
   20SAPC   H8Y 2657   3.987   4.126   9.788 -0.7892 -0.7956  2.8054
   20SAPC   C39 2658   4.167   4.217   9.715 -0.0790 -0.4609 -0.4014
   20SAPC   H9X 2659   4.188   4.127   9.653  0.5299  0.4311 -1.4999
   20SAPC   H9Y 2660   4.269   4.244   9.749 -0.3294 -0.1119  0.0771
   20SAPC  C310 2661   4.102   4.335   9.639 -0.0129  0.0434 -0.6307
   20SAPC  H10X 2662   4.081   4.407   9.720  2.8014  2.0043 -1.5563
   20SAPC  H10Y 2663   4.009   4.304   9.587 -0.1669  0.7529 -0.7723
   20SAPC  C311 2664   4.186   4.396   9.527 -0.2372 -0.0476  0.3149
   20SAPC  H11X 2665   4.244   4.317   9.474 -0.3574  2.4398 -3.7363
   20SAPC  H11Y 2666   4.266   4.459   9.573 -0.8011  0.3723  0.7183
   20SAPC  C312 2667   4.110   4.471   9.417 -0.3785  0.1000 -0.0634
   20SAPC  H12X 2668   4.050   4.559   9.449  0.0446 -0.3916  2.1904
   20SAPC  H12Y 2669   4.048   4.397   9.364  0.1841 -0.2778 -0.2034
   20SAPC  C313 2670   4.205   4.531   9.316  0.3141 -0.4740  0.5886
   20SAPC  H13X 2671   4.238   4.453   9.244  1.6198  1.4946 -0.9966
   20SAPC  H13Y 2672   4.294   4.576   9.366  0.1404 -0.1749  0.6321
   20SAPC  C314 2673   4.143   4.640   9.231 -0.6148 -0.0324  0.1548
   20SAPC  H14X 2674   4.229   4.692   9.184 -0.5633  0.5988  0.9357
   20SAPC  H14Y 2675   4.090   4.721   9.287  0.2981  0.9406 -0.3581
   20SAPC  C315 2676   4.065   4.596   9.102  1.0998  0.0840 -0.3821
   20SAPC  H15X 2677   4.048   4.683   9.035 -1.8538  0.3493  0.6179
   20SAPC  H15Y 2678   3.967   4.551   9.128  1.2200  0.9314  1.6983
   20SAPC  C316 2679   4.144   4.502   9.003  0.3365 -0.7115  0.3773
   20SAPC  H16X 2680   4.142   4.398   9.040  0.9636 -1.4216 -1.5593
   20SAPC  H16Y 2681   4.251   4.527   8.987  0.3605 -1.3295 -0.4077
   20SAPC  C317 2682   4.078   4.498   8.866 -0.2492 -0.0510 -0.2067
   20SAPC  H17X 2683   3.970   4.475   8.874 -0.4912  1.0162 -0.3896
   20SAPC  H17Y 2684   4.122   4.410   8.815  2.5726  0.0794  1.8517
   20SAPC  C318 2685   4.097   4.617   8.775  0.1458  0.2235 -0.0489
   20SAPC  H18X 2686   4.038   4.617   8.680  1.8859  1.4045 -1.1459
   20SAPC  H18Y 2687   4.205   4.622   8.752  0.0159  0.5881 -0.5923
   20SAPC  H18Z 2688   4.067   4.707   8.833 -1.1799  1.0080 -1.8923
   21SAPC     N 2689   3.673   3.069  10.677 -0.3726 -0.4361 -0.5555
   21SAPC   C12 2690   3.553   3.140  10.599 -0.0963 -0.3980 -0.6350
   21SAPC  H12A 2691   3.539   3.097  10.500 -1.6329  0.6981 -0.9103
   21SAPC  H12B 2692   3.571   3.245  10.586  0.0630 -0.0961  1.8829
   21SAPC   C13 2693   3.783   3.053  10.583 -0.3734  0.1511 -0.1877
   21SAPC  H13A 2694   3.805   3.148  10.536  0.8833 -0.5349 -0.9954
   21SAPC  H13B 2695   3.865   3.009  10.638 -1.8700 -1.1761  1.0641
   21SAPC  H13C 2696   3.767   2.989  10.497  1.0719 -0.8089  0.2424
   21SAPC   C14 2697   3.712   3.156  10.795 -0.1340  0.3115 -0.2279
   21SAPC  H14A 2698   3.730   3.260  10.769 -0.9364  0.8110  1.1588
   21SAPC  H14B 2699   3.628   3.161  10.863  0.5781  0.8344  0.6269
   21SAPC  H14C 2700   3.799   3.119  10.847 -0.1684  0.4049 -0.1040
   21SAPC   C15 2701   3.647   2.927  10.728 -0.3774 -0.0276 -0.0153
   21SAPC  H15A 2702   3.593   2.879  10.648 -1.7551 -0.4720  1.1604
   21SAPC  H15B 2703   3.741   2.882  10.755 -0.2363 -0.3141 -1.0002
   21SAPC  H15C 2704   3.590   2.937  10.820  0.8066  2.2370  0.5300
   21SAPC   C11 2705   3.420   3.118  10.659  0.5407 -0.1525  0.1464
   21SAPC  H11A 2706   3.416   3.013  10.695  1.6886 -0.4178 -0.5022
   21SAPC  H11B 2707   3.341   3.139  10.584 -0.5590 -1.7514  0.8334
   21SAPC     P 2708   3.371   3.350  10.781  0.0382  0.0515  0.2382
   21SAPC   O13 2709   3.230   3.358  10.817  0.2519  0.1235 -0.0632
   21SAPC   O14 2710   3.471   3.415  10.869 -0.4520 -0.2549  0.3572
   21SAPC   O12 2711   3.403   3.203  10.773 -0.6368 -0.4755 -1.1923
   21SAPC   O11 2712   3.381   3.412  10.639  0.6848  1.0048  0.5562
   21SAPC    C1 2713   3.379   3.546  10.614 -0.1843 -0.0204 -0.1907
   21SAPC    HA 2714   3.300   3.580  10.545 -1.2961 -0.7109  0.7286
   21SAPC    HB 2715   3.373   3.604  10.709  2.8464 -1.4873  0.9895
   21SAPC    C2 2716   3.508   3.594  10.547 -0.1909  0.3135 -0.1013
   21SAPC    HS 2717   3.522   3.703  10.566  2.3395 -0.1328  0.9332
   21SAPC   O21 2718   3.515   3.557  10.413 -0.3992  0.2386 -0.1850
   21SAPC   C21 2719   3.441   3.635  10.332  0.2163  0.3080 -0.2332
   21SAPC   O22 2720   3.364   3.724  10.368  0.1578 -0.0654 -0.6053
   21SAPC   C22 2721   3.471   3.594  10.183  0.1668  0.2469 -0.6809
   21SAPC   H2R 2722   3.374   3.562  10.140  0.0316 -3.2819  2.0810
   21SAPC   H2S 2723   3.501   3.680  10.119 -0.3516  0.0978 -1.1188
   21SAPC    C3 2724   3.630   3.539  10.628  0.5199  0.2208  1.0650
   21SAPC    HX 2725   3.614   3.430  10.636 -1.3929  0.2767 -1.3496
   21SAPC    HY 2726   3.632   3.587  10.728 -0.5507  0.9584  0.7445
   21SAPC   O31 2727   3.745   3.589  10.558 -0.1526  0.5830 -0.2565
   21SAPC   C31 2728   3.812   3.499  10.481 -0.3242 -0.3779  0.8625
   21SAPC   O32 2729   3.798   3.374  10.490 -0.0427 -0.4520 -0.0961
   21SAPC   C32 2730   3.909   3.579  10.388  0.6188  0.4626  0.2318
   21SAPC   H2X 2731   3.947   3.655  10.460 -1.3186  1.0868  0.6050
   21SAPC   H2Y 2732   3.852   3.637  10.312  2.0362  0.8548 -0.5553
   21SAPC   C23 2733   3.572   3.474  10.170 -0.4168  0.8985 -0.0327
   21SAPC   H3R 2734   3.533   3.401  10.243 -1.7381  0.7561 -0.8680
   21SAPC   H3S 2735   3.672   3.507  10.207  0.4903 -0.2468 -1.4043
   21SAPC   C24 2736   3.576   3.401  10.038  0.3778 -0.0605 -0.2345
   21SAPC   H4R 2737   3.656   3.323  10.037 -0.8267 -1.3105 -0.6047
   21SAPC   H4S 2738   3.603   3.457   9.946 -0.5052 -4.2276 -3.2106
   21SAPC   C25 2739   3.443   3.335  10.009  0.0601 -0.3179 -0.1267
   21SAPC   H5R 2740   3.397   3.297  10.102 -0.8315 -0.5656 -0.6607
   21SAPC   C26 2741   3.375   3.338   9.895 -0.0830 -0.3442  0.5566
   21SAPC   H6R 2742   3.272   3.299   9.898  0.8896 -3.0703  0.5750
   21SAPC   C27 2743   3.414   3.402   9.751  0.2293  0.1261 -0.6130
   21SAPC   H7R 2744   3.495   3.476   9.773 -2.4155  2.3340  2.1105
   21SAPC   H7S 2745   3.327   3.465   9.723 -1.4023 -1.3409  1.0383
   21SAPC   C28 2746   3.451   3.299   9.655 -0.4104  1.0406  0.8890
   21SAPC   H8R 2747   3.519   3.223   9.698 -3.0081 -1.3337  0.9720
   21SAPC   C29 2748   3.422   3.290   9.522 -0.3047  0.1362 -0.6030
   21SAPC   H9R 2749   3.453   3.205   9.460  0.3899  1.4855 -2.1508
   21SAPC  C210 2750   3.334   3.395   9.441  0.4716 -0.2335 -0.1412
   21SAPC  H10R 2751   3.327   3.488   9.503 -3.8147  0.0542 -0.9181
   21SAPC  H10S 2752   3.230   3.359   9.435  0.2580 -0.2333  2.7018
   21SAPC  C211 2753   3.385   3.429   9.308  0.2406 -0.1941 -1.2701
   21SAPC  H11R 2754   3.468   3.500   9.324  0.3011 -0.7630  1.1835
   21SAPC  C212 2755   3.355   3.387   9.184 -0.0535 -0.1288  0.8331
   21SAPC  H12R 2756   3.402   3.431   9.094 -1.8746  1.1675  0.4862
   21SAPC  C213 2757   3.251   3.275   9.168 -0.6187 -0.4279  0.3191
   21SAPC  H13R 2758   3.148   3.313   9.155 -0.3452  0.0771 -0.4556
   21SAPC  H13S 2759   3.228   3.215   9.259  0.6842 -1.4463  0.0018
   21SAPC  C214 2760   3.307   3.178   9.068  0.7506 -0.1747 -0.1130
   21SAPC  H14R 2761   3.386   3.107   9.096  1.1677  0.4371  0.2808
   21SAPC  C215 2762   3.271   3.177   8.938  0.3001 -0.4864  0.4569
   21SAPC  H15R 2763   3.328   3.113   8.870  0.9531  0.4469  0.1220
   21SAPC  C216 2764   3.171   3.257   8.851  0.2093  0.4375  0.0232
   21SAPC  H16R 2765   3.148   3.335   8.927  1.3288 -0.6396  1.5176
   21SAPC  H16S 2766   3.076   3.200   8.841  0.0123  0.8892 -0.7274
   21SAPC  C217 2767   3.189   3.328   8.718  0.1918 -0.4325  0.0299
   21SAPC  H17R 2768   3.172   3.253   8.638 -0.3055 -0.7390  0.4198
   21SAPC  H17S 2769   3.291   3.370   8.709 -0.1576  0.0109 -1.9293
   21SAPC  C218 2770   3.096   3.445   8.696 -0.0808 -0.3691 -0.1584
   21SAPC  H18R 2771   3.132   3.495   8.603 -0.9118  2.4223  0.9640
   21SAPC  H18S 2772   3.130   3.523   8.768 -1.9855 -1.6001  2.1384
   21SAPC  C219 2773   2.951   3.416   8.706  0.0787  0.2589 -0.5463
   21SAPC  H19R 2774   2.897   3.512   8.703  1.5435  1.0625 -1.3804
   21SAPC  H19S 2775   2.915   3.382   8.806 -0.4222 -0.4876 -0.9736
   21SAPC  C220 2776   2.896   3.309   8.615 -0.5582  0.3953  0.2436
   21SAPC  H20R 2777   2.928   3.212   8.657 -0.6318  0.5281  0.6036
   21SAPC  H20S 2778   2.938   3.312   8.512 -3.9870 -0.5451 -1.2419
   21SAPC  H20T 2779   2.785   3.313   8.618 -0.5351 -0.4758  2.6400
   21SAPC   C33 2780   4.042   3.509  10.333  0.3836  0.6951 -0.1967
   21SAPC   H3X 2781   4.102   3.446  10.402 -1.5842  0.4814  1.3648
   21SAPC   H3Y 2782   4.105   3.597  10.308  2.7507 -0.6640  0.8128
   21SAPC   C34 2783   4.007   3.421  10.211 -0.0452 -0.0479 -0.4534
   21SAPC   H4X 2784   3.924   3.357  10.247  1.5920 -1.4140  0.9778
   21SAPC   H4Y 2785   4.095   3.355  10.193 -1.0699 -2.2432  2.2254
   21SAPC   C35 2786   3.980   3.507  10.089  0.2432 -0.2907  0.6187
   21SAPC   H5X 2787   4.058   3.587  10.088  0.2630 -0.2699 -4.1969
   21SAPC   H5Y 2788   3.884   3.561  10.101  0.0312 -0.3579 -0.7705
   21SAPC   C36 2789   3.979   3.425   9.961  0.7273  0.5918 -0.4583
   21SAPC   H6X 2790   3.927   3.330   9.984  0.4641  0.6986 -0.6109
   21SAPC   H6Y 2791   4.086   3.398   9.948  0.4350 -1.3146  0.8374
   21SAPC   C37 2792   3.918   3.496   9.838  0.8531 -0.7882  0.2368
   21SAPC   H7X 2793   3.988   3.576   9.807  0.4159 -0.2709  0.5715
   21SAPC   H7Y 2794   3.816   3.535   9.861  0.7745 -1.0368  0.3147
   21SAPC   C38 2795   3.921   3.403   9.721  0.1540  0.2691  0.0290
   21SAPC   H8X 2796   3.858   3.316   9.749 -1.7047  1.6723  0.2574
   21SAPC   H8Y 2797   4.024   3.364   9.702 -0.6296 -1.4117 -0.9430
   21SAPC   C39 2798   3.866   3.468   9.599  0.3216 -0.1160 -0.7199
   21SAPC   H9X 2799   3.924   3.561   9.581 -1.6120  0.5553 -3.8017
   21SAPC   H9Y 2800   3.764   3.509   9.616  0.7388  1.8439 -2.6870
   21SAPC  C310 2801   3.862   3.390   9.463 -0.2051 -0.5086 -0.3432
   21SAPC  H10X 2802   3.791   3.306   9.481 -0.4526  0.2323  2.3202
   21SAPC  H10Y 2803   3.966   3.363   9.436  0.5752  0.6790  1.3622
   21SAPC  C311 2804   3.804   3.485   9.353  0.3881  0.0613 -0.3311
   21SAPC  H11X 2805   3.853   3.585   9.360  0.0606  0.3711 -2.1331
   21SAPC  H11Y 2806   3.698   3.511   9.376  0.0686 -3.3709  2.6050
   21SAPC  C312 2807   3.808   3.426   9.212 -0.1516  0.8993  0.2035
   21SAPC  H12X 2808   3.720   3.360   9.194  0.1745  0.8942 -1.4729
   21SAPC  H12Y 2809   3.908   3.378   9.209 -0.3913  0.3067  1.3758
   21SAPC  C313 2810   3.803   3.526   9.101  0.5549 -0.7909  0.3761
   21SAPC  H13X 2811   3.873   3.611   9.115  1.2417 -1.4119  0.7235
   21SAPC  H13Y 2812   3.705   3.571   9.072  1.5319  0.6648 -0.7374
   21SAPC  C314 2813   3.843   3.460   8.962 -0.4765 -0.0714 -0.2189
   21SAPC  H14X 2814   3.942   3.409   8.968  0.0266  0.9260  0.0715
   21SAPC  H14Y 2815   3.855   3.547   8.894 -3.1658 -0.4328 -1.2244
   21SAPC  C315 2816   3.732   3.368   8.911 -1.4598  0.4292 -0.2316
   21SAPC  H15X 2817   3.635   3.415   8.883 -4.4406 -4.4586  1.0700
   21SAPC  H15Y 2818   3.718   3.303   9.001  1.2403  1.9703  1.3715
   21SAPC  C316 2819   3.781   3.278   8.788 -0.0837  0.1385 -0.4308
   21SAPC  H16X 2820   3.882   3.235   8.804  0.0912  0.3670 -0.9241
   21SAPC  H16Y 2821   3.785   3.359   8.712 -1.5321  0.2155 -0.4381
   21SAPC  C317 2822   3.672   3.180   8.748 -0.2081  0.5044  0.8583
   21SAPC  H17X 2823   3.572   3.227   8.740 -0.6029 -0.6133 -0.9273
   21SAPC  H17Y 2824   3.657   3.113   8.835  1.1017  1.4162  1.8065
   21SAPC  C318 2825   3.702   3.100   8.622 -0.6105  0.5191 -0.2057
   21SAPC  H18X 2826   3.703   3.160   8.528 -1.1335  2.5417  1.0388
   21SAPC  H18Y 2827   3.624   3.022   8.608 -1.1839  1.2729 -1.3172
   21SAPC  H18Z 2828   3.805   3.062   8.638 -0.9772  0.2341  1.5223
   22SAPC     N 2829   2.543   0.065  10.882 -0.0933 -0.0735  1.3269
   22SAPC   C12 2830   2.668   0.115  10.806  0.0667 -0.6712  0.2942
   22SAPC  H12A 2831   2.632   0.174  10.723  2.8756 -0.3911 -0.7676
   22SAPC  H12B 2832   2.718   0.030  10.762 -0.4652  0.6160 -2.9682
   22SAPC   C13 2833   2.583  -0.008  11.004  0.7921  0.2860  0.2802
   22SAPC  H13A 2834   2.504  -0.025  11.076  1.2681  1.5026  1.1058
   22SAPC  H13B 2835   2.618  -0.107  10.977 -1.8751 -0.4083 -0.8224
   22SAPC  H13C 2836   2.658   0.042  11.063  2.0018 -0.4732 -0.5868
   22SAPC   C14 2837   2.461   0.184  10.934  0.4023 -0.0349  0.2247
   22SAPC  H14A 2838   2.528   0.250  10.988  2.0080 -1.0402 -0.5056
   22SAPC  H14B 2839   2.436   0.242  10.847 -1.1147 -0.1272  0.5913
   22SAPC  H14C 2840   2.374   0.153  10.991  0.9148 -0.2432  0.9011
   22SAPC   C15 2841   2.454  -0.011  10.795  0.3035 -0.2831  0.2239
   22SAPC  H15A 2842   2.398   0.048  10.724  0.7601  0.9178  0.8397
   22SAPC  H15B 2843   2.492  -0.097  10.742  2.2990  1.8836 -2.0291
   22SAPC  H15C 2844   2.376  -0.057  10.854 -0.4881  1.0289  0.2205
   22SAPC   C11 2845   2.769   0.200  10.885  0.1889  0.8067  0.1119
   22SAPC  H11A 2846   2.862   0.216  10.827  1.2220  1.3410  1.8562
   22SAPC  H11B 2847   2.805   0.144  10.974  0.0995 -1.2967 -1.1556
   22SAPC     P 2848   2.737   0.463  10.849 -0.0255 -0.0219 -0.1734
   22SAPC   O13 2849   2.666   0.579  10.919 -0.0664  0.1841  0.0689
   22SAPC   O14 2850   2.885   0.466  10.839 -0.8766 -1.0876  0.5082
   22SAPC   O12 2851   2.702   0.326  10.917 -0.5866  0.3927 -0.0236
   22SAPC   O11 2852   2.671   0.455  10.705  0.2497 -0.1050  0.1820
   22SAPC    C1 2853   2.731   0.532  10.603 -0.3891 -1.3285  0.4136
   22SAPC    HA 2854   2.833   0.572  10.622 -0.1372 -1.0022 -1.4767
   22SAPC    HB 2855   2.738   0.474  10.508 -0.3175 -2.1356  0.9098
   22SAPC    C2 2856   2.640   0.658  10.577 -0.0140  0.4346  0.1989
   22SAPC    HS 2857   2.611   0.692  10.679 -2.3743 -0.4317 -0.1346
   22SAPC   O21 2858   2.513   0.610  10.516 -0.0422  0.1260  0.5094
   22SAPC   C21 2859   2.414   0.700  10.513  0.3598 -0.2641  0.6741
   22SAPC   O22 2860   2.415   0.808  10.559 -0.4897 -0.0973 -0.1929
   22SAPC   C22 2861   2.311   0.644  10.415  0.7112 -0.1527  0.2534
   22SAPC   H2R 2862   2.248   0.731  10.387  0.5581 -0.4166 -0.2237
   22SAPC   H2S 2863   2.347   0.613  10.315  1.9902  1.6899  0.1391
   22SAPC    C3 2864   2.715   0.754  10.490  0.1488 -0.0230  0.0719
   22SAPC    HX 2865   2.810   0.775  10.543  0.5591  1.9007 -1.4063
   22SAPC    HY 2866   2.657   0.847  10.471 -1.4086 -0.9207  0.3148
   22SAPC   O31 2867   2.757   0.681  10.364  0.1706  0.6904 -0.0222
   22SAPC   C31 2868   2.689   0.699  10.255 -0.4588 -0.0947  0.2549
   22SAPC   O32 2869   2.592   0.772  10.253 -0.6593 -0.0384  0.6840
   22SAPC   C32 2870   2.752   0.625  10.140 -0.1202  0.2393 -0.2290
   22SAPC   H2X 2871   2.731   0.518  10.165 -0.3493  0.5417  0.9045
   22SAPC   H2Y 2872   2.863   0.635  10.141 -0.1727  0.8104  0.6699
   22SAPC   C23 2873   2.227   0.536  10.479  0.7756 -0.3814  0.3253
   22SAPC   H3R 2874   2.164   0.577  10.561 -0.7786 -0.8853 -0.5994
   22SAPC   H3S 2875   2.294   0.465  10.531  0.1088  0.2848  2.1437
   22SAPC   C24 2876   2.154   0.447  10.375  0.2434  0.3978 -0.1489
   22SAPC   H4R 2877   2.111   0.363  10.433  2.0551 -0.0154  0.6313
   22SAPC   H4S 2878   2.234   0.406  10.310 -0.0370  1.6321 -1.3116
   22SAPC   C25 2879   2.046   0.518  10.288 -0.6933  0.3688  0.1170
   22SAPC   H5R 2880   1.950   0.546  10.332 -1.3620 -0.2123 -0.9460
   22SAPC   C26 2881   2.067   0.558  10.162 -0.0469 -0.0452 -0.3447
   22SAPC   H6R 2882   1.981   0.602  10.109  0.2000  0.1924 -0.5539
   22SAPC   C27 2883   2.194   0.559  10.071  0.3137  0.0266  0.6081
   22SAPC   H7R 2884   2.157   0.501   9.984 -0.9344 -1.4283  2.0985
   22SAPC   H7S 2885   2.275   0.505  10.124 -0.2647 -1.6384 -0.1793
   22SAPC   C28 2886   2.227   0.706  10.042  0.1555 -0.5075  0.3132
   22SAPC   H8R 2887   2.247   0.776  10.125 -0.9501  0.7741 -0.4798
   22SAPC   C29 2888   2.241   0.759   9.918 -0.6005 -0.6984  0.9387
   22SAPC   H9R 2889   2.281   0.861   9.925  0.7326 -1.0967 -0.6002
   22SAPC  C210 2890   2.235   0.692   9.781  0.1998 -0.0117 -0.1779
   22SAPC  H10R 2891   2.191   0.771   9.716 -0.6577  1.1330  1.7391
   22SAPC  H10S 2892   2.169   0.603   9.789  1.0017 -0.4334  2.0414
   22SAPC  C211 2893   2.361   0.636   9.732  0.4082  0.4176 -0.6439
   22SAPC  H11R 2894   2.413   0.589   9.816 -1.7211 -0.9468 -0.0527
   22SAPC  C212 2895   2.415   0.644   9.609  0.2142 -0.7038 -0.4270
   22SAPC  H12R 2896   2.496   0.572   9.587 -0.4486 -1.8625  0.8712
   22SAPC  C213 2897   2.357   0.712   9.489  0.3716 -0.4901  0.6461
   22SAPC  H13R 2898   2.249   0.723   9.512  0.8977 -0.1897  3.0807
   22SAPC  H13S 2899   2.357   0.647   9.398  1.0058  0.2735  0.0843
   22SAPC  C214 2900   2.419   0.843   9.441  0.8942  0.6194  0.2112
   22SAPC  H14R 2901   2.363   0.926   9.487 -1.0835 -0.6414  0.1305
   22SAPC  C215 2902   2.530   0.858   9.365  0.2351 -0.0190 -0.0462
   22SAPC  H15R 2903   2.550   0.958   9.324  1.0550 -0.4419 -0.6968
   22SAPC  C216 2904   2.619   0.749   9.309 -1.0411 -0.5738  0.4394
   22SAPC  H16R 2905   2.603   0.654   9.364 -0.8569  0.5314  2.4477
   22SAPC  H16S 2906   2.723   0.787   9.320 -1.7357  1.2705  0.9040
   22SAPC  C217 2907   2.575   0.738   9.163 -0.2960  0.9240  0.5219
   22SAPC  H17R 2908   2.594   0.830   9.103  0.7458  0.9316  0.8435
   22SAPC  H17S 2909   2.468   0.711   9.150 -0.4923  0.7338  2.3927
   22SAPC  C218 2910   2.664   0.632   9.095  0.5006 -0.0863  0.1701
   22SAPC  H18R 2911   2.630   0.530   9.123 -1.4090  0.3009 -0.6449
   22SAPC  H18S 2912   2.768   0.643   9.133  0.1178  1.5434  0.7800
   22SAPC  C219 2913   2.657   0.650   8.936 -0.2856 -0.6207  0.7783
   22SAPC  H19R 2914   2.734   0.579   8.900 -0.8479  0.4555 -2.7599
   22SAPC  H19S 2915   2.691   0.751   8.905  2.4105 -1.5047  0.7853
   22SAPC  C220 2916   2.518   0.612   8.871 -0.2701 -0.4537 -0.1897
   22SAPC  H20R 2917   2.475   0.520   8.918  0.7831 -1.0890 -0.4472
   22SAPC  H20S 2918   2.517   0.611   8.760  1.3419 -1.6657 -0.2135
   22SAPC  H20T 2919   2.456   0.696   8.907  2.1538  1.4547 -0.3740
   22SAPC   C33 2920   2.692   0.667  10.015  0.0540  0.0265 -1.1256
   22SAPC   H3X 2921   2.582   0.656  10.025  0.2521  0.4690  1.8327
   22SAPC   H3Y 2922   2.719   0.597   9.932 -2.2213 -3.2986  0.8142
   22SAPC   C34 2923   2.733   0.812   9.976  0.1336  0.2432 -0.5601
   22SAPC   H4X 2924   2.835   0.843  10.007 -0.3154  1.4530 -0.2294
   22SAPC   H4Y 2925   2.670   0.882  10.037  1.9273  2.4797 -1.2221
   22SAPC   C35 2926   2.706   0.874   9.836  0.1218  1.0765 -0.4553
   22SAPC   H5X 2927   2.768   0.966   9.824  3.3214 -1.0217 -0.5016
   22SAPC   H5Y 2928   2.596   0.889   9.832 -0.0212  0.1639  0.0410
   22SAPC   C36 2929   2.765   0.792   9.713  0.9071  0.2318  0.0309
   22SAPC   H6X 2930   2.729   0.819   9.612  0.7258 -0.2448 -0.0313
   22SAPC   H6Y 2931   2.730   0.687   9.720  1.0379 -0.0201 -2.6784
   22SAPC   C37 2932   2.920   0.783   9.713  0.4140 -0.0435  0.5713
   22SAPC   H7X 2933   2.955   0.682   9.682  1.4273 -0.1910  2.1221
   22SAPC   H7Y 2934   2.955   0.792   9.818 -0.8749  0.9346  0.9309
   22SAPC   C38 2935   2.974   0.899   9.618 -0.7782  0.3390 -0.3150
   22SAPC   H8X 2936   3.083   0.911   9.636 -0.6599 -4.0145  2.3422
   22SAPC   H8Y 2937   2.931   1.001   9.635  0.1908  0.8270 -0.7539
   22SAPC   C39 2938   2.975   0.865   9.476  0.1830 -0.2058 -0.2286
   22SAPC   H9X 2939   2.870   0.841   9.447  0.4965  0.4366 -1.9555
   22SAPC   H9Y 2940   3.036   0.773   9.470 -1.4533 -1.4322  1.4536
   22SAPC  C310 2941   3.021   0.975   9.379  0.3606  0.2026 -0.0366
   22SAPC  H10X 2942   3.127   1.000   9.398  1.0832  0.0922 -3.5164
   22SAPC  H10Y 2943   2.958   1.066   9.386 -1.7034 -1.2833  1.2217
   22SAPC  C311 2944   3.024   0.936   9.231 -0.5578  0.0863  1.0760
   22SAPC  H11X 2945   2.921   0.901   9.205  0.5581 -1.3617 -1.6826
   22SAPC  H11Y 2946   3.078   0.839   9.216  0.1045  0.4985  0.7555
   22SAPC  C312 2947   3.086   1.042   9.138  0.2452  1.2806  0.6887
   22SAPC  H12X 2948   3.181   1.060   9.192  0.9123 -1.4164  0.4540
   22SAPC  H12Y 2949   3.022   1.133   9.132 -0.9725  0.4031  0.1019
   22SAPC  C313 2950   3.129   0.991   8.998 -0.6253  0.2427  0.2376
   22SAPC  H13X 2951   3.148   0.882   8.995 -1.9436  0.0613 -1.9574
   22SAPC  H13Y 2952   3.224   1.043   8.972 -0.4099 -0.7674 -1.0082
   22SAPC  C314 2953   3.026   1.018   8.892 -0.0148  0.7128  0.0613
   22SAPC  H14X 2954   3.014   1.125   8.864  0.8563  0.6362 -0.6061
   22SAPC  H14Y 2955   2.929   0.984   8.934 -0.5122  3.4236  1.2361
   22SAPC  C315 2956   3.051   0.931   8.766  0.1435  0.3556  0.0373
   22SAPC  H15X 2957   2.969   0.946   8.692 -1.3782 -0.0070  1.6384
   22SAPC  H15Y 2958   3.068   0.826   8.799 -1.1349 -0.2150 -1.0481
   22SAPC  C316 2959   3.175   0.981   8.693  0.7899  0.0788 -0.5460
   22SAPC  H16X 2960   3.188   0.925   8.598 -0.2622 -1.0437 -0.0486
   22SAPC  H16Y 2961   3.264   0.963   8.758 -1.2823 -2.8298  1.6613
   22SAPC  C317 2962   3.187   1.125   8.642 -0.7940 -0.1245  0.0311
   22SAPC  H17X 2963   3.297   1.130   8.623 -1.0467 -0.0323 -1.5024
   22SAPC  H17Y 2964   3.161   1.194   8.725 -0.0772  0.4572 -0.2203
   22SAPC  C318 2965   3.111   1.158   8.513  0.5877  0.0484  0.2323
   22SAPC  H18X 2966   3.140   1.098   8.424  0.8960 -1.0713  1.0691
   22SAPC  H18Y 2967   3.133   1.263   8.488 -0.2773  0.3266  0.6264
   22SAPC  H18Z 2968   3.001   1.155   8.530  0.3574 -1.9267 -1.4218
   23SAPC     N 2969   3.911   2.154  10.898 -0.8015 -0.0933  1.1998
   23SAPC   C12 2970   3.900   2.150  10.740 -0.0166 -0.1653 -0.0321
   23SAPC  H12A 2971   3.798   2.122  10.719 -0.4192  0.3201  1.2292
   23SAPC  H12B 2972   3.961   2.066  10.708  0.0981 -1.0185  2.3216
   23SAPC   C13 2973   3.849   2.274  10.959 -0.4776  0.9521 -0.0397
   23SAPC  H13A 2974   3.866   2.273  11.066  1.4452 -0.4687 -0.3379
   23SAPC  H13B 2975   3.899   2.362  10.922 -2.0230  1.5070 -0.8502
   23SAPC  H13C 2976   3.743   2.286  10.941 -0.9426 -2.2482  0.3329
   23SAPC   C14 2977   3.846   2.039  10.957 -0.6862  0.2078  0.2904
   23SAPC  H14A 2978   3.739   2.038  10.942 -0.4286 -0.5180 -1.7911
   23SAPC  H14B 2979   3.879   1.938  10.935  2.6824  1.5538 -1.3103
   23SAPC  H14C 2980   3.854   2.044  11.064 -0.2577  2.1502  0.1807
   23SAPC   C15 2981   4.061   2.148  10.929 -0.7905  0.1204 -0.1010
   23SAPC  H15A 2982   4.107   2.050  10.930 -0.5103  0.2202 -2.0320
   23SAPC  H15B 2983   4.111   2.206  10.853  2.0139 -0.8166  0.9761
   23SAPC  H15C 2984   4.071   2.190  11.028  0.1083 -0.9906  0.2895
   23SAPC   C11 2985   3.949   2.270  10.652  0.1802  0.2541 -1.0503
   23SAPC  H11A 2986   3.877   2.354  10.662  0.1634  0.1775 -0.5336
   23SAPC  H11B 2987   3.953   2.223  10.552 -0.6511  0.7155 -1.3028
   23SAPC     P 2988   4.115   2.459  10.713 -0.1218 -0.5468 -0.3860
   23SAPC   O13 2989   4.025   2.496  10.828  1.2279  0.2046  0.4586
   23SAPC   O14 2990   4.257   2.483  10.725  0.5456  0.0530 -0.4191
   23SAPC   O12 2991   4.092   2.308  10.685  0.4695  0.5398 -0.0452
   23SAPC   O11 2992   4.056   2.527  10.585 -0.1378 -0.1116 -0.0416
   23SAPC    C1 2993   4.066   2.481  10.452  0.7165  0.5283  0.7997
   23SAPC    HA 2994   4.110   2.379  10.458  1.4801  0.7962 -0.1309
   23SAPC    HB 2995   3.975   2.453  10.394  1.2937 -0.6793  0.4559
   23SAPC    C2 2996   4.156   2.574  10.367  0.1091  0.3852  0.8560
   23SAPC    HS 2997   4.104   2.665  10.331  0.1429 -0.3310 -1.0493
   23SAPC   O21 2998   4.215   2.508  10.257  0.3055  0.5420  0.1118
   23SAPC   C21 2999   4.135   2.488  10.151 -0.0927 -0.4965 -0.6095
   23SAPC   O22 3000   4.030   2.544  10.130 -0.0571 -0.2270 -0.3461
   23SAPC   C22 3001   4.213   2.404  10.043 -0.5109  0.2874 -0.4417
   23SAPC   H2R 3002   4.286   2.337  10.093 -0.5293  0.3152 -0.3765
   23SAPC   H2S 3003   4.132   2.340  10.002 -0.8864 -0.8455  1.9742
   23SAPC    C3 3004   4.272   2.635  10.454 -0.6520 -0.4369  0.1426
   23SAPC    HX 3005   4.330   2.554  10.503  1.7414  0.8013 -0.5407
   23SAPC    HY 3006   4.234   2.701  10.534  4.0524  2.3493  0.2584
   23SAPC   O31 3007   4.364   2.716  10.364  0.4972  0.2444 -0.0665
   23SAPC   C31 3008   4.497   2.728  10.412  0.0385  0.1293  0.6127
   23SAPC   O32 3009   4.537   2.714  10.523 -0.3452  0.2777  0.7254
   23SAPC   C32 3010   4.578   2.768  10.279 -0.3021 -0.2779  0.5402
   23SAPC   H2X 3011   4.534   2.858  10.230 -0.3333 -0.7795 -0.3778
   23SAPC   H2Y 3012   4.577   2.673  10.220  2.3185 -0.2400  0.3784
   23SAPC   C23 3013   4.293   2.490   9.945  0.1258 -0.5681 -0.4646
   23SAPC   H3R 3014   4.364   2.420   9.897  0.8624 -1.2270  1.5168
   23SAPC   H3S 3015   4.363   2.561   9.994  1.0077 -0.7659 -1.4275
   23SAPC   C24 3016   4.204   2.557   9.831  0.3582 -0.0187 -0.5274
   23SAPC   H4R 3017   4.263   2.635   9.779  1.2865  0.5258  1.2879
   23SAPC   H4S 3018   4.111   2.606   9.867  1.6574  2.4703 -0.4706
   23SAPC   C25 3019   4.151   2.468   9.714 -0.0954 -0.0448 -0.2903
   23SAPC   H5R 3020   4.060   2.413   9.742 -0.7898  1.0750 -0.3160
   23SAPC   C26 3021   4.208   2.457   9.587 -0.6683  0.0399  0.3728
   23SAPC   H6R 3022   4.178   2.366   9.533 -0.2266 -0.3107  0.7136
   23SAPC   C27 3023   4.343   2.515   9.541 -0.3174  0.7853 -0.1884
   23SAPC   H7R 3024   4.399   2.563   9.625  2.1574  2.6976 -2.8411
   23SAPC   H7S 3025   4.332   2.592   9.462 -1.4738 -0.9167 -1.7178
   23SAPC   C28 3026   4.449   2.417   9.487 -0.0289 -0.0884  0.3583
   23SAPC   H8R 3027   4.521   2.365   9.551  1.9082  0.6060 -1.2074
   23SAPC   C29 3028   4.468   2.392   9.359 -0.4481 -0.0015  0.8437
   23SAPC   H9R 3029   4.559   2.334   9.337 -2.0066 -2.5541  0.9325
   23SAPC  C210 3030   4.384   2.450   9.244  0.5130  0.8236 -0.5709
   23SAPC  H10R 3031   4.457   2.482   9.166  1.3255 -0.7685 -0.4971
   23SAPC  H10S 3032   4.329   2.542   9.272 -1.5735  0.5068 -3.3525
   23SAPC  C211 3033   4.276   2.358   9.182 -0.4897 -0.1510 -0.0672
   23SAPC  H11R 3034   4.251   2.273   9.248  3.2686 -0.7020  0.7417
   23SAPC  C212 3035   4.206   2.364   9.065 -0.0989 -0.2596  0.1373
   23SAPC  H12R 3036   4.129   2.287   9.050  0.1005 -1.1669  3.4790
   23SAPC  C213 3037   4.212   2.470   8.954 -0.1331 -0.7591 -0.4262
   23SAPC  H13R 3038   4.273   2.441   8.865 -1.2696 -0.4720 -1.3104
   23SAPC  H13S 3039   4.274   2.550   9.001 -0.1176 -0.7388 -0.4815
   23SAPC  C214 3040   4.077   2.529   8.921 -0.0752  0.4150 -0.5288
   23SAPC  H14R 3041   4.043   2.610   8.986 -0.2630  0.8782 -1.1993
   23SAPC  C215 3042   3.999   2.486   8.823  0.1664 -0.0949 -0.1393
   23SAPC  H15R 3043   3.905   2.542   8.808 -0.2443 -0.7201  0.1045
   23SAPC  C216 3044   4.038   2.369   8.729  0.4016 -0.2307  0.2405
   23SAPC  H16R 3045   4.148   2.357   8.739  1.2314  3.1208 -3.4399
   23SAPC  H16S 3046   4.025   2.400   8.623  1.2648  3.2763  1.0983
   23SAPC  C217 3047   3.973   2.241   8.764  0.4150  0.9535 -0.4362
   23SAPC  H17R 3048   3.864   2.261   8.767  0.2044 -0.2187  0.4260
   23SAPC  H17S 3049   3.997   2.204   8.866  1.1362 -2.0462 -1.6400
   23SAPC  C218 3050   3.995   2.140   8.655  0.1212 -1.1071 -0.2099
   23SAPC  H18R 3051   4.105   2.135   8.648  0.2960  1.1496  0.6560
   23SAPC  H18S 3052   3.949   2.164   8.556  1.1083  1.4238 -0.0893
   23SAPC  C219 3053   3.933   2.006   8.688 -0.1843  0.6801  0.2025
   23SAPC  H19R 3054   3.972   1.970   8.786 -1.1573  1.4969  0.8916
   23SAPC  H19S 3055   3.973   1.927   8.621  2.7337 -1.2772  4.0655
   23SAPC  C220 3056   3.778   2.011   8.685  0.6849  0.4626 -0.4397
   23SAPC  H20R 3057   3.735   1.913   8.715  0.8345  0.4865 -0.1490
   23SAPC  H20S 3058   3.744   2.010   8.579 -0.3842 -2.1230 -0.1015
   23SAPC  H20T 3059   3.729   2.088   8.750  0.3043  0.1217 -0.3211
   23SAPC   C33 3060   4.728   2.794  10.303 -0.5554  0.2035  0.1650
   23SAPC   H3X 3061   4.772   2.694  10.325 -0.8344  0.4406  1.8478
   23SAPC   H3Y 3062   4.744   2.867  10.385  1.1748  0.1868 -0.1393
   23SAPC   C34 3063   4.801   2.841  10.179  0.1238 -0.1972  0.0680
   23SAPC   H4X 3064   4.897   2.889  10.207 -0.4804  1.7111 -1.0613
   23SAPC   H4Y 3065   4.750   2.925  10.128  0.0930  0.1620  0.6984
   23SAPC   C35 3066   4.825   2.729  10.076 -0.7663  0.5184 -0.4222
   23SAPC   H5X 3067   4.814   2.630  10.124  2.3743  0.5642  0.4683
   23SAPC   H5Y 3068   4.933   2.734  10.054 -0.4955 -0.7899  0.5546
   23SAPC   C36 3069   4.742   2.737   9.950  0.0704  0.0544  0.8035
   23SAPC   H6X 3070   4.635   2.738   9.983  0.9324  0.8609  3.6702
   23SAPC   H6Y 3071   4.747   2.641   9.894 -0.0529  1.5424 -1.8028
   23SAPC   C37 3072   4.792   2.832   9.838  0.4311  0.2403  0.3468
   23SAPC   H7X 3073   4.892   2.802   9.799  0.2733 -2.0293  1.6178
   23SAPC   H7Y 3074   4.805   2.936   9.874  2.5543  0.7361 -1.6938
   23SAPC   C38 3075   4.700   2.843   9.717 -0.0920 -0.5910 -1.2353
   23SAPC   H8X 3076   4.736   2.941   9.679  3.9746  0.2467  4.1136
   23SAPC   H8Y 3077   4.593   2.849   9.747  1.0631 -1.1657  3.3626
   23SAPC   C39 3078   4.711   2.744   9.609  0.5864  0.6843 -0.2170
   23SAPC   H9X 3079   4.661   2.647   9.631  1.2228  0.3345 -0.2918
   23SAPC   H9Y 3080   4.820   2.726   9.596  0.1629 -0.8872 -1.7030
   23SAPC  C310 3081   4.656   2.789   9.466 -0.1395  0.8573 -0.0926
   23SAPC  H10X 3082   4.674   2.898   9.454 -0.5658  0.8792 -0.5975
   23SAPC  H10Y 3083   4.547   2.770   9.475  0.1386 -1.1198 -0.5448
   23SAPC  C311 3084   4.723   2.702   9.355  0.1206 -0.1157 -0.4597
   23SAPC  H11X 3085   4.695   2.595   9.360  0.3237 -0.2097 -1.2835
   23SAPC  H11Y 3086   4.834   2.702   9.366 -0.0330  0.4284  1.2479
   23SAPC  C312 3087   4.667   2.746   9.214  0.8071  0.0197  0.2276
   23SAPC  H12X 3088   4.674   2.856   9.205  1.0154  0.1062  1.3527
   23SAPC  H12Y 3089   4.559   2.720   9.211  1.0129 -0.7276 -1.2859
   23SAPC  C313 3090   4.732   2.687   9.096 -0.0197 -0.1022  0.6877
   23SAPC  H13X 3091   4.704   2.580   9.087  0.1058 -0.2105  1.5395
   23SAPC  H13Y 3092   4.842   2.679   9.107  0.2195 -0.9378 -1.8710
   23SAPC  C314 3093   4.697   2.768   8.976  0.3560 -0.5833 -0.4689
   23SAPC  H14X 3094   4.732   2.873   8.986  0.4309 -0.6743  0.2683
   23SAPC  H14Y 3095   4.590   2.784   8.953  0.0247  1.1255  2.1692
   23SAPC  C315 3096   4.769   2.715   8.849 -0.0528 -0.0406 -0.5251
   23SAPC  H15X 3097   4.714   2.765   8.766 -1.9674 -0.2623  0.5718
   23SAPC  H15Y 3098   4.740   2.608   8.838 -0.5634  0.0494 -0.0865
   23SAPC  C316 3099   4.920   2.722   8.856 -0.0637 -0.3843  0.3599
   23SAPC  H16X 3100   4.967   2.662   8.936 -0.9879 -1.4032  0.1439
   23SAPC  H16Y 3101   4.950   2.829   8.851 -1.1218 -0.0636  0.6138
   23SAPC  C317 3102   4.985   2.665   8.725 -0.2499 -0.0971  0.0233
   23SAPC  H17X 3103   4.937   2.571   8.688  0.0186  0.8990 -3.0198
   23SAPC  H17Y 3104   5.094   2.651   8.739 -0.5839 -1.4415  1.3966
   23SAPC  C318 3105   4.962   2.768   8.611 -0.1453  0.4911 -0.9102
   23SAPC  H18X 3106   5.052   2.834   8.611  0.2635 -0.0346  0.7558
   23SAPC  H18Y 3107   4.871   2.831   8.620 -0.2363  0.1528  0.7117
   23SAPC  H18Z 3108   4.956   2.707   8.519  0.1279 -2.4696  0.9614
   24SAPC     N 3109   0.128   2.749  11.217 -0.0575 -0.4188  0.1222
   24SAPC   C12 3110   0.165   2.819  11.094  0.2271 -0.5324 -0.1013
   24SAPC  H12A 3111   0.198   2.920  11.116  1.4140 -1.0389  0.5163
   24SAPC  H12B 3112   0.079   2.853  11.039 -0.8123 -0.8178  1.3244
   24SAPC   C13 3113   0.037   2.833  11.303  0.9962  0.4317  0.2159
   24SAPC  H13A 3114   0.058   2.937  11.320 -0.9200  0.7629  0.7130
   24SAPC  H13B 3115  -0.062   2.839  11.259  0.8737 -1.0954  0.2627
   24SAPC  H13C 3116   0.030   2.778  11.395 -0.0645 -0.2877 -0.2773
   24SAPC   C14 3117   0.051   2.625  11.179  0.0232 -0.2598 -0.8815
   24SAPC  H14A 3118   0.095   2.564  11.101  0.0923  1.0298 -1.8697
   24SAPC  H14B 3119   0.049   2.562  11.267 -1.6457 -1.2860 -1.6217
   24SAPC  H14C 3120  -0.048   2.657  11.151 -0.1698 -2.0556 -2.3190
   24SAPC   C15 3121   0.250   2.711  11.291 -0.3251 -0.2951 -0.2421
   24SAPC  H15A 3122   0.234   2.665  11.387 -0.0146  1.2853  0.5774
   24SAPC  H15B 3123   0.316   2.642  11.241  0.4419  0.4542 -0.2695
   24SAPC  H15C 3124   0.311   2.796  11.317 -0.9576  0.3302 -0.7463
   24SAPC   C11 3125   0.260   2.755  10.989 -0.1123  0.1489 -0.3080
   24SAPC  H11A 3126   0.263   2.815  10.895  1.3531  0.1620 -0.2635
   24SAPC  H11B 3127   0.210   2.660  10.960 -0.1447 -0.0444  0.3790
   24SAPC     P 3128   0.527   2.734  10.951  0.4194  0.2654  0.7598
   24SAPC   O13 3129   0.531   2.867  10.883  0.3186  0.2395  0.3042
   24SAPC   O14 3130   0.642   2.697  11.045  0.3926 -0.0410  0.2691
   24SAPC   O12 3131   0.396   2.717  11.040 -0.6651 -0.4055  0.2787
   24SAPC   O11 3132   0.521   2.619  10.846 -0.3314 -0.1280  0.4286
   24SAPC    C1 3133   0.448   2.506  10.861 -0.2343 -0.1170 -0.2758
   24SAPC    HA 3134   0.397   2.487  10.958  1.0260 -1.9600  0.0508
   24SAPC    HB 3135   0.368   2.505  10.784  1.2350 -4.6683 -1.9085
   24SAPC    C2 3136   0.547   2.389  10.853  0.4208  0.0943  0.2348
   24SAPC    HS 3137   0.617   2.404  10.938  0.7351  0.4943 -0.0886
   24SAPC   O21 3138   0.608   2.389  10.725 -0.2951  0.8381 -0.0757
   24SAPC   C21 3139   0.724   2.312  10.712  0.3944  0.0920 -0.7500
   24SAPC   O22 3140   0.782   2.267  10.809  0.3131 -0.5654  0.3604
   24SAPC   C22 3141   0.760   2.297  10.570 -0.4311  0.2820 -0.5181
   24SAPC   H2R 3142   0.689   2.224  10.525 -1.9857  1.2388  0.3292
   24SAPC   H2S 3143   0.746   2.396  10.522 -0.9548  0.8355  0.7502
   24SAPC    C3 3144   0.477   2.253  10.885 -0.0864  0.2302 -0.5439
   24SAPC    HX 3145   0.434   2.255  10.987  0.3359 -2.6038 -0.2602
   24SAPC    HY 3146   0.554   2.172  10.888  0.3833  0.4801 -3.5893
   24SAPC   O31 3147   0.378   2.220  10.788 -0.4573 -0.1663  0.3631
   24SAPC   C31 3148   0.404   2.131  10.695  0.4441  0.0536  0.3404
   24SAPC   O32 3149   0.519   2.080  10.683  0.4450 -0.6781 -0.0639
   24SAPC   C32 3150   0.280   2.108  10.602 -0.4644 -0.1107 -1.5863
   24SAPC   H2X 3151   0.241   2.209  10.574 -1.4620  0.3100  1.1765
   24SAPC   H2Y 3152   0.208   2.052  10.665 -0.0099  0.5264 -0.4777
   24SAPC   C23 3153   0.902   2.252  10.539  0.8417  0.1655 -0.5920
   24SAPC   H3R 3154   0.918   2.156  10.593 -0.1425 -0.3967 -1.2887
   24SAPC   H3S 3155   0.963   2.334  10.582  0.2590 -0.1532  0.9044
   24SAPC   C24 3156   0.937   2.249  10.399  0.0425  0.1865 -0.5764
   24SAPC   H4R 3157   1.048   2.252  10.403  0.0891 -1.9609  0.1826
   24SAPC   H4S 3158   0.913   2.347  10.352 -0.0092  0.9195  0.9758
   24SAPC   C25 3159   0.895   2.129  10.321 -0.0251 -0.2674 -0.2605
   24SAPC   H5R 3160   0.870   2.045  10.388  0.2389  0.0839  0.2723
   24SAPC   C26 3161   0.877   2.128  10.186 -0.5111 -0.2532 -0.2181
   24SAPC   H6R 3162   0.843   2.034  10.140  0.1510  1.1624 -3.7653
   24SAPC   C27 3163   0.901   2.228  10.078  0.3591 -0.1701  0.3910
   24SAPC   H7R 3164   0.952   2.323  10.105  1.6110 -0.1482 -1.9393
   24SAPC   H7S 3165   0.796   2.255  10.051  1.2756  2.1063 -1.0752
   24SAPC   C28 3166   0.982   2.159   9.968 -0.5871 -0.9054  0.1401
   24SAPC   H8R 3167   1.011   2.054   9.977  1.3496 -0.4879 -0.9740
   24SAPC   C29 3168   1.032   2.213   9.858 -0.0786 -0.2586  0.3193
   24SAPC   H9R 3169   1.113   2.151   9.815 -0.3375 -0.8876  0.7288
   24SAPC  C210 3170   1.024   2.350   9.823  0.4672 -0.4679  0.3495
   24SAPC  H10R 3171   0.983   2.408   9.909 -0.4371 -0.5250 -0.0392
   24SAPC  H10S 3172   0.955   2.353   9.736  0.4368  0.6678  0.4111
   24SAPC  C211 3173   1.153   2.419   9.784 -0.4080 -0.6552 -0.2996
   24SAPC  H11R 3174   1.208   2.457   9.871  0.4291 -3.1198  0.3155
   24SAPC  C212 3175   1.189   2.451   9.656 -0.2895 -1.2302 -0.6967
   24SAPC  H12R 3176   1.283   2.508   9.656  0.3146 -2.2240 -0.2992
   24SAPC  C213 3177   1.125   2.416   9.527 -0.1380 -0.4571 -0.3891
   24SAPC  H13R 3178   1.050   2.339   9.555  2.1397 -1.5891  2.7609
   24SAPC  H13S 3179   1.195   2.373   9.452 -0.6325 -0.8287 -0.6474
   24SAPC  C214 3180   1.050   2.527   9.455 -0.3834 -0.1387  0.3080
   24SAPC  H14R 3181   0.987   2.594   9.515 -0.9024  0.0693 -0.4730
   24SAPC  C215 3182   1.047   2.546   9.318  0.2539  0.6028 -0.2924
   24SAPC  H15R 3183   0.981   2.628   9.286  1.5779  1.6081 -0.4697
   24SAPC  C216 3184   1.126   2.473   9.216  0.5544 -0.2484 -0.2337
   24SAPC  H16R 3185   1.049   2.417   9.157  0.3624 -0.4995  0.2540
   24SAPC  H16S 3186   1.198   2.398   9.254  0.0511 -0.4816  0.2694
   24SAPC  C217 3187   1.206   2.564   9.121 -0.2907 -0.4251  0.1120
   24SAPC  H17R 3188   1.281   2.620   9.182 -1.0761  2.0129 -1.1120
   24SAPC  H17S 3189   1.145   2.626   9.053  0.9178 -0.4851 -1.0550
   24SAPC  C218 3190   1.296   2.476   9.023  0.1711 -0.3143  0.0411
   24SAPC  H18R 3191   1.228   2.414   8.962 -1.2361 -0.4652  1.7251
   24SAPC  H18S 3192   1.353   2.414   9.096 -2.8411  0.1943  2.9218
   24SAPC  C219 3193   1.397   2.553   8.940  0.2773 -0.3421 -0.1600
   24SAPC  H19R 3194   1.352   2.627   8.871 -0.8873 -2.1097 -1.3382
   24SAPC  H19S 3195   1.449   2.483   8.871  2.5155  1.9881 -0.9395
   24SAPC  C220 3196   1.498   2.641   9.020 -0.0098  0.2318 -0.2130
   24SAPC  H20R 3197   1.434   2.700   9.089 -2.6024 -0.4968 -1.9286
   24SAPC  H20S 3198   1.550   2.709   8.949  0.6779 -0.5200 -0.4333
   24SAPC  H20T 3199   1.573   2.583   9.077  0.4614 -0.0668 -1.1305
   24SAPC   C33 3200   0.322   2.041  10.470  0.5390  0.3023 -0.5771
   24SAPC   H3X 3201   0.245   1.967  10.443 -0.1339  0.9841 -0.5462
   24SAPC   H3Y 3202   0.412   1.978  10.486 -0.8734 -1.5467  0.2941
   24SAPC   C34 3203   0.332   2.134  10.349 -0.2674  0.1489  0.0606
   24SAPC   H4X 3204   0.231   2.174  10.326 -0.0084  1.6511  1.4546
   24SAPC   H4Y 3205   0.348   2.068  10.261 -1.2817  0.7851 -0.6177
   24SAPC   C35 3206   0.440   2.238  10.349  0.6921 -0.2563 -0.6536
   24SAPC   H5X 3207   0.535   2.189  10.379 -0.0989 -0.7833  0.9987
   24SAPC   H5Y 3208   0.403   2.309  10.426 -3.2095 -0.3845 -2.2818
   24SAPC   C36 3209   0.458   2.324  10.221 -0.1217 -0.3817 -0.2607
   24SAPC   H6X 3210   0.546   2.392  10.227 -0.7186  0.4244 -0.4575
   24SAPC   H6Y 3211   0.369   2.390  10.205 -1.3794 -2.0442 -0.2294
   24SAPC   C37 3212   0.480   2.239  10.093 -0.1535  0.2566 -0.1979
   24SAPC   H7X 3213   0.396   2.170  10.070 -0.6857  0.9909 -0.4706
   24SAPC   H7Y 3214   0.567   2.176  10.123 -0.0279  0.2143 -0.6499
   24SAPC   C38 3215   0.510   2.324   9.968  0.0589 -0.0672  0.4079
   24SAPC   H8X 3216   0.594   2.391   9.994  0.2674 -0.4649  0.7719
   24SAPC   H8Y 3217   0.420   2.384   9.943  0.9359  0.8292 -0.6178
   24SAPC   C39 3218   0.560   2.237   9.857  0.1863 -0.5402 -0.3831
   24SAPC   H9X 3219   0.466   2.185   9.828 -1.2426  1.7328 -0.0452
   24SAPC   H9Y 3220   0.634   2.164   9.896  1.5794  1.2800  0.5014
   24SAPC  C310 3221   0.621   2.306   9.730 -0.7408  0.0634 -0.5516
   24SAPC  H10X 3222   0.710   2.359   9.771 -2.1379 -0.2000  2.9680
   24SAPC  H10Y 3223   0.551   2.386   9.698  0.5830  3.1903  3.8262
   24SAPC  C311 3224   0.662   2.223   9.614  0.7862 -0.6711  0.6455
   24SAPC  H11X 3225   0.582   2.158   9.574 -1.5466  2.6596 -0.3029
   24SAPC  H11Y 3226   0.737   2.149   9.649  1.2262  0.6754  2.6410
   24SAPC  C312 3227   0.727   2.302   9.498 -1.0200 -0.0722  0.5390
   24SAPC  H12X 3228   0.830   2.330   9.529 -1.1133  0.0395  0.7545
   24SAPC  H12Y 3229   0.677   2.401   9.489 -1.3446 -0.0974  1.9171
   24SAPC  C313 3230   0.755   2.235   9.365  0.1425 -0.1298  0.1703
   24SAPC  H13X 3231   0.831   2.154   9.371 -0.3457 -0.5598  0.5983
   24SAPC  H13Y 3232   0.806   2.306   9.297 -2.1346  0.1055 -1.3527
   24SAPC  C314 3233   0.634   2.177   9.288 -0.7025 -0.0997 -0.2146
   24SAPC  H14X 3234   0.616   2.082   9.341  1.0875 -0.6784 -0.5965
   24SAPC  H14Y 3235   0.676   2.172   9.185  0.0535  1.4932 -0.0079
   24SAPC  C315 3236   0.517   2.267   9.282  0.5740 -0.5012  0.2369
   24SAPC  H15X 3237   0.550   2.361   9.234 -0.9431 -0.6869 -1.2519
   24SAPC  H15Y 3238   0.483   2.288   9.386  2.4022  1.4396  0.4685
   24SAPC  C316 3239   0.387   2.220   9.204 -0.2670 -0.5835 -0.8328
   24SAPC  H16X 3240   0.310   2.299   9.214 -0.3616 -0.6957 -0.6565
   24SAPC  H16Y 3241   0.349   2.128   9.255 -2.4576  0.2053 -1.0163
   24SAPC  C317 3242   0.417   2.196   9.061  0.6670  0.7761 -0.0408
   24SAPC  H17X 3243   0.323   2.163   9.013 -0.1787  3.5352 -0.3640
   24SAPC  H17Y 3244   0.476   2.102   9.057 -0.3376 -0.1526  3.9986
   24SAPC  C318 3245   0.485   2.302   8.973 -0.1056 -0.3512  0.3508
   24SAPC  H18X 3246   0.504   2.266   8.870  2.9815  1.0940  0.3501
   24SAPC  H18Y 3247   0.583   2.335   9.015  1.6906 -1.8693 -2.5263
   24SAPC  H18Z 3248   0.423   2.393   8.956  1.0131 -0.0579 -2.3901
   25SAPC     N 3249   3.808   0.056   5.685 -0.0907 -0.5798  0.1253
   25SAPC   C12 3250   3.689   0.018   5.774 -0.0711 -0.8764 -0.1481
   25SAPC  H12A 3251   3.605  -0.026   5.721 -1.0179  0.5862  0.1036
   25SAPC  H12B 3252   3.653   0.107   5.824 -0.2683 -1.1658  0.2273
   25SAPC   C13 3253   3.871  -0.071   5.644  1.0415  0.2877 -0.6289
   25SAPC  H13A 3254   3.799  -0.133   5.592  1.8188  1.3155 -3.0017
   25SAPC  H13B 3255   3.954  -0.065   5.576  0.9164  0.6054 -0.7572
   25SAPC  H13C 3256   3.898  -0.124   5.734 -0.6346  1.6150  0.6970
   25SAPC   C14 3257   3.760   0.114   5.555 -0.0072 -0.0447  0.2750
   25SAPC  H14A 3258   3.705   0.042   5.496  0.1221 -1.1501  1.4855
   25SAPC  H14B 3259   3.697   0.199   5.577 -0.0678 -0.2079  0.7367
   25SAPC  H14C 3260   3.842   0.156   5.498  0.2218 -1.8398 -0.7346
   25SAPC   C15 3261   3.894   0.147   5.771 -0.5428 -0.0394 -0.5726
   25SAPC  H15A 3262   3.990   0.161   5.722 -1.0294 -0.1111 -1.5592
   25SAPC  H15B 3263   3.843   0.240   5.794  2.1071  0.7180  2.6232
   25SAPC  H15C 3264   3.913   0.099   5.866 -1.7183 -1.0646 -0.8430
   25SAPC   C11 3265   3.723  -0.082   5.893  0.3646  0.8126 -0.2797
   25SAPC  H11A 3266   3.768  -0.173   5.850  2.0484  0.6484  1.7333
   25SAPC  H11B 3267   3.626  -0.119   5.931  1.6018  0.6747  2.9601
   25SAPC     P 3268   3.724   0.044   6.116 -0.0820  0.1945  0.1001
   25SAPC   O13 3269   3.829   0.077   6.218 -0.2629 -0.1212  0.3649
   25SAPC   O14 3270   3.639   0.150   6.060  0.3293 -0.0639 -0.4611
   25SAPC   O12 3271   3.807  -0.030   5.997  0.4146  0.0392  0.6593
   25SAPC   O11 3272   3.633  -0.072   6.163 -0.3312  0.3964 -0.2841
   25SAPC    C1 3273   3.684  -0.196   6.213  0.1363 -0.5761  0.0958
   25SAPC    HA 3274   3.636  -0.280   6.160 -0.1451 -0.5823  0.3601
   25SAPC    HB 3275   3.792  -0.205   6.189  0.0193 -0.7034 -0.3927
   25SAPC    C2 3276   3.661  -0.225   6.366 -0.2604  0.1755  0.1473
   25SAPC    HS 3277   3.699  -0.324   6.398 -1.1965 -0.5719 -1.0227
   25SAPC   O21 3278   3.521  -0.215   6.413  0.1400  0.0457  0.1796
   25SAPC   C21 3279   3.448  -0.311   6.377 -0.7531 -0.1634  0.7469
   25SAPC   O22 3280   3.482  -0.415   6.317 -0.7688 -0.0560 -0.6064
   25SAPC   C22 3281   3.312  -0.297   6.448  0.4559  0.2362  0.3550
   25SAPC   H2R 3282   3.326  -0.276   6.556  1.2171 -2.5710  0.8448
   25SAPC   H2S 3283   3.263  -0.214   6.393  0.9008  0.0805 -0.2916
   25SAPC    C3 3284   3.744  -0.131   6.451  0.1275  0.5703 -0.7525
   25SAPC    HX 3285   3.715  -0.031   6.411 -1.5302 -0.3036 -1.7942
   25SAPC    HY 3286   3.851  -0.145   6.422  0.4216  2.4726 -0.6742
   25SAPC   O31 3287   3.720  -0.158   6.590 -0.3519  0.2024  0.5233
   25SAPC   C31 3288   3.704  -0.053   6.669  0.0030 -0.1180  0.1449
   25SAPC   O32 3289   3.701   0.064   6.633 -0.4659  0.4696  0.1625
   25SAPC   C32 3290   3.712  -0.113   6.813  0.5262 -0.3908  0.7520
   25SAPC   H2X 3291   3.810  -0.163   6.828  1.6753  1.1769 -1.1562
   25SAPC   H2Y 3292   3.628  -0.184   6.829 -0.9202  0.8758 -1.0017
   25SAPC   C23 3293   3.225  -0.422   6.417 -0.2430 -0.8035 -0.4654
   25SAPC   H3R 3294   3.297  -0.505   6.431 -1.0941 -1.8015 -1.7894
   25SAPC   H3S 3295   3.205  -0.431   6.308  0.2876  0.8552 -0.7025
   25SAPC   C24 3296   3.099  -0.421   6.507 -1.1310  0.0570 -0.1417
   25SAPC   H4R 3297   3.018  -0.478   6.456 -2.0851 -0.4893  1.9274
   25SAPC   H4S 3298   3.065  -0.316   6.513  0.6460  0.5771  1.3996
   25SAPC   C25 3299   3.120  -0.478   6.653 -0.0235 -0.8493  1.0420
   25SAPC   H5R 3300   3.187  -0.565   6.657  2.2125  0.8482  1.4093
   25SAPC   C26 3301   3.068  -0.422   6.765  0.4969  0.3037 -0.6516
   25SAPC   H6R 3302   3.082  -0.480   6.857  0.8433  1.1594 -0.1535
   25SAPC   C27 3303   2.969  -0.312   6.784  0.6984  0.5214 -0.4484
   25SAPC   H7R 3304   2.937  -0.319   6.891  0.4713  2.2925 -0.3894
   25SAPC   H7S 3305   2.882  -0.325   6.717 -0.0538  1.4895  0.3230
   25SAPC   C28 3306   3.032  -0.178   6.760  0.0848 -1.0532 -0.8405
   25SAPC   H8R 3307   3.089  -0.148   6.671 -1.8868 -0.5966 -1.9903
   25SAPC   C29 3308   3.022  -0.068   6.838 -0.1135  0.5863  1.0206
   25SAPC   H9R 3309   3.051   0.032   6.802 -0.1859 -0.1653 -1.2096
   25SAPC  C210 3310   2.944  -0.053   6.967 -0.7943  0.4067  0.2439
   25SAPC  H10R 3311   2.904  -0.149   7.008  1.3571 -1.0387 -0.9120
   25SAPC  H10S 3312   2.851   0.003   6.947  0.6152  2.7788  0.2031
   25SAPC  C211 3313   3.038   0.013   7.057  0.1850 -0.3586  0.5368
   25SAPC  H11R 3314   3.100   0.093   7.014 -1.4682  1.1488  0.9179
   25SAPC  C212 3315   3.055  -0.016   7.187  0.5178 -0.7813  0.3940
   25SAPC  H12R 3316   3.139   0.031   7.240  0.1561  0.1293  0.1776
   25SAPC  C213 3317   2.996  -0.119   7.271  0.3982 -0.2959 -0.1964
   25SAPC  H13R 3318   3.061  -0.208   7.279  0.4906 -0.2392 -0.3202
   25SAPC  H13S 3319   2.896  -0.143   7.230 -0.3341 -0.8841  1.8487
   25SAPC  C214 3320   2.958  -0.055   7.403 -0.2472  0.5062 -0.1100
   25SAPC  H14R 3321   2.905   0.041   7.396 -1.4394  0.2062  3.3791
   25SAPC  C215 3322   2.961  -0.119   7.525  0.3033 -0.1174 -0.0750
   25SAPC  H15R 3323   2.927  -0.061   7.612  3.0223 -0.1946  1.0911
   25SAPC  C216 3324   3.016  -0.260   7.550 -0.3601 -0.2067 -0.3483
   25SAPC  H16R 3325   3.050  -0.308   7.456 -0.1760  0.6839 -0.7459
   25SAPC  H16S 3326   2.925  -0.317   7.578  0.2945 -1.4113 -0.6378
   25SAPC  C217 3327   3.124  -0.262   7.659  0.0071  0.6356 -0.0723
   25SAPC  H17R 3328   3.196  -0.179   7.640  0.0515  1.0352  1.7021
   25SAPC  H17S 3329   3.172  -0.362   7.659 -2.9606 -0.8493 -0.9966
   25SAPC  C218 3330   3.060  -0.247   7.798  0.0385 -0.5223 -0.5295
   25SAPC  H18R 3331   2.992  -0.333   7.817 -4.8059  3.0466 -0.6029
   25SAPC  H18S 3332   3.006  -0.150   7.801 -0.9693 -1.0285 -1.7148
   25SAPC  C219 3333   3.162  -0.263   7.905  0.2823  0.0845  0.8268
   25SAPC  H19R 3334   3.242  -0.186   7.907 -0.9418  1.4318 -1.2579
   25SAPC  H19S 3335   3.220  -0.356   7.884 -0.0590  0.1490 -0.4107
   25SAPC  C220 3336   3.106  -0.288   8.049  0.1786  0.2731  0.4872
   25SAPC  H20R 3337   3.058  -0.388   8.051 -1.4805  1.0599  0.8876
   25SAPC  H20S 3338   3.031  -0.211   8.079  1.6008  1.7717  0.2578
   25SAPC  H20T 3339   3.194  -0.288   8.116  0.2375 -0.0097  0.4076
   25SAPC   C33 3340   3.693   0.000   6.913  0.0071  0.1090  0.0477
   25SAPC   H3X 3341   3.616   0.075   6.885 -2.0891 -1.2226  2.1345
   25SAPC   H3Y 3342   3.776   0.072   6.929 -1.2051  0.9669  2.6840
   25SAPC   C34 3343   3.636  -0.052   7.052  0.5169 -0.0793  0.8466
   25SAPC   H4X 3344   3.618  -0.162   7.053 -4.4920  0.6224 -0.2201
   25SAPC   H4Y 3345   3.538  -0.001   7.065 -0.4351 -1.2451 -1.4222
   25SAPC   C35 3346   3.749  -0.024   7.162 -0.0251 -0.3850 -0.1774
   25SAPC   H5X 3347   3.779   0.083   7.155 -2.1871  0.1506 -2.0569
   25SAPC   H5Y 3348   3.841  -0.078   7.134 -0.5922 -2.3474  1.5896
   25SAPC   C36 3349   3.710  -0.063   7.300  0.3629 -0.6219 -0.8527
   25SAPC   H6X 3350   3.686  -0.170   7.282 -0.5530 -0.4256 -0.8387
   25SAPC   H6Y 3351   3.621  -0.006   7.334  0.3913 -0.5016 -0.9782
   25SAPC   C37 3352   3.834  -0.061   7.402 -0.1089 -0.3772  0.8552
   25SAPC   H7X 3353   3.875   0.042   7.411 -0.9788  0.1139 -0.5984
   25SAPC   H7Y 3354   3.916  -0.113   7.348  0.4495  1.8275 -0.4687
   25SAPC   C38 3355   3.801  -0.114   7.543 -0.3376  0.2450  0.5927
   25SAPC   H8X 3356   3.823  -0.221   7.524  3.9779  0.7954  1.7560
   25SAPC   H8Y 3357   3.693  -0.091   7.555 -0.4104  1.0852 -1.3806
   25SAPC   C39 3358   3.889  -0.052   7.650  0.1934  0.2668 -0.1383
   25SAPC   H9X 3359   3.873   0.057   7.636 -0.8166  0.2204  0.5422
   25SAPC   H9Y 3360   3.998  -0.069   7.633  0.0683 -0.3208 -0.3564
   25SAPC  C310 3361   3.873  -0.099   7.788  0.1351 -0.2611 -0.7163
   25SAPC  H10X 3362   3.944  -0.042   7.850  3.7515 -2.4514 -2.7018
   25SAPC  H10Y 3363   3.905  -0.205   7.793  2.3808  0.4897  1.7106
   25SAPC  C311 3364   3.730  -0.097   7.839 -0.9289 -0.1484 -0.9348
   25SAPC  H11X 3365   3.680  -0.166   7.767 -0.4027  0.2186 -1.6590
   25SAPC  H11Y 3366   3.690   0.007   7.839 -0.1053  0.1928 -3.4822
   25SAPC  C312 3367   3.706  -0.152   7.979 -0.0083 -0.0924  0.1033
   25SAPC  H12X 3368   3.756  -0.250   7.996  0.5940  0.5709  2.2726
   25SAPC  H12Y 3369   3.599  -0.173   8.002  0.3177 -1.2178  0.6161
   25SAPC  C313 3370   3.752  -0.045   8.076  0.2444 -0.4881 -0.1115
   25SAPC  H13X 3371   3.729   0.057   8.040  0.7240  0.6454  2.6494
   25SAPC  H13Y 3372   3.863  -0.040   8.076  0.2432 -0.5346 -0.8549
   25SAPC  C314 3373   3.706  -0.065   8.217 -0.1246 -0.1030 -0.2114
   25SAPC  H14X 3374   3.780  -0.022   8.288 -0.8728 -0.7901  1.0100
   25SAPC  H14Y 3375   3.714  -0.172   8.246 -0.2213 -0.2587 -0.7573
   25SAPC  C315 3376   3.570   0.004   8.239  0.3085 -0.0185 -0.1375
   25SAPC  H15X 3377   3.494  -0.058   8.185  0.3347  0.5318 -0.8029
   25SAPC  H15Y 3378   3.578   0.103   8.192  0.2332  1.0784  2.0735
   25SAPC  C316 3379   3.544   0.030   8.381 -0.0400  0.7848 -0.4175
   25SAPC  H16X 3380   3.626   0.083   8.433 -0.4373 -1.0931  2.2390
   25SAPC  H16Y 3381   3.536  -0.068   8.432 -0.9065 -1.2285 -4.2651
   25SAPC  C317 3382   3.416   0.107   8.404  0.0503 -0.1540  0.2067
   25SAPC  H17X 3383   3.325   0.067   8.354  0.7790 -1.2303 -0.2922
   25SAPC  H17Y 3384   3.442   0.205   8.360 -1.1748 -0.7231 -1.8623
   25SAPC  C318 3385   3.381   0.124   8.553 -0.6857 -0.2169 -0.0529
   25SAPC  H18X 3386   3.463   0.176   8.607 -0.6427  1.9888 -2.1239
   25SAPC  H18Y 3387   3.342   0.031   8.599 -0.8690 -0.0923  0.0382
   25SAPC  H18Z 3388   3.300   0.200   8.547  0.0896  0.6081 -0.1878
   26SAPC     N 3389   1.682   1.700   6.029  0.2020  0.0765 -0.7680
   26SAPC   C12 3390   1.807   1.703   6.115 -0.5596 -0.0684 -0.0344
   26SAPC  H12A 3391   1.890   1.725   6.050 -0.4792 -2.2770 -0.7026
   26SAPC  H12B 3392   1.826   1.602   6.147 -1.2959  0.6080  2.6692
   26SAPC   C13 3393   1.703   1.606   5.912  0.1604 -0.6166  0.3987
   26SAPC  H13A 3394   1.766   1.648   5.835 -1.2504  1.2393  0.2250
   26SAPC  H13B 3395   1.736   1.512   5.954  0.6735  0.1694  1.7900
   26SAPC  H13C 3396   1.608   1.593   5.863 -0.8989  0.1151  2.2290
   26SAPC   C14 3397   1.570   1.640   6.108 -0.2233  0.4073 -0.0269
   26SAPC  H14A 3398   1.476   1.637   6.055 -0.7998  0.6236  0.9705
   26SAPC  H14B 3399   1.600   1.542   6.143 -1.3195  1.0479  2.8939
   26SAPC  H14C 3400   1.537   1.700   6.192 -2.1146 -0.0961 -0.3783
   26SAPC   C15 3401   1.636   1.831   5.985 -0.6468 -0.6595  0.2563
   26SAPC  H15A 3402   1.534   1.820   5.950 -0.8875 -1.5697  1.2425
   26SAPC  H15B 3403   1.651   1.905   6.062  0.6170 -2.0873  1.4175
   26SAPC  H15C 3404   1.698   1.859   5.900 -1.4589 -0.4223 -0.2636
   26SAPC   C11 3405   1.802   1.795   6.236  0.0861  0.2618 -0.3012
   26SAPC  H11A 3406   1.885   1.769   6.304  0.4328 -2.0272 -1.5252
   26SAPC  H11B 3407   1.703   1.792   6.287 -0.2627  2.1800 -0.8483
   26SAPC     P 3408   1.833   2.042   6.306 -0.2387  0.0199  0.2712
   26SAPC   O13 3409   1.882   2.156   6.229 -0.2375  0.0559  0.4535
   26SAPC   O14 3410   1.697   2.049   6.367 -0.0112 -0.2037 -0.1807
   26SAPC   O12 3411   1.818   1.930   6.198 -0.5941 -0.2701 -0.2885
   26SAPC   O11 3412   1.940   1.986   6.414 -0.1139  0.4028 -0.3879
   26SAPC    C1 3413   2.079   2.003   6.398  0.1481  0.2435  0.0971
   26SAPC    HA 3414   2.121   1.914   6.346 -1.0621 -1.4360  1.9120
   26SAPC    HB 3415   2.104   2.091   6.336  1.5288 -0.0513  0.2056
   26SAPC    C2 3416   2.135   2.020   6.544 -0.5282  0.4919 -0.1317
   26SAPC    HS 3417   2.241   2.051   6.534 -0.8220  1.1864 -1.2311
   26SAPC   O21 3418   2.125   1.895   6.619  0.5927  0.5550 -0.1238
   26SAPC   C21 3419   2.213   1.800   6.591 -1.3867  0.0241 -0.0117
   26SAPC   O22 3420   2.295   1.796   6.502  0.7189 -0.0203  0.0366
   26SAPC   C22 3421   2.204   1.696   6.707 -0.2514 -0.7808 -0.2928
   26SAPC   H2R 3422   2.096   1.688   6.731  0.3426  1.1351  3.4078
   26SAPC   H2S 3423   2.250   1.602   6.670  1.9303  1.2078 -2.8291
   26SAPC    C3 3424   2.061   2.128   6.622 -0.0141  0.8008  0.1527
   26SAPC    HX 3425   1.955   2.096   6.632 -0.1204  0.9841 -0.3780
   26SAPC    HY 3426   2.052   2.221   6.562 -1.0537  0.0226 -0.9094
   26SAPC   O31 3427   2.139   2.149   6.744 -0.4510 -1.0162  0.3681
   26SAPC   C31 3428   2.087   2.099   6.852 -0.2651 -0.1064 -0.2093
   26SAPC   O32 3429   1.984   2.037   6.862 -0.4177  0.1753  0.0806
   26SAPC   C32 3430   2.195   2.124   6.963 -0.4601  0.0071 -0.4541
   26SAPC   H2X 3431   2.216   2.233   6.963 -2.2238  0.3505 -1.4489
   26SAPC   H2Y 3432   2.288   2.086   6.915  0.6064  1.7687  0.1630
   26SAPC   C23 3433   2.290   1.734   6.829  0.6313  0.1335  0.1764
   26SAPC   H3R 3434   2.261   1.837   6.858 -0.7704  0.3117 -1.7634
   26SAPC   H3S 3435   2.397   1.734   6.798  0.0364  3.5516 -2.1388
   26SAPC   C24 3436   2.275   1.629   6.934  0.0211 -0.0319  0.1483
   26SAPC   H4R 3437   2.363   1.629   7.001 -0.1295 -3.2420  0.4000
   26SAPC   H4S 3438   2.274   1.531   6.882  1.0806 -0.5079  1.0229
   26SAPC   C25 3439   2.146   1.644   7.006  0.2006  0.0295  0.0262
   26SAPC   H5R 3440   2.055   1.663   6.947  1.4665 -0.1264 -1.9920
   26SAPC   C26 3441   2.126   1.644   7.140 -0.4330 -1.0173  0.0686
   26SAPC   H6R 3442   2.024   1.663   7.177  0.4501  2.5764  0.7954
   26SAPC   C27 3443   2.232   1.622   7.247 -0.0645  0.1758  0.0819
   26SAPC   H7R 3444   2.228   1.708   7.317 -1.2086 -2.4781  3.4030
   26SAPC   H7S 3445   2.328   1.631   7.191 -0.0135 -0.1734  0.1102
   26SAPC   C28 3446   2.228   1.488   7.320 -0.5277 -0.3701 -0.1652
   26SAPC   H8R 3447   2.212   1.391   7.271  4.7976 -1.3818 -0.2110
   26SAPC   C29 3448   2.247   1.473   7.453 -0.0658  0.0857 -0.1383
   26SAPC   H9R 3449   2.223   1.373   7.493  0.9679  0.0113  0.3310
   26SAPC  C210 3450   2.286   1.580   7.548  0.4925 -0.3668 -0.2138
   26SAPC  H10R 3451   2.192   1.611   7.599  0.5277 -0.5681 -0.0255
   26SAPC  H10S 3452   2.332   1.669   7.501 -1.9437  0.3386 -1.3448
   26SAPC  C211 3453   2.377   1.513   7.652 -0.1697 -0.4337  0.0307
   26SAPC  H11R 3454   2.481   1.505   7.618 -0.6810 -4.1135 -0.9004
   26SAPC  C212 3455   2.353   1.453   7.766 -0.4553 -0.1666  0.8147
   26SAPC  H12R 3456   2.436   1.408   7.822  1.1812  2.2734  0.4153
   26SAPC  C213 3457   2.221   1.454   7.834  0.2871  0.5286  0.0589
   26SAPC  H13R 3458   2.199   1.357   7.883  0.1717  1.7186  2.4201
   26SAPC  H13S 3459   2.141   1.451   7.757  1.0104  0.1967 -0.6919
   26SAPC  C214 3460   2.200   1.568   7.928 -0.8991  0.2432 -0.0641
   26SAPC  H14R 3461   2.147   1.651   7.878 -2.5784 -0.3694  0.6554
   26SAPC  C215 3462   2.240   1.572   8.054  0.6633  0.5739  0.4826
   26SAPC  H15R 3463   2.216   1.667   8.105 -0.1470 -1.0878  3.2953
   26SAPC  C216 3464   2.313   1.463   8.136 -0.2521 -0.1320 -0.4516
   26SAPC  H16R 3465   2.402   1.508   8.184 -2.2439  1.0611  2.2779
   26SAPC  H16S 3466   2.363   1.388   8.071 -1.3824 -0.5747 -0.8222
   26SAPC  C217 3467   2.238   1.385   8.237 -0.1400 -0.7298  0.4300
   26SAPC  H17R 3468   2.136   1.361   8.200 -0.5173  0.6193  0.5526
   26SAPC  H17S 3469   2.234   1.454   8.324  0.6709 -0.1847  0.0461
   26SAPC  C218 3470   2.306   1.250   8.279 -0.0743  0.0881 -0.3788
   26SAPC  H18R 3471   2.397   1.291   8.328 -1.3787  0.7411  1.5347
   26SAPC  H18S 3472   2.344   1.198   8.187 -2.0717 -0.0789 -1.1252
   26SAPC  C219 3473   2.225   1.158   8.371  0.2310  0.0493 -0.8688
   26SAPC  H19R 3474   2.271   1.058   8.386  2.5771  0.8909 -2.2173
   26SAPC  H19S 3475   2.132   1.143   8.312 -0.4162  1.3938 -0.2035
   26SAPC  C220 3476   2.191   1.223   8.504  0.4346 -0.2478  0.7859
   26SAPC  H20R 3477   2.107   1.296   8.502  0.4377 -0.1671  2.6465
   26SAPC  H20S 3478   2.271   1.293   8.535  0.5205  0.0404 -0.0994
   26SAPC  H20T 3479   2.179   1.158   8.594 -1.4740  1.2187  1.6468
   26SAPC   C33 3480   2.169   2.054   7.096  0.0960  0.0087 -0.7478
   26SAPC   H3X 3481   2.179   1.943   7.095  0.6602  0.0560 -0.3614
   26SAPC   H3Y 3482   2.062   2.070   7.118 -0.3647 -1.1419 -2.0418
   26SAPC   C34 3483   2.262   2.118   7.196 -0.2851 -0.3239  0.5207
   26SAPC   H4X 3484   2.239   2.227   7.195 -1.3686 -0.5615 -0.6538
   26SAPC   H4Y 3485   2.373   2.106   7.189 -0.0261  2.1497 -0.1255
   26SAPC   C35 3486   2.226   2.061   7.336 -0.4809 -0.3044  0.3052
   26SAPC   H5X 3487   2.259   1.956   7.320 -0.1069  0.0976 -1.6563
   26SAPC   H5Y 3488   2.120   2.083   7.360 -0.9900 -0.7536 -1.4786
   26SAPC   C36 3489   2.305   2.131   7.449 -0.5657 -0.4135  0.3319
   26SAPC   H6X 3490   2.311   2.242   7.443 -0.8601 -0.4356 -0.5258
   26SAPC   H6Y 3491   2.409   2.099   7.430 -0.1911 -0.8058  2.8907
   26SAPC   C37 3492   2.269   2.095   7.592  0.3449  0.2817 -0.0602
   26SAPC   H7X 3493   2.171   2.142   7.617  0.6033  1.3273 -0.9522
   26SAPC   H7Y 3494   2.331   2.152   7.664  1.9688 -2.1032  0.4864
   26SAPC   C38 3495   2.276   1.951   7.627 -0.4447  0.3003  0.8232
   26SAPC   H8X 3496   2.383   1.924   7.611 -0.4644  1.8560 -2.4726
   26SAPC   H8Y 3497   2.207   1.884   7.570 -2.0137  2.6181 -0.0763
   26SAPC   C39 3498   2.251   1.920   7.776  0.1507 -0.2500  1.1067
   26SAPC   H9X 3499   2.237   1.810   7.786  2.1085 -0.7025 -0.5600
   26SAPC   H9Y 3500   2.154   1.969   7.795 -1.0519 -1.5094 -1.5925
   26SAPC  C310 3501   2.369   1.953   7.879  0.4992  0.4145 -0.0815
   26SAPC  H10X 3502   2.406   2.054   7.852 -1.7122  0.5065 -3.1188
   26SAPC  H10Y 3503   2.459   1.891   7.859  1.7617  2.4999 -0.9812
   26SAPC  C311 3504   2.326   1.942   8.023  0.3465  0.1658 -0.5233
   26SAPC  H11X 3505   2.267   1.848   8.034 -1.7197  1.4904 -0.0839
   26SAPC  H11Y 3506   2.250   2.018   8.050  0.7537  1.3639 -2.6603
   26SAPC  C312 3507   2.440   1.943   8.125  0.6151  0.1844 -0.5008
   26SAPC  H12X 3508   2.527   1.881   8.093 -0.2310 -0.7769 -0.9514
   26SAPC  H12Y 3509   2.397   1.905   8.220 -0.0347  0.1911 -0.7900
   26SAPC  C313 3510   2.491   2.081   8.157  0.2544 -0.2081  0.4070
   26SAPC  H13X 3511   2.402   2.133   8.197 -0.7352 -0.2606 -1.6393
   26SAPC  H13Y 3512   2.534   2.137   8.071 -0.5510  0.1044  0.2049
   26SAPC  C314 3513   2.613   2.070   8.258  0.0965  0.4166  0.5408
   26SAPC  H14X 3514   2.658   2.171   8.258 -0.6297  0.7532 -1.6586
   26SAPC  H14Y 3515   2.685   1.994   8.220 -1.6786 -1.9444  1.7425
   26SAPC  C315 3516   2.561   2.052   8.405 -0.5996  0.0479 -0.0095
   26SAPC  H15X 3517   2.552   1.943   8.424 -0.4582  0.5607  3.1601
   26SAPC  H15Y 3518   2.460   2.099   8.411 -1.4691 -1.7073 -0.3642
   26SAPC  C316 3519   2.655   2.110   8.519  0.9764  0.1344  0.2947
   26SAPC  H16X 3520   2.651   2.220   8.509  0.3830  0.1411  0.5896
   26SAPC  H16Y 3521   2.753   2.070   8.485 -0.0653 -1.5042 -0.8344
   26SAPC  C317 3522   2.611   2.067   8.653  0.1648  0.4665 -1.3528
   26SAPC  H17X 3523   2.504   2.041   8.634 -0.1555  1.4992 -1.0046
   26SAPC  H17Y 3524   2.622   2.160   8.713 -0.1553  0.0709 -0.6745
   26SAPC  C318 3525   2.683   1.956   8.734 -0.1630 -0.4735 -0.6503
   26SAPC  H18X 3526   2.773   2.003   8.779 -0.5713 -0.6141  0.3264
   26SAPC  H18Y 3527   2.704   1.865   8.673 -0.7177 -0.8275 -0.3160
   26SAPC  H18Z 3528   2.631   1.918   8.825  0.7009 -1.3561 -0.5095
   27SAPC     N 3529   6.605   2.233   6.616 -0.0991 -0.4017  0.4234
   27SAPC   C12 3530   6.636   2.213   6.757 -0.0501 -0.4304  0.9499
   27SAPC  H12A 3531   6.546   2.220   6.817 -0.4634 -1.7675  0.4999
   27SAPC  H12B 3532   6.703   2.290   6.791  0.3382 -0.6336  0.6412
   27SAPC   C13 3533   6.550   2.365   6.592  0.8715 -0.8449 -0.0042
   27SAPC  H13A 3534   6.492   2.366   6.501  2.5988 -0.7532 -1.1199
   27SAPC  H13B 3535   6.476   2.397   6.664 -0.0425  2.2032 -2.1963
   27SAPC  H13C 3536   6.635   2.432   6.586 -0.1359  0.4070 -0.7442
   27SAPC   C14 3537   6.732   2.234   6.532  0.4937  0.1773 -0.5907
   27SAPC  H14A 3538   6.707   2.241   6.427 -1.7349 -1.9210 -0.2409
   27SAPC  H14B 3539   6.786   2.323   6.560 -1.0524  1.2810 -1.0699
   27SAPC  H14C 3540   6.783   2.143   6.560 -1.2746 -0.3330  1.0920
   27SAPC   C15 3541   6.511   2.135   6.553 -0.0711  0.3507  0.4473
   27SAPC  H15A 3542   6.417   2.137   6.606  0.3163  1.8132  1.1047
   27SAPC  H15B 3543   6.500   2.164   6.449  5.8854 -1.5272 -0.8702
   27SAPC  H15C 3544   6.558   2.038   6.546 -1.4352 -0.4183  1.5470
   27SAPC   C11 3545   6.684   2.075   6.801  0.2606  0.6641 -0.1434
   27SAPC  H11A 3546   6.613   2.001   6.759  0.2454  1.2895 -1.2408
   27SAPC  H11B 3547   6.669   2.070   6.911 -1.6335  0.8202 -0.3791
   27SAPC     P 3548   6.944   2.096   6.831 -0.2921  0.3659  0.3430
   27SAPC   O13 3549   7.055   2.097   6.734  0.0356  0.0731 -0.0626
   27SAPC   O14 3550   6.921   2.224   6.895  0.4351 -0.3636  1.0576
   27SAPC   O12 3551   6.816   2.051   6.753  0.1339 -0.1353 -0.1465
   27SAPC   O11 3552   6.981   1.995   6.946  0.6119  0.1622 -0.1137
   27SAPC    C1 3553   6.889   1.896   6.995 -0.7804 -0.2063 -0.3942
   27SAPC    HA 3554   6.830   1.931   7.082 -0.3112  1.0551 -0.5719
   27SAPC    HB 3555   6.824   1.856   6.914 -0.5757  0.0282 -0.6768
   27SAPC    C2 3556   6.967   1.773   7.050  0.5014 -0.1604 -0.6716
   27SAPC    HS 3557   6.893   1.703   7.092  2.4742 -1.9274 -0.0324
   27SAPC   O21 3558   7.058   1.806   7.152  0.5094  0.3872 -0.1997
   27SAPC   C21 3559   7.002   1.818   7.281 -0.8507  0.1335 -0.4521
   27SAPC   O22 3560   6.886   1.822   7.309  0.6551  0.7673 -0.2958
   27SAPC   C22 3561   7.125   1.813   7.381 -0.5318  0.2365  0.1613
   27SAPC   H2R 3562   7.199   1.743   7.337 -2.1567  0.4792 -3.1676
   27SAPC   H2S 3563   7.154   1.920   7.382 -1.1941  0.4190  1.4695
   27SAPC    C3 3564   7.047   1.698   6.947 -0.0016  0.1129  0.7056
   27SAPC    HX 3565   7.142   1.753   6.931 -0.2584  0.2174 -0.5044
   27SAPC    HY 3566   7.000   1.676   6.849 -2.3602  2.8161  1.1578
   27SAPC   O31 3567   7.099   1.572   6.999  0.2283 -0.7972  0.1192
   27SAPC   C31 3568   7.018   1.469   7.002  0.0322 -0.4967 -0.0180
   27SAPC   O32 3569   6.901   1.471   6.981  0.4828  0.3711  0.9386
   27SAPC   C32 3570   7.089   1.360   7.076 -0.2944 -0.1824 -0.2807
   27SAPC   H2X 3571   7.198   1.379   7.076 -0.1944 -0.7203 -1.8162
   27SAPC   H2Y 3572   7.060   1.260   7.037 -1.9311 -0.3729  1.3871
   27SAPC   C23 3573   7.097   1.766   7.532 -0.1728 -0.6248 -0.1936
   27SAPC   H3R 3574   7.188   1.744   7.591  0.1498  0.0584 -0.4275
   27SAPC   H3S 3575   7.049   1.667   7.516 -0.8608 -0.2378 -0.5340
   27SAPC   C24 3576   7.002   1.853   7.610 -0.3401  0.0135 -0.0890
   27SAPC   H4R 3577   6.976   1.799   7.703  0.6096  1.8536  1.2665
   27SAPC   H4S 3578   6.908   1.877   7.554 -1.4844  0.0140  1.7912
   27SAPC   C25 3579   7.069   1.983   7.644 -0.4527  0.3032 -0.8564
   27SAPC   H5R 3580   7.088   2.044   7.555  0.1876  1.9488  0.3883
   27SAPC   C26 3581   7.081   2.037   7.766 -0.3789 -0.5548 -0.2243
   27SAPC   H6R 3582   7.141   2.129   7.775  0.8361 -1.1163 -2.1676
   27SAPC   C27 3583   7.056   1.986   7.900  0.2520  0.3652 -1.0419
   27SAPC   H7R 3584   6.995   1.894   7.886  1.0886 -0.3740  0.1450
   27SAPC   H7S 3585   7.000   2.066   7.954 -0.4122 -1.3066  0.7706
   27SAPC   C28 3586   7.181   1.950   7.974 -0.3168  0.5041  0.8779
   27SAPC   H8R 3587   7.256   1.890   7.920 -0.7190  0.2016  0.6459
   27SAPC   C29 3588   7.208   1.963   8.101 -0.4598  0.0578 -0.1881
   27SAPC   H9R 3589   7.313   1.952   8.132 -0.3299  1.5175 -0.0575
   27SAPC  C210 3590   7.114   2.030   8.199 -0.6713 -0.1067 -0.1931
   27SAPC  H10R 3591   7.134   1.999   8.304 -0.7431 -1.1780 -0.4909
   27SAPC  H10S 3592   7.011   1.991   8.180 -0.3789 -1.5415  1.1003
   27SAPC  C211 3593   7.128   2.182   8.197  0.4958  0.0377  0.3272
   27SAPC  H11R 3594   7.146   2.219   8.095 -0.1741 -2.5809 -0.7734
   27SAPC  C212 3595   7.117   2.269   8.297  0.0694 -0.2517  0.8725
   27SAPC  H12R 3596   7.142   2.374   8.274 -0.5230 -0.6681 -1.8430
   27SAPC  C213 3597   7.088   2.238   8.444  0.3094  0.5710 -0.1745
   27SAPC  H13R 3598   7.007   2.162   8.450 -0.6176  1.5760  0.1990
   27SAPC  H13S 3599   7.049   2.327   8.498  0.6792  0.5791  0.0795
   27SAPC  C214 3600   7.215   2.187   8.514  0.1709 -0.1851  0.6195
   27SAPC  H14R 3601   7.304   2.248   8.492 -0.6389  1.0717  0.7957
   27SAPC  C215 3602   7.219   2.082   8.595  0.3490  0.9109  0.2680
   27SAPC  H15R 3603   7.313   2.058   8.647  1.2308 -0.5804 -1.9282
   27SAPC  C216 3604   7.099   1.995   8.639 -0.4263 -0.2723  0.0107
   27SAPC  H16R 3605   7.127   1.892   8.671  0.0784 -0.6754 -1.6848
   27SAPC  H16S 3606   7.016   1.983   8.565  0.0246 -0.7421 -0.4209
   27SAPC  C217 3607   7.038   2.072   8.759 -0.1766  0.1268  0.7608
   27SAPC  H17R 3608   7.036   2.181   8.737  1.5447  0.4697  2.2208
   27SAPC  H17S 3609   7.103   2.063   8.848  0.4032 -0.1875  0.3084
   27SAPC  C218 3610   6.907   2.023   8.819 -0.5197  0.2077  0.3951
   27SAPC  H18R 3611   6.839   2.046   8.735 -0.3772  1.3938  0.5899
   27SAPC  H18S 3612   6.883   2.079   8.912  1.9664  1.8956  0.1049
   27SAPC  C219 3613   6.900   1.869   8.837  0.3096 -0.4830  0.3638
   27SAPC  H19R 3614   6.976   1.820   8.902  0.8708  0.8838  0.7490
   27SAPC  H19S 3615   6.915   1.833   8.733  0.3686 -0.0848  0.2316
   27SAPC  C220 3616   6.762   1.830   8.888  0.1081 -0.2908  0.2347
   27SAPC  H20R 3617   6.737   1.871   8.988 -0.3943 -2.2486  0.9319
   27SAPC  H20S 3618   6.768   1.721   8.908  1.1502 -0.5433 -1.3405
   27SAPC  H20T 3619   6.678   1.850   8.819 -0.6105 -2.0410  0.5814
   27SAPC   C33 3620   7.060   1.350   7.232 -0.1590  0.0278  0.4553
   27SAPC   H3X 3621   6.949   1.356   7.238 -0.2270  1.3115 -1.5240
   27SAPC   H3Y 3622   7.090   1.440   7.289  1.8150 -0.9402  0.9949
   27SAPC   C34 3623   7.101   1.215   7.292  0.1994 -0.2537 -0.3034
   27SAPC   H4X 3624   7.211   1.199   7.291  0.3738  1.0051 -1.7818
   27SAPC   H4Y 3625   7.067   1.130   7.229 -1.8924  1.2814 -1.2852
   27SAPC   C35 3626   7.060   1.193   7.442  0.2471 -0.7207 -0.0233
   27SAPC   H5X 3627   7.128   1.117   7.485 -0.9304 -3.1630 -2.3509
   27SAPC   H5Y 3628   6.956   1.154   7.442 -0.0506  0.0254  1.7745
   27SAPC   C36 3629   7.065   1.325   7.528 -0.2896 -0.0433 -0.4410
   27SAPC   H6X 3630   6.991   1.402   7.496 -2.4948 -1.5208  1.0211
   27SAPC   H6Y 3631   7.169   1.365   7.520 -0.2305  0.1768  1.3523
   27SAPC   C37 3632   7.060   1.310   7.682  0.1782  0.1281 -0.4450
   27SAPC   H7X 3633   7.126   1.225   7.710 -0.1337 -0.7620 -2.3056
   27SAPC   H7Y 3634   6.961   1.284   7.726  0.7114  0.0953  0.7526
   27SAPC   C38 3635   7.098   1.428   7.757  0.1870 -0.4424 -0.0253
   27SAPC   H8X 3636   7.034   1.512   7.721  1.4264  1.0963  1.2515
   27SAPC   H8Y 3637   7.195   1.471   7.724 -0.3772  0.7088 -0.2170
   27SAPC   C39 3638   7.097   1.412   7.896 -0.9709  0.6573  0.2443
   27SAPC   H9X 3639   7.164   1.331   7.933 -0.8103  1.5550  1.9695
   27SAPC   H9Y 3640   6.998   1.389   7.941 -0.4416  0.3238  1.2656
   27SAPC  C310 3641   7.138   1.530   7.980 -0.1167 -0.4988  0.1569
   27SAPC  H10X 3642   7.072   1.615   7.951 -1.9616 -1.7379  0.6353
   27SAPC  H10Y 3643   7.243   1.563   7.966 -0.5755  0.0399 -2.2596
   27SAPC  C311 3644   7.110   1.495   8.123 -0.3777 -0.0963 -0.0782
   27SAPC  H11X 3645   7.176   1.414   8.161  0.6682  0.5576 -0.4750
   27SAPC  H11Y 3646   7.008   1.459   8.148  0.3510 -2.1275  0.1260
   27SAPC  C312 3647   7.137   1.616   8.212  0.7436 -0.5148 -0.7607
   27SAPC  H12X 3648   7.046   1.679   8.206  0.1322 -1.1273  1.4633
   27SAPC  H12Y 3649   7.229   1.662   8.171  0.6903  1.0810  0.8100
   27SAPC  C313 3650   7.151   1.590   8.362  0.2106 -0.5894  0.2979
   27SAPC  H13X 3651   7.181   1.683   8.415 -2.4345 -0.2615  1.2515
   27SAPC  H13Y 3652   7.243   1.528   8.375  0.5380 -0.2178 -0.2056
   27SAPC  C314 3653   7.037   1.513   8.436  0.4078  0.5617 -0.0810
   27SAPC  H14X 3654   7.032   1.413   8.388 -1.3857  0.0525  1.0994
   27SAPC  H14Y 3655   6.936   1.554   8.412 -0.4341 -1.7474 -0.6981
   27SAPC  C315 3656   7.059   1.497   8.584  0.3403  0.3417 -0.2332
   27SAPC  H15X 3657   7.055   1.591   8.643  1.6283 -0.8977  1.8704
   27SAPC  H15Y 3658   7.167   1.478   8.601  0.0807  0.8953  2.1562
   27SAPC  C316 3659   6.958   1.401   8.645  0.2617 -0.0335  0.1203
   27SAPC  H16X 3660   6.989   1.296   8.626  0.8489  0.1273  0.1778
   27SAPC  H16Y 3661   6.856   1.410   8.603  0.4156  1.6705  0.0541
   27SAPC  C317 3662   6.959   1.438   8.796  0.3054  0.2431  0.0361
   27SAPC  H17X 3663   6.913   1.540   8.798 -1.2221 -0.4253 -0.5556
   27SAPC  H17Y 3664   7.066   1.441   8.828  0.4588 -3.4676  0.0652
   27SAPC  C318 3665   6.882   1.338   8.887  0.0835 -1.0758 -0.7719
   27SAPC  H18X 3666   6.776   1.334   8.853  0.1086  1.3594 -1.2427
   27SAPC  H18Y 3667   6.889   1.374   8.991  1.8802  0.5358 -1.4254
   27SAPC  H18Z 3668   6.915   1.232   8.880  0.4702 -1.0338  0.3603
   28SAPC     N 3669   6.218   6.604   6.561  0.9727  0.7231 -0.5386
   28SAPC   C12 3670   6.118   6.540   6.462  1.0786  0.1558 -0.0740
   28SAPC  H12A 3671   6.088   6.612   6.388  0.4878 -0.0658 -0.0455
   28SAPC  H12B 3672   6.031   6.529   6.524  1.3983  1.5049  0.6529
   28SAPC   C13 3673   6.362   6.622   6.519  0.3257 -0.6716  0.1323
   28SAPC  H13A 3674   6.398   6.532   6.471 -0.3151 -0.2590 -1.1167
   28SAPC  H13B 3675   6.367   6.700   6.445 -0.6232  1.0137  1.7915
   28SAPC  H13C 3676   6.426   6.651   6.601  1.4048 -1.8445 -0.2747
   28SAPC   C14 3677   6.160   6.740   6.608 -0.1277 -0.1425  0.3632
   28SAPC  H14A 3678   6.125   6.808   6.532  0.4580 -0.1273  0.1095
   28SAPC  H14B 3679   6.070   6.722   6.666  0.5375 -1.9867  0.8541
   28SAPC  H14C 3680   6.229   6.788   6.676  1.4088 -0.3548 -1.0359
   28SAPC   C15 3681   6.210   6.522   6.688 -0.4878 -0.5737  0.3419
   28SAPC  H15A 3682   6.291   6.550   6.753 -0.7539  0.3105  0.2914
   28SAPC  H15B 3683   6.126   6.541   6.753 -1.0307 -1.2803 -0.1415
   28SAPC  H15C 3684   6.218   6.415   6.677  0.3327 -0.9333  4.0431
   28SAPC   C11 3685   6.158   6.403   6.407 -0.3713 -0.6035  0.6028
   28SAPC  H11A 3686   6.068   6.367   6.354  0.9399 -2.1539 -0.6085
   28SAPC  H11B 3687   6.171   6.340   6.498  0.7236 -2.0845 -0.5488
   28SAPC     P 3688   6.363   6.304   6.300 -0.0081 -0.1610  0.2380
   28SAPC   O13 3689   6.291   6.214   6.211  0.9415 -0.9128  0.3118
   28SAPC   O14 3690   6.500   6.345   6.255 -0.0922  0.1199  0.0625
   28SAPC   O12 3691   6.273   6.425   6.320 -0.0680 -0.1972 -0.5131
   28SAPC   O11 3692   6.377   6.247   6.448  0.1815 -0.0993  0.5417
   28SAPC    C1 3693   6.366   6.111   6.487  0.1776  0.7194 -0.0932
   28SAPC    HA 3694   6.257   6.102   6.506  0.0581 -0.1273 -1.1468
   28SAPC    HB 3695   6.399   6.039   6.408 -1.0881 -0.6682  0.6328
   28SAPC    C2 3696   6.449   6.080   6.615  0.3114 -0.2815  0.5948
   28SAPC    HS 3697   6.421   5.976   6.645 -0.5518 -0.0095  0.7495
   28SAPC   O21 3698   6.416   6.180   6.715  0.3327  0.1283 -0.3907
   28SAPC   C21 3699   6.323   6.135   6.802  0.3794 -0.0113 -0.4205
   28SAPC   O22 3700   6.257   6.033   6.797  0.1695  0.5410  0.3084
   28SAPC   C22 3701   6.306   6.230   6.919  0.6738  0.0380  0.4242
   28SAPC   H2R 3702   6.402   6.273   6.957  0.5837  0.2882  0.3638
   28SAPC   H2S 3703   6.244   6.315   6.885  3.5051  1.6643 -0.8212
   28SAPC    C3 3704   6.599   6.079   6.578 -0.1415 -0.1084 -0.5846
   28SAPC    HX 3705   6.616   6.159   6.503 -0.7393  0.2541 -0.3433
   28SAPC    HY 3706   6.623   5.977   6.542 -0.4453 -0.4085  0.0582
   28SAPC   O31 3707   6.679   6.104   6.693 -0.0502  0.2153 -0.5986
   28SAPC   C31 3708   6.734   6.221   6.715 -1.1296 -0.3422 -0.7485
   28SAPC   O32 3709   6.713   6.321   6.654  0.4702 -0.3310 -0.4076
   28SAPC   C32 3710   6.802   6.207   6.857  0.6568 -0.0247  0.5137
   28SAPC   H2X 3711   6.897   6.153   6.839  0.2504 -0.0994 -1.5908
   28SAPC   H2Y 3712   6.751   6.139   6.929  0.2116  0.1665  0.3800
   28SAPC   C23 3713   6.234   6.164   7.042 -0.3234 -0.8224 -0.3778
   28SAPC   H3R 3714   6.129   6.141   7.012 -0.4048 -0.7022 -0.1908
   28SAPC   H3S 3715   6.221   6.236   7.126 -0.2461 -0.0541 -1.0112
   28SAPC   C24 3716   6.303   6.036   7.093  0.1205 -0.2141 -0.8869
   28SAPC   H4R 3717   6.231   5.998   7.168  0.9008  0.7483  0.3781
   28SAPC   H4S 3718   6.309   5.959   7.014 -1.4315  0.7237 -1.9432
   28SAPC   C25 3719   6.434   6.075   7.164 -0.1146 -0.0792 -0.9588
   28SAPC   H5R 3720   6.517   6.108   7.099  0.5114 -1.8235 -1.0679
   28SAPC   C26 3721   6.445   6.087   7.302 -0.3824 -0.2854  0.6389
   28SAPC   H6R 3722   6.539   6.127   7.343 -0.6908  0.7573  0.3358
   28SAPC   C27 3723   6.332   6.063   7.408  0.7300 -0.4117  0.6403
   28SAPC   H7R 3724   6.336   5.967   7.464 -0.9417 -0.6250  0.4166
   28SAPC   H7S 3725   6.234   6.067   7.355  0.6596  0.8121  0.8297
   28SAPC   C28 3726   6.321   6.179   7.500  0.3852  0.5308 -0.6080
   28SAPC   H8R 3727   6.272   6.270   7.462 -0.4088  0.1059 -0.6153
   28SAPC   C29 3728   6.350   6.195   7.629  0.7623  0.1845  0.2166
   28SAPC   H9R 3729   6.335   6.292   7.679  0.7924  0.3673 -0.1283
   28SAPC  C210 3730   6.407   6.092   7.728 -0.2432  0.7293 -0.5379
   28SAPC  H10R 3731   6.482   6.028   7.678 -1.0065 -0.1876 -0.5292
   28SAPC  H10S 3732   6.318   6.027   7.743  1.3587 -1.3581  0.0303
   28SAPC  C211 3733   6.455   6.137   7.865  0.3251  0.0125 -0.1465
   28SAPC  H11R 3734   6.565   6.141   7.876  0.4080  0.7053 -1.1817
   28SAPC  C212 3735   6.383   6.178   7.970 -0.5868  0.1355  0.4711
   28SAPC  H12R 3736   6.432   6.196   8.067 -1.3827  0.5531  0.8051
   28SAPC  C213 3737   6.229   6.180   7.962 -0.4526  0.2254  0.3847
   28SAPC  H13R 3738   6.185   6.078   7.955 -2.1235  0.8763  0.9896
   28SAPC  H13S 3739   6.200   6.230   7.867 -1.0797 -1.5063 -0.3488
   28SAPC  C214 3740   6.164   6.257   8.072 -0.2975  0.0777 -0.1599
   28SAPC  H14R 3741   6.236   6.317   8.130  1.6537 -2.4061  0.1003
   28SAPC  C215 3742   6.040   6.246   8.121  0.0936  0.4807  1.1870
   28SAPC  H15R 3743   6.010   6.303   8.210  0.2437  0.7570  1.0622
   28SAPC  C216 3744   5.937   6.162   8.062  0.7918 -0.0061  0.2625
   28SAPC  H16R 3745   5.883   6.101   8.138  1.5186 -2.7436 -1.3301
   28SAPC  H16S 3746   5.967   6.084   7.989 -2.3381  0.2982 -1.4007
   28SAPC  C217 3747   5.820   6.238   7.998 -0.2034 -0.7200 -0.0629
   28SAPC  H17R 3748   5.749   6.160   7.965 -0.6333 -0.4403  0.2083
   28SAPC  H17S 3749   5.860   6.294   7.911 -2.8503 -1.4325 -1.7628
   28SAPC  C218 3750   5.742   6.318   8.100  0.0997 -0.1326 -0.5255
   28SAPC  H18R 3751   5.799   6.379   8.172  2.0996 -2.4987 -0.0335
   28SAPC  H18S 3752   5.696   6.242   8.167  1.5548 -1.3622 -0.8916
   28SAPC  C219 3753   5.629   6.414   8.045  0.2681  0.3182 -0.1304
   28SAPC  H19R 3754   5.676   6.504   8.001  1.7534  0.3485  1.4579
   28SAPC  H19S 3755   5.570   6.444   8.135 -1.8582  0.1322 -1.4341
   28SAPC  C220 3756   5.527   6.355   7.943  0.0987 -0.6677  0.8153
   28SAPC  H20R 3757   5.576   6.304   7.857 -2.3342  0.1082 -1.0889
   28SAPC  H20S 3758   5.449   6.427   7.910  0.3241 -0.0792  1.5771
   28SAPC  H20T 3759   5.456   6.279   7.982 -1.2658 -0.3216 -0.9345
   28SAPC   C33 3760   6.833   6.350   6.907  1.3190  0.3631  0.2976
   28SAPC   H3X 3761   6.741   6.409   6.931  2.4780  2.0534  0.6701
   28SAPC   H3Y 3762   6.881   6.413   6.829  0.1856  0.3654 -0.4167
   28SAPC   C34 3763   6.937   6.345   7.020  1.0564 -0.0647  0.0973
   28SAPC   H4X 3764   6.965   6.450   7.042  1.0577  0.0454 -0.4246
   28SAPC   H4Y 3765   7.028   6.286   6.996  1.7425  0.5801  1.0678
   28SAPC   C35 3766   6.873   6.278   7.145  0.3429 -0.0798 -0.0794
   28SAPC   H5X 3767   6.900   6.172   7.128 -2.1313 -0.4488 -2.0315
   28SAPC   H5Y 3768   6.762   6.272   7.143  0.3967 -3.3540  2.6299
   28SAPC   C36 3769   6.914   6.334   7.277  0.5644 -0.7695  0.0053
   28SAPC   H6X 3770   6.902   6.444   7.279  1.3164 -0.6770 -0.7496
   28SAPC   H6Y 3771   7.023   6.326   7.292  0.6110  0.1306  0.1317
   28SAPC   C37 3772   6.856   6.260   7.396 -0.2904 -0.0452 -0.5959
   28SAPC   H7X 3773   6.887   6.154   7.382  0.7011  0.5279 -2.9555
   28SAPC   H7Y 3774   6.746   6.277   7.395 -0.4141 -0.7298  0.5745
   28SAPC   C38 3775   6.911   6.317   7.525 -0.2526  0.4593  0.1218
   28SAPC   H8X 3776   6.897   6.427   7.519 -0.0187  0.5281  0.7923
   28SAPC   H8Y 3777   7.020   6.309   7.539 -0.3084  1.7752  1.3763
   28SAPC   C39 3778   6.848   6.261   7.648  0.3284 -0.1135 -0.9158
   28SAPC   H9X 3779   6.883   6.157   7.664 -2.5372 -0.7108  2.2176
   28SAPC   H9Y 3780   6.738   6.255   7.629  0.2415  1.4606 -0.9582
   28SAPC  C310 3781   6.875   6.352   7.769  0.1510 -0.0110 -0.0494
   28SAPC  H10X 3782   6.830   6.452   7.759 -0.1764  0.0364  1.7166
   28SAPC  H10Y 3783   6.983   6.371   7.791 -0.5257  0.8606  2.7489
   28SAPC  C311 3784   6.804   6.299   7.898  0.2290  0.8810  0.1670
   28SAPC  H11X 3785   6.693   6.294   7.887  0.2216  1.2559  0.0583
   28SAPC  H11Y 3786   6.818   6.389   7.962  0.4981  0.5985  0.5049
   28SAPC  C312 3787   6.851   6.172   7.968 -0.4759  0.4944  0.2748
   28SAPC  H12X 3788   6.958   6.167   7.998 -0.2748  0.9680 -0.3336
   28SAPC  H12Y 3789   6.841   6.090   7.894  0.0737 -0.1569  0.9138
   28SAPC  C313 3790   6.776   6.118   8.086  0.5868  0.0859  0.3373
   28SAPC  H13X 3791   6.806   6.012   8.102 -0.6872 -0.8495 -3.0150
   28SAPC  H13Y 3792   6.672   6.124   8.047  0.2834 -0.5742  1.0290
   28SAPC  C314 3793   6.786   6.209   8.212  0.0562  1.0905 -0.6103
   28SAPC  H14X 3794   6.752   6.313   8.188  1.6142  2.4327  2.6378
   28SAPC  H14Y 3795   6.893   6.231   8.234 -0.5654  1.3913  2.4057
   28SAPC  C315 3796   6.717   6.153   8.332  0.0127 -0.2268  0.3976
   28SAPC  H15X 3797   6.759   6.206   8.419 -0.3199  0.4269  0.1630
   28SAPC  H15Y 3798   6.741   6.045   8.347 -2.4553 -0.8667  0.0331
   28SAPC  C316 3799   6.571   6.192   8.323 -0.5225 -0.5695  0.0768
   28SAPC  H16X 3800   6.525   6.141   8.236 -0.2986  1.6139 -1.3587
   28SAPC  H16Y 3801   6.552   6.301   8.316  2.9769  0.0778 -0.1300
   28SAPC  C317 3802   6.481   6.157   8.443 -0.3968 -0.0054  0.0016
   28SAPC  H17X 3803   6.520   6.201   8.537  0.4066 -3.2012  1.2334
   28SAPC  H17Y 3804   6.475   6.048   8.462  1.4683 -0.0047  0.6711
   28SAPC  C318 3805   6.339   6.213   8.415  0.1881  0.9568  0.0514
   28SAPC  H18X 3806   6.346   6.319   8.382 -1.1018  0.9987 -0.0954
   28SAPC  H18Y 3807   6.268   6.214   8.500 -1.7871  0.2272 -1.5376
   28SAPC  H18Z 3808   6.295   6.166   8.325  0.5401  1.4449 -0.3785
   29SAPC     N 3809   1.704   2.372   5.960 -0.2073 -0.1879  0.0394
   29SAPC   C12 3810   1.632   2.331   6.093 -0.8726  0.5729 -0.4383
   29SAPC  H12A 3811   1.706   2.336   6.172 -1.2017 -0.9851 -0.0103
   29SAPC  H12B 3812   1.611   2.225   6.089  1.6105  0.0925 -2.3049
   29SAPC   C13 3813   1.827   2.279   5.931 -0.6588 -0.3151  0.1504
   29SAPC  H13A 3814   1.889   2.275   6.019 -0.2316  1.6815 -0.0380
   29SAPC  H13B 3815   1.800   2.176   5.910  1.6175 -0.6182 -1.4825
   29SAPC  H13C 3816   1.893   2.310   5.851 -1.0882 -0.9573 -0.4650
   29SAPC   C14 3817   1.612   2.369   5.845  0.6389 -0.0936 -0.4658
   29SAPC  H14A 3818   1.520   2.424   5.859  0.8405 -0.3161  2.0321
   29SAPC  H14B 3819   1.665   2.417   5.764 -0.0852  0.5508 -0.5628
   29SAPC  H14C 3820   1.592   2.269   5.810  2.1702 -0.0048 -1.6008
   29SAPC   C15 3821   1.756   2.514   5.975  0.3076 -0.6994  0.0933
   29SAPC  H15A 3822   1.822   2.528   6.060  0.3443  3.2979 -0.4967
   29SAPC  H15B 3823   1.795   2.558   5.885 -0.9415  0.2334 -0.0027
   29SAPC  H15C 3824   1.669   2.574   5.995 -1.1869 -1.9888 -2.3514
   29SAPC   C11 3825   1.491   2.402   6.132  0.4160 -0.3533 -0.2100
   29SAPC  H11A 3826   1.453   2.351   6.222  0.0471  1.3505  0.6270
   29SAPC  H11B 3827   1.419   2.367   6.055 -0.2435  0.5096  0.0074
   29SAPC     P 3828   1.568   2.601   6.280 -0.3774  0.2368 -0.4222
   29SAPC   O13 3829   1.624   2.731   6.241 -0.1808  0.0083 -0.0242
   29SAPC   O14 3830   1.470   2.599   6.386  0.5400 -0.0961 -0.4583
   29SAPC   O12 3831   1.501   2.544   6.148  0.7764  0.2278  0.0622
   29SAPC   O11 3832   1.687   2.501   6.307 -0.5217 -0.0555 -0.1621
   29SAPC    C1 3833   1.679   2.401   6.415 -0.0835  0.3106 -0.4149
   29SAPC    HA 3834   1.578   2.357   6.431 -0.2644  0.0268 -2.2276
   29SAPC    HB 3835   1.752   2.320   6.393 -0.2091  0.2015 -0.4268
   29SAPC    C2 3836   1.722   2.463   6.556 -0.5547 -0.1300  0.1397
   29SAPC    HS 3837   1.661   2.552   6.583  0.5781  1.0200 -1.0075
   29SAPC   O21 3838   1.860   2.498   6.531  0.0310 -0.4833  0.6772
   29SAPC   C21 3839   1.889   2.622   6.522 -0.5688 -0.5946 -0.3387
   29SAPC   O22 3840   1.815   2.715   6.502  0.4573 -0.1179  0.5505
   29SAPC   C22 3841   2.036   2.635   6.562  0.0822  0.6315 -0.6356
   29SAPC   H2R 3842   2.091   2.626   6.466  2.9402  3.0470  0.6550
   29SAPC   H2S 3843   2.053   2.739   6.597  0.3832  0.4400 -0.2066
   29SAPC    C3 3844   1.719   2.352   6.662  1.0355 -0.9838 -0.4426
   29SAPC    HX 3845   1.781   2.269   6.622  0.0462 -1.4513 -0.9971
   29SAPC    HY 3846   1.614   2.321   6.682  0.6088  0.2209 -0.7834
   29SAPC   O31 3847   1.785   2.394   6.783  0.1889  0.1915  0.7023
   29SAPC   C31 3848   1.758   2.300   6.882 -0.2251 -0.2832 -0.3752
   29SAPC   O32 3849   1.711   2.191   6.862 -0.2229  0.4201  0.4467
   29SAPC   C32 3850   1.770   2.370   7.016 -0.1102 -0.2883  0.3768
   29SAPC   H2X 3851   1.739   2.476   7.010 -1.2628 -0.3083  4.4437
   29SAPC   H2Y 3852   1.878   2.368   7.045  0.4905 -1.6019 -1.7900
   29SAPC   C23 3853   2.074   2.551   6.680 -0.1066  0.4994 -0.0828
   29SAPC   H3R 3854   2.076   2.444   6.651  0.9010  0.8161 -1.2040
   29SAPC   H3S 3855   1.995   2.563   6.758 -0.4145  2.2262 -0.6402
   29SAPC   C24 3856   2.211   2.575   6.754  0.3808  0.2047 -0.2985
   29SAPC   H4R 3857   2.285   2.562   6.672 -0.1857 -2.3029 -0.4429
   29SAPC   H4S 3858   2.231   2.488   6.820  0.8584 -0.4265 -1.2622
   29SAPC   C25 3859   2.217   2.701   6.826 -0.3281 -0.6622 -0.9857
   29SAPC   H5R 3860   2.216   2.788   6.759 -0.1610  1.2492  1.3978
   29SAPC   C26 3861   2.241   2.716   6.959 -0.0048 -0.4933  0.0476
   29SAPC   H6R 3862   2.260   2.819   6.994 -0.6375  0.1901 -1.5949
   29SAPC   C27 3863   2.257   2.613   7.066  0.3448  0.0302  0.8202
   29SAPC   H7R 3864   2.327   2.660   7.137  2.8867 -0.2725 -1.4319
   29SAPC   H7S 3865   2.311   2.522   7.031  0.4832  1.0512 -1.7134
   29SAPC   C28 3866   2.120   2.572   7.122 -0.0452 -0.2075 -0.8365
   29SAPC   H8R 3867   2.029   2.579   7.060 -1.6003  1.0018  1.5150
   29SAPC   C29 3868   2.102   2.523   7.249 -0.7911  0.1473 -0.0885
   29SAPC   H9R 3869   2.001   2.502   7.287 -0.2700  0.7186  1.6504
   29SAPC  C210 3870   2.214   2.510   7.348 -0.1226 -0.6859 -0.1721
   29SAPC  H10R 3871   2.245   2.616   7.363  0.1767 -0.8466  0.3363
   29SAPC  H10S 3872   2.310   2.468   7.311  0.9567  0.7053  0.9705
   29SAPC  C211 3873   2.176   2.452   7.480  0.1310  0.4568 -0.4213
   29SAPC  H11R 3874   2.110   2.366   7.460  1.0216 -0.3821  0.1669
   29SAPC  C212 3875   2.225   2.485   7.602  0.3113 -0.0408 -0.0263
   29SAPC  H12R 3876   2.200   2.420   7.687 -2.8676 -1.2031 -1.7715
   29SAPC  C213 3877   2.324   2.588   7.639 -0.6412 -0.5648 -0.6361
   29SAPC  H13R 3878   2.266   2.683   7.629  1.2684  0.4729 -2.2488
   29SAPC  H13S 3879   2.396   2.604   7.555  0.6042 -1.8754  0.1612
   29SAPC  C214 3880   2.382   2.574   7.777 -0.0381  1.1310 -0.3844
   29SAPC  H14R 3881   2.459   2.498   7.790  0.8200  1.6974 -2.0645
   29SAPC  C215 3882   2.339   2.630   7.891 -0.5219  0.7340 -0.3073
   29SAPC  H15R 3883   2.393   2.624   7.987 -1.7216 -0.9605  0.2965
   29SAPC  C216 3884   2.226   2.729   7.900  0.2842  0.3881 -0.5724
   29SAPC  H16R 3885   2.135   2.693   7.847 -0.4464 -0.1853  1.0453
   29SAPC  H16S 3886   2.250   2.828   7.854 -2.8584  1.2755 -0.4500
   29SAPC  C217 3887   2.188   2.766   8.046 -0.2931 -0.1933  0.2244
   29SAPC  H17R 3888   2.185   2.673   8.108  2.3061 -0.7798 -0.4641
   29SAPC  H17S 3889   2.087   2.813   8.044  0.3521  1.1504 -1.9793
   29SAPC  C218 3890   2.287   2.868   8.117 -0.3139 -0.0442 -0.1379
   29SAPC  H18R 3891   2.315   2.945   8.042 -1.4388 -0.0264 -0.5535
   29SAPC  H18S 3892   2.387   2.825   8.141 -0.3998 -1.6014 -2.3708
   29SAPC  C219 3893   2.225   2.937   8.234  0.1646  0.3472  0.7433
   29SAPC  H19R 3894   2.211   2.857   8.309 -0.6909  0.9864  1.2786
   29SAPC  H19S 3895   2.126   2.966   8.193 -0.7955  0.2021  2.9022
   29SAPC  C220 3896   2.302   3.048   8.309 -0.3797  0.0002 -0.5006
   29SAPC  H20R 3897   2.238   3.101   8.383  0.7879  2.9873 -1.5956
   29SAPC  H20S 3898   2.325   3.123   8.231  1.6067 -1.6522 -1.5551
   29SAPC  H20T 3899   2.396   3.010   8.354  0.3261  2.7765  0.4431
   29SAPC   C33 3900   1.691   2.294   7.124  0.0289  0.2677  0.0159
   29SAPC   H3X 3901   1.713   2.186   7.132 -3.2098 -0.3575  1.4101
   29SAPC   H3Y 3902   1.584   2.280   7.097  0.2065 -0.9773 -0.0547
   29SAPC   C34 3903   1.704   2.344   7.272  0.1696  0.0433 -0.3283
   29SAPC   H4X 3904   1.604   2.328   7.318 -0.7929  1.9037 -1.7296
   29SAPC   H4Y 3905   1.718   2.454   7.277 -1.2741  0.1543  2.2909
   29SAPC   C35 3906   1.792   2.268   7.365  0.2814  0.7175  0.0908
   29SAPC   H5X 3907   1.885   2.246   7.310 -0.0506 -0.8384  0.1281
   29SAPC   H5Y 3908   1.749   2.167   7.383 -0.4527  0.7335 -1.5092
   29SAPC   C36 3909   1.797   2.334   7.498  0.3914 -0.0515 -0.1215
   29SAPC   H6X 3910   1.699   2.343   7.550  0.1290 -0.8306 -0.4700
   29SAPC   H6Y 3911   1.833   2.438   7.487  1.8033 -0.7051 -1.9935
   29SAPC   C37 3912   1.883   2.254   7.597 -0.3244 -0.3277 -1.0926
   29SAPC   H7X 3913   1.984   2.226   7.560 -0.5004 -0.8138 -1.2095
   29SAPC   H7Y 3914   1.832   2.157   7.619 -1.6770  0.1376 -2.1329
   29SAPC   C38 3915   1.899   2.333   7.726 -0.6113  0.2070  0.1881
   29SAPC   H8X 3916   1.797   2.363   7.759 -1.1177  0.9753 -2.0059
   29SAPC   H8Y 3917   1.946   2.432   7.707 -2.7336  1.1718 -0.2084
   29SAPC   C39 3918   1.976   2.262   7.839 -0.1846 -0.7927  0.2167
   29SAPC   H9X 3919   2.075   2.238   7.795 -1.4457 -2.0160 -2.0895
   29SAPC   H9Y 3920   1.910   2.177   7.867 -1.9299  0.4859  0.0210
   29SAPC  C310 3921   1.993   2.343   7.967  0.3816 -0.5030 -0.3317
   29SAPC  H10X 3922   1.889   2.361   8.002  0.3788  1.7560 -1.4612
   29SAPC  H10Y 3923   2.001   2.450   7.940 -0.8365 -0.5918 -1.0852
   29SAPC  C311 3924   2.084   2.303   8.082  0.1232 -0.4738 -0.1084
   29SAPC  H11X 3925   2.150   2.385   8.115 -0.2363 -1.0074  2.0379
   29SAPC  H11Y 3926   2.136   2.217   8.035 -0.9028 -0.7739 -0.7286
   29SAPC  C312 3927   1.995   2.251   8.206  0.4375  0.0690  0.2156
   29SAPC  H12X 3928   1.923   2.172   8.179 -0.7908  0.8123  1.2584
   29SAPC  H12Y 3929   1.939   2.336   8.250  0.2447  0.9835 -1.7278
   29SAPC  C313 3930   2.076   2.191   8.316 -0.6138  0.5906  0.0254
   29SAPC  H13X 3931   2.133   2.114   8.260 -2.5177 -0.1371 -0.9543
   29SAPC  H13Y 3932   2.010   2.150   8.395  1.1695  1.4717  2.0392
   29SAPC  C314 3933   2.171   2.293   8.390  0.2632 -0.2523 -0.1012
   29SAPC  H14X 3934   2.188   2.385   8.331  1.1504  0.8603  1.8541
   29SAPC  H14Y 3935   2.263   2.232   8.401  0.8331  0.8676  1.5932
   29SAPC  C315 3936   2.110   2.346   8.525  0.0616 -0.5363  0.3435
   29SAPC  H15X 3937   2.080   2.261   8.589 -1.2803 -1.8210 -1.9212
   29SAPC  H15Y 3938   2.014   2.397   8.501  0.5013 -0.4904 -1.3681
   29SAPC  C316 3939   2.199   2.440   8.619 -0.0064  0.1291 -0.5075
   29SAPC  H16X 3940   2.155   2.488   8.709  0.2830  1.6865 -1.1864
   29SAPC  H16Y 3941   2.225   2.523   8.549 -2.1917  0.3122 -1.1220
   29SAPC  C317 3942   2.316   2.360   8.673  0.6851  0.2447  0.0829
   29SAPC  H17X 3943   2.366   2.301   8.594  2.4256 -0.6622  1.8069
   29SAPC  H17Y 3944   2.275   2.293   8.752  0.7409 -0.3630 -0.4059
   29SAPC  C318 3945   2.420   2.454   8.733 -0.2445 -0.2002  0.0853
   29SAPC  H18X 3946   2.505   2.397   8.776 -0.0340 -0.6405 -0.8893
   29SAPC  H18Y 3947   2.364   2.495   8.819 -0.4869 -0.4720  0.0589
   29SAPC  H18Z 3948   2.466   2.538   8.677  0.5773 -0.9280 -0.3437
   30SAPC     N 3949   2.827   2.256   6.156 -0.5092 -0.1304  0.2927
   30SAPC   C12 3950   2.958   2.268   6.078  0.0812  0.6214 -0.8211
   30SAPC  H12A 3951   2.964   2.372   6.051  2.0647  0.4322 -1.1859
   30SAPC  H12B 3952   2.961   2.208   5.987 -0.8750  0.9417 -1.0655
   30SAPC   C13 3953   2.798   2.115   6.195 -0.9388 -0.3087 -0.2023
   30SAPC  H13A 3954   2.867   2.085   6.272  0.6503  0.4746 -1.3115
   30SAPC  H13B 3955   2.698   2.107   6.237 -1.1019  0.9439 -0.3517
   30SAPC  H13C 3956   2.821   2.045   6.115 -0.5185  0.9959 -1.2323
   30SAPC   C14 3957   2.831   2.357   6.264 -0.3265  0.5432  0.1483
   30SAPC  H14A 3958   2.750   2.338   6.333 -0.8985  0.1062 -0.6378
   30SAPC  H14B 3959   2.917   2.356   6.328 -1.0751  2.4816  1.2204
   30SAPC  H14C 3960   2.802   2.457   6.235 -0.4427  0.1024 -1.3150
   30SAPC   C15 3961   2.719   2.289   6.067 -0.3167  0.0397 -0.0835
   30SAPC  H15A 3962   2.627   2.266   6.119  0.2060 -2.9142 -0.3861
   30SAPC  H15B 3963   2.723   2.394   6.041  0.6776  0.1371  0.4449
   30SAPC  H15C 3964   2.723   2.227   5.978  1.0040 -0.4186  0.2777
   30SAPC   C11 3965   3.090   2.240   6.158 -0.1950 -0.2729  0.1836
   30SAPC  H11A 3966   3.170   2.256   6.084 -0.6832 -2.6608 -0.9300
   30SAPC  H11B 3967   3.087   2.135   6.196 -1.1142 -0.3899 -0.1958
   30SAPC     P 3968   3.177   2.456   6.267  0.2943 -0.0415  0.0221
   30SAPC   O13 3969   3.136   2.520   6.141 -0.0419  0.0822  0.0300
   30SAPC   O14 3970   3.168   2.537   6.391 -0.2078 -0.1333 -0.4451
   30SAPC   O12 3971   3.096   2.319   6.278 -0.0090  0.3411  0.2279
   30SAPC   O11 3972   3.323   2.407   6.255  0.3522  0.1587  0.3083
   30SAPC    C1 3973   3.391   2.308   6.332  0.0208  0.0659 -0.5189
   30SAPC    HA 3974   3.311   2.243   6.375 -2.3734  0.8759 -3.5473
   30SAPC    HB 3975   3.453   2.252   6.259  0.3630 -1.3160  0.8072
   30SAPC    C2 3976   3.495   2.369   6.437 -0.1574  0.2898 -0.2914
   30SAPC    HS 3977   3.549   2.287   6.490 -0.3449 -0.2825 -0.9785
   30SAPC   O21 3978   3.435   2.454   6.543  0.2093  0.3227  0.3499
   30SAPC   C21 3979   3.354   2.405   6.630  0.4789 -0.4705  0.0524
   30SAPC   O22 3980   3.316   2.289   6.645  0.0642 -0.0266  0.2385
   30SAPC   C22 3981   3.324   2.517   6.725  0.2763 -0.3945  0.4225
   30SAPC   H2R 3982   3.423   2.561   6.751 -0.7214  0.5137  2.8662
   30SAPC   H2S 3983   3.267   2.591   6.665 -0.5022 -0.4317  1.1123
   30SAPC    C3 3984   3.605   2.450   6.362  0.5987  0.1244 -0.4699
   30SAPC    HX 3985   3.561   2.515   6.284  0.6622  1.9444  0.9574
   30SAPC    HY 3986   3.672   2.383   6.303 -1.0092 -0.3613 -1.7685
   30SAPC   O31 3987   3.685   2.520   6.455  0.0792 -0.3444  0.1737
   30SAPC   C31 3988   3.652   2.648   6.479  0.1434  0.3666 -0.3896
   30SAPC   O32 3989   3.559   2.704   6.428 -0.0405 -0.5772  0.0944
   30SAPC   C32 3990   3.748   2.710   6.577  0.5175  0.1796  0.7977
   30SAPC   H2X 3991   3.750   2.821   6.568  1.7074  0.1771  0.9726
   30SAPC   H2Y 3992   3.850   2.682   6.545  1.3856  2.9542  1.0458
   30SAPC   C23 3993   3.250   2.470   6.858 -0.1199  0.5512  0.0344
   30SAPC   H3R 3994   3.306   2.384   6.901 -0.3503  0.2275 -0.3064
   30SAPC   H3S 3995   3.158   2.425   6.813 -0.5860  0.1494  1.3586
   30SAPC   C24 3996   3.215   2.579   6.961 -0.2958  0.5666  0.1490
   30SAPC   H4R 3997   3.199   2.679   6.913 -1.5072 -1.2397 -3.4030
   30SAPC   H4S 3998   3.317   2.586   7.003  0.3145 -0.2394 -1.1538
   30SAPC   C25 3999   3.107   2.530   7.061  0.5348  0.0319  0.0056
   30SAPC   H5R 4000   3.012   2.491   7.022  0.9102 -1.0043  0.1120
   30SAPC   C26 4001   3.122   2.511   7.192  0.7006 -0.4023 -0.4087
   30SAPC   H6R 4002   3.042   2.471   7.256  0.7117  0.7214  0.3393
   30SAPC   C27 4003   3.249   2.540   7.276  0.3051  0.0203 -0.5974
   30SAPC   H7R 4004   3.329   2.510   7.205  0.7161 -1.7323  0.5517
   30SAPC   H7S 4005   3.262   2.458   7.350  0.2028  1.5204  1.1143
   30SAPC   C28 4006   3.274   2.678   7.327  0.2496 -0.1769 -0.0802
   30SAPC   H8R 4007   3.316   2.745   7.251  1.5621 -0.3437  0.4846
   30SAPC   C29 4008   3.240   2.718   7.451  0.6955  0.5178 -0.0145
   30SAPC   H9R 4009   3.267   2.823   7.471  1.3474  0.4869 -0.6863
   30SAPC  C210 4010   3.177   2.648   7.563 -0.2113  0.1076 -0.3294
   30SAPC  H10R 4011   3.153   2.543   7.535 -1.8439  0.7576 -1.5052
   30SAPC  H10S 4012   3.079   2.696   7.584  0.1613  0.5660  0.3755
   30SAPC  C211 4013   3.263   2.628   7.685  0.3645 -0.0650 -0.0333
   30SAPC  H11R 4014   3.370   2.605   7.675  0.2769 -0.3556 -0.3055
   30SAPC  C212 4015   3.232   2.663   7.810 -0.0321 -0.2457 -0.5415
   30SAPC  H12R 4016   3.318   2.656   7.879  0.2494 -2.5686 -1.0664
   30SAPC  C213 4017   3.103   2.735   7.842 -0.4521 -0.3895 -0.2734
   30SAPC  H13R 4018   3.021   2.706   7.772 -0.0786 -3.7077  0.5657
   30SAPC  H13S 4019   3.113   2.843   7.821 -0.9018 -0.4990 -1.0694
   30SAPC  C214 4020   3.074   2.717   7.988  0.6302  0.2779 -0.4500
   30SAPC  H14R 4021   3.019   2.624   8.006  3.5930 -0.9752  2.8228
   30SAPC  C215 4022   3.108   2.790   8.101 -0.1136 -0.4586 -0.1449
   30SAPC  H15R 4023   3.069   2.751   8.196  0.7116  0.2247  0.4870
   30SAPC  C216 4024   3.187   2.923   8.109 -0.1817  0.9816 -0.0450
   30SAPC  H16R 4025   3.204   2.956   8.004  0.0163  1.4487  0.1336
   30SAPC  H16S 4026   3.287   2.897   8.149 -0.4570  0.5453  0.3675
   30SAPC  C217 4027   3.114   3.034   8.189  0.5969 -0.0606 -0.2310
   30SAPC  H17R 4028   3.065   3.002   8.283 -1.9262 -2.0757 -2.1708
   30SAPC  H17S 4029   3.038   3.069   8.117  0.3888 -0.2847 -0.1207
   30SAPC  C218 4030   3.210   3.155   8.212 -0.3633 -0.5371  0.1216
   30SAPC  H18R 4031   3.156   3.252   8.211  2.8018  1.2979 -0.6381
   30SAPC  H18S 4032   3.275   3.166   8.123  0.5674 -4.4025  0.2282
   30SAPC  C219 4033   3.308   3.131   8.337 -0.1146 -0.3082 -0.3030
   30SAPC  H19R 4034   3.383   3.056   8.306 -0.7932 -0.2161 -2.2416
   30SAPC  H19S 4035   3.256   3.088   8.425  0.2922 -1.3046 -0.5452
   30SAPC  C220 4036   3.393   3.250   8.373  0.4504  0.3034 -0.1527
   30SAPC  H20R 4037   3.470   3.237   8.452  0.0412 -2.8072 -0.1885
   30SAPC  H20S 4038   3.336   3.344   8.390  0.3072  0.0274  0.9565
   30SAPC  H20T 4039   3.454   3.289   8.289  0.4667  1.0122  0.1803
   30SAPC   C33 4040   3.721   2.666   6.727 -0.4646 -0.6281 -0.1155
   30SAPC   H3X 4041   3.756   2.563   6.750  0.7827 -0.4302 -1.1160
   30SAPC   H3Y 4042   3.612   2.674   6.751 -0.2491  0.0157  0.6692
   30SAPC   C34 4043   3.801   2.755   6.824 -0.1810  0.5077  0.6134
   30SAPC   H4X 4044   3.765   2.860   6.819 -0.5470  0.3234 -0.6266
   30SAPC   H4Y 4045   3.909   2.755   6.799 -0.2544  2.0220  0.2289
   30SAPC   C35 4046   3.798   2.702   6.964  0.4766 -0.5006  0.2599
   30SAPC   H5X 4047   3.851   2.605   6.970  0.8745 -0.3400 -0.6666
   30SAPC   H5Y 4048   3.690   2.692   6.988  0.4200 -1.7659 -0.4710
   30SAPC   C36 4049   3.868   2.806   7.048 -0.3953  0.2017 -0.0656
   30SAPC   H6X 4050   3.844   2.914   7.035 -2.6434 -0.3110 -0.4039
   30SAPC   H6Y 4051   3.975   2.795   7.022 -1.3153 -1.5374 -3.3918
   30SAPC   C37 4052   3.846   2.777   7.196  0.3485 -0.4451 -0.4335
   30SAPC   H7X 4053   3.893   2.678   7.215  1.0649 -0.3548 -1.6489
   30SAPC   H7Y 4054   3.735   2.778   7.208  0.4045  2.2647  0.1094
   30SAPC   C38 4055   3.908   2.888   7.298  0.9318 -0.0399  0.2011
   30SAPC   H8X 4056   3.856   2.985   7.286 -1.1351 -1.2365 -0.9093
   30SAPC   H8Y 4057   4.012   2.914   7.271  1.1237 -0.0545  0.9211
   30SAPC   C39 4058   3.905   2.834   7.434  0.2825  0.3001  0.0631
   30SAPC   H9X 4059   3.988   2.761   7.445  1.7904  1.9995  0.1820
   30SAPC   H9Y 4060   3.804   2.792   7.455 -0.6873  2.7187  0.4492
   30SAPC  C310 4061   3.940   2.949   7.528 -0.1701 -0.3288  0.6187
   30SAPC  H10X 4062   3.879   3.037   7.499  0.4970 -0.3286 -0.7921
   30SAPC  H10Y 4063   4.045   2.981   7.507  0.0016 -1.8687 -1.0202
   30SAPC  C311 4064   3.906   2.905   7.672 -0.0099  0.1820  0.6297
   30SAPC  H11X 4065   3.959   2.808   7.687  1.0647  0.4875 -1.0079
   30SAPC  H11Y 4066   3.798   2.885   7.685  0.1980 -1.0258  0.5722
   30SAPC  C312 4067   3.960   3.009   7.775 -0.1627 -0.6618  0.5169
   30SAPC  H12X 4068   3.880   3.083   7.796  0.8048  0.7664 -0.7476
   30SAPC  H12Y 4069   4.048   3.066   7.740 -0.1255 -0.1967  1.3687
   30SAPC  C313 4070   3.996   2.944   7.903 -0.1707  0.3861 -0.0089
   30SAPC  H13X 4071   4.075   2.868   7.889  1.2065  2.1278 -1.8346
   30SAPC  H13Y 4072   3.900   2.903   7.943 -0.5009  1.5505  0.4014
   30SAPC  C314 4073   4.050   3.042   8.005  0.8237 -0.0814  0.5356
   30SAPC  H14X 4074   4.158   3.043   7.979  0.4159 -0.9481 -1.2102
   30SAPC  H14Y 4075   4.048   3.014   8.113 -0.4950  0.6462  0.7101
   30SAPC  C315 4076   3.990   3.182   8.005  0.3945  0.6379  0.4545
   30SAPC  H15X 4077   4.011   3.231   7.907 -3.7500  2.4829  0.3812
   30SAPC  H15Y 4078   4.049   3.238   8.081 -0.4467  3.0655 -0.6151
   30SAPC  C316 4079   3.851   3.188   8.064 -0.0704  0.0039  0.5012
   30SAPC  H16X 4080   3.839   3.093   8.121  0.2407  0.8072  1.9289
   30SAPC  H16Y 4081   3.771   3.191   7.986  1.3143 -1.2306 -1.0064
   30SAPC  C317 4082   3.836   3.302   8.173  0.4588  0.2202 -0.5052
   30SAPC  H17X 4083   3.876   3.264   8.269  0.7791 -0.9020 -1.0716
   30SAPC  H17Y 4084   3.727   3.319   8.189  0.0483 -1.2618 -1.5654
   30SAPC  C318 4085   3.904   3.434   8.138 -0.4989  0.4273 -0.3620
   30SAPC  H18X 4086   3.885   3.454   8.031  0.5964  1.6493 -0.3338
   30SAPC  H18Y 4087   4.014   3.432   8.156 -0.4531  1.1683 -0.5397
   30SAPC  H18Z 4088   3.874   3.520   8.202  0.6861 -0.1066  0.9436
   31SAPC     N 4089   3.963   3.867   5.941 -0.1591  0.2153 -0.2995
   31SAPC   C12 4090   3.825   3.923   5.917  0.6337  1.0437 -0.0316
   31SAPC  H12A 4091   3.767   3.875   5.840 -0.8095  0.1549  1.5753
   31SAPC  H12B 4092   3.832   4.022   5.875 -0.1909  0.8937 -0.5381
   31SAPC   C13 4093   3.951   3.737   6.007  0.2483  0.4568 -0.3132
   31SAPC  H13A 4094   4.043   3.723   6.061  1.6554  1.9650 -2.2132
   31SAPC  H13B 4095   3.860   3.740   6.065  1.2140 -0.2916  1.2547
   31SAPC  H13C 4096   3.945   3.659   5.933 -1.9369  1.6256 -1.4123
   31SAPC   C14 4097   4.026   3.846   5.811 -0.6581 -0.3629 -0.0709
   31SAPC  H14A 4098   4.034   3.934   5.749 -1.2368 -0.6150 -0.5097
   31SAPC  H14B 4099   4.126   3.804   5.813 -1.2759 -1.8353  0.9969
   31SAPC  H14C 4100   3.959   3.777   5.761 -3.8650  2.4684  0.1716
   31SAPC   C15 4101   4.049   3.961   6.022 -0.3167 -0.0904 -0.1464
   31SAPC  H15A 4102   4.029   3.967   6.128 -3.0722  2.3070 -0.7744
   31SAPC  H15B 4103   4.155   3.946   6.007  0.0480  0.6126  1.5243
   31SAPC  H15C 4104   4.024   4.060   5.988  1.0907 -0.7249 -3.1639
   31SAPC   C11 4105   3.725   3.938   6.043 -0.7675  0.9290 -0.4920
   31SAPC  H11A 4106   3.709   3.833   6.076  1.6123  0.7768  0.3139
   31SAPC  H11B 4107   3.628   3.981   6.011 -1.4519 -0.5360 -0.3987
   31SAPC     P 4108   3.741   4.170   6.166  0.2912 -0.3030  0.4834
   31SAPC   O13 4109   3.731   4.240   6.037  0.0453  0.0572  0.1975
   31SAPC   O14 4110   3.619   4.177   6.254 -0.9275 -0.3108 -0.2282
   31SAPC   O12 4111   3.776   4.016   6.150 -0.3155 -0.2330  0.3437
   31SAPC   O11 4112   3.869   4.230   6.237 -0.4450 -0.0178  0.3443
   31SAPC    C1 4113   3.924   4.160   6.356 -0.2967 -0.5505 -0.1030
   31SAPC    HA 4114   3.858   4.088   6.409  1.2027 -1.1494  1.0015
   31SAPC    HB 4115   4.004   4.092   6.319 -1.6071 -2.3304  0.2475
   31SAPC    C2 4116   3.976   4.261   6.463  0.0585  0.0371 -0.3719
   31SAPC    HS 4117   4.082   4.288   6.441 -0.3161  1.0570 -0.9242
   31SAPC   O21 4118   3.962   4.208   6.595  0.0178  0.6836 -0.1005
   31SAPC   C21 4119   4.039   4.101   6.617  0.0406 -0.2303  0.0468
   31SAPC   O22 4120   4.124   4.053   6.543  0.5909  0.1177 -0.4405
   31SAPC   C22 4121   4.007   4.052   6.760 -0.2872 -0.4725 -0.1348
   31SAPC   H2R 4122   3.976   4.138   6.824  1.5100 -3.1643  4.6237
   31SAPC   H2S 4123   3.919   3.985   6.752 -0.5009 -0.1760 -0.2818
   31SAPC    C3 4124   3.894   4.393   6.469 -0.0964  0.6442  0.0880
   31SAPC    HX 4125   3.795   4.361   6.505 -0.0890 -0.5266 -0.8813
   31SAPC    HY 4126   3.883   4.436   6.367 -1.0434 -0.8053 -0.4345
   31SAPC   O31 4127   3.931   4.494   6.564 -0.8019 -0.3558  0.3347
   31SAPC   C31 4128   4.040   4.561   6.541 -0.6063 -0.4876 -0.5783
   31SAPC   O32 4129   4.115   4.553   6.443  0.1664 -0.8399 -0.7925
   31SAPC   C32 4130   4.072   4.640   6.671  0.6369 -0.8377  0.9414
   31SAPC   H2X 4131   3.995   4.721   6.677  0.8541 -0.4903 -0.8184
   31SAPC   H2Y 4132   4.173   4.686   6.665 -0.0163  0.6794  1.1931
   31SAPC   C23 4133   4.120   3.981   6.833  0.0801 -0.3940 -0.5700
   31SAPC   H3R 4134   4.163   3.893   6.780 -0.0582 -0.3031 -0.8353
   31SAPC   H3S 4135   4.073   3.938   6.924  1.3986  2.1735  1.4157
   31SAPC   C24 4136   4.234   4.074   6.885  0.0445 -0.0609  0.0180
   31SAPC   H4R 4137   4.197   4.168   6.931 -1.1250 -0.1410 -0.7360
   31SAPC   H4S 4138   4.291   4.112   6.797 -1.6090  1.3148 -0.4862
   31SAPC   C25 4139   4.315   3.981   6.974  0.5473 -0.4956  0.3914
   31SAPC   H5R 4140   4.385   3.917   6.919  0.6367  1.6288 -2.0582
   31SAPC   C26 4141   4.325   3.989   7.103 -0.2902 -0.5061 -0.7414
   31SAPC   H6R 4142   4.377   3.911   7.161  2.6569  0.8457 -1.4867
   31SAPC   C27 4143   4.256   4.082   7.200  0.4001 -0.4886 -0.0827
   31SAPC   H7R 4144   4.178   4.025   7.254 -1.2651  1.3834 -0.4572
   31SAPC   H7S 4145   4.184   4.150   7.150  0.3597 -0.4412  0.0375
   31SAPC   C28 4146   4.345   4.146   7.302  0.4545  0.1299 -0.3461
   31SAPC   H8R 4147   4.452   4.143   7.275  1.5055  0.6730  3.4421
   31SAPC   C29 4148   4.310   4.178   7.425  0.2968  0.0885 -0.0701
   31SAPC   H9R 4149   4.379   4.237   7.486 -1.5825  2.0470  0.2478
   31SAPC  C210 4150   4.168   4.151   7.469  0.1053 -0.2965 -0.1597
   31SAPC  H10R 4151   4.143   4.045   7.491 -1.2647  0.4004  1.7715
   31SAPC  H10S 4152   4.088   4.164   7.393 -0.1425 -2.2287 -0.2410
   31SAPC  C211 4153   4.116   4.227   7.593  0.1338 -0.5123  0.0082
   31SAPC  H11R 4154   4.065   4.324   7.577  1.0165 -0.2411 -1.1978
   31SAPC  C212 4155   4.149   4.191   7.717  0.0671 -0.2384 -0.2826
   31SAPC  H12R 4156   4.087   4.243   7.791 -2.0903 -1.0155 -1.5019
   31SAPC  C213 4157   4.243   4.089   7.766  0.2559  0.8824 -0.4860
   31SAPC  H13R 4158   4.245   4.010   7.688  2.5089  1.3100 -0.9115
   31SAPC  H13S 4159   4.196   4.040   7.854 -0.9260  1.2293 -0.9136
   31SAPC  C214 4160   4.380   4.152   7.790 -0.3187 -0.1863 -0.1089
   31SAPC  H14R 4161   4.403   4.214   7.702 -3.4297  0.6285 -0.4091
   31SAPC  C215 4162   4.463   4.145   7.895 -0.4357  0.1316  0.5893
   31SAPC  H15R 4163   4.556   4.204   7.891 -0.2066 -0.2149  0.7927
   31SAPC  C216 4164   4.436   4.060   8.021  0.4101  0.2923  0.0155
   31SAPC  H16R 4165   4.383   3.967   7.991  0.7905 -0.5569  1.8996
   31SAPC  H16S 4166   4.368   4.120   8.086  0.1632 -0.4582  0.4503
   31SAPC  C217 4167   4.557   4.047   8.108  0.5120 -0.2312 -0.2129
   31SAPC  H17R 4168   4.539   3.986   8.199 -0.1487  1.1172  0.5567
   31SAPC  H17S 4169   4.591   4.147   8.141 -2.3749  0.5497  0.4999
   31SAPC  C218 4170   4.670   3.974   8.031  0.1015  0.4059 -0.7725
   31SAPC  H18R 4171   4.689   4.026   7.935 -0.6295 -0.3045 -1.3124
   31SAPC  H18S 4172   4.638   3.871   8.004  0.6793  0.1744 -0.6059
   31SAPC  C219 4173   4.802   3.951   8.106 -0.2533  0.3432  0.4188
   31SAPC  H19R 4174   4.842   4.044   8.150 -0.7022  0.5609  0.3590
   31SAPC  H19S 4175   4.874   3.920   8.027 -1.5172  0.3398 -0.7527
   31SAPC  C220 4176   4.795   3.849   8.217 -0.1285 -0.4976  0.6553
   31SAPC  H20R 4177   4.731   3.765   8.182  0.4601  0.5122 -3.0229
   31SAPC  H20S 4178   4.763   3.892   8.314 -0.9154  1.3635 -0.4300
   31SAPC  H20T 4179   4.897   3.807   8.236 -0.2858 -1.8847 -1.2986
   31SAPC   C33 4180   4.043   4.555   6.796  0.1024 -0.6100 -0.2975
   31SAPC   H3X 4181   3.946   4.501   6.800 -1.6971  2.5865  0.3046
   31SAPC   H3Y 4182   4.054   4.629   6.878 -0.4228  0.3767 -1.1169
   31SAPC   C34 4183   4.150   4.452   6.831 -0.2637  0.3118  0.0237
   31SAPC   H4X 4184   4.252   4.478   6.795  0.5637 -1.1468  1.2675
   31SAPC   H4Y 4185   4.126   4.359   6.775  0.6594  0.2919 -0.3538
   31SAPC   C35 4186   4.160   4.433   6.980  0.1295  0.4920  0.0943
   31SAPC   H5X 4187   4.227   4.349   7.009 -2.7267 -1.7945  0.2796
   31SAPC   H5Y 4188   4.062   4.396   7.016  1.5119 -1.9601  1.5351
   31SAPC   C36 4189   4.200   4.552   7.076  0.7054 -0.1170 -0.4171
   31SAPC   H6X 4190   4.120   4.629   7.083  0.0229 -0.8847  0.3478
   31SAPC   H6Y 4191   4.299   4.598   7.057  0.2521  0.5041 -1.3646
   31SAPC   C37 4192   4.197   4.514   7.227  0.5047 -0.9653 -0.1288
   31SAPC   H7X 4193   4.259   4.422   7.240 -2.0509 -2.7854 -0.4055
   31SAPC   H7Y 4194   4.093   4.493   7.259  0.7299 -0.8305  0.6993
   31SAPC   C38 4195   4.241   4.631   7.315  0.0492 -0.1402  0.2279
   31SAPC   H8X 4196   4.164   4.710   7.308 -0.2499 -0.3359  1.2686
   31SAPC   H8Y 4197   4.331   4.681   7.273 -0.3100  0.3971  0.1020
   31SAPC   C39 4198   4.276   4.595   7.462 -0.2643 -0.1986  0.9267
   31SAPC   H9X 4199   4.365   4.529   7.466  1.3556  1.9669  2.0165
   31SAPC   H9Y 4200   4.186   4.540   7.496 -0.4283  0.4737  1.6061
   31SAPC  C310 4201   4.292   4.722   7.546  0.0667 -0.4462 -0.4976
   31SAPC  H10X 4202   4.190   4.767   7.543  0.3124  0.2621  1.3312
   31SAPC  H10Y 4203   4.364   4.798   7.509  0.3442  0.3246  1.5574
   31SAPC  C311 4204   4.320   4.688   7.693  0.8025 -0.1410  0.0558
   31SAPC  H11X 4205   4.351   4.772   7.759  1.8982  0.3170 -1.0230
   31SAPC  H11Y 4206   4.404   4.615   7.696  0.5072 -0.4868 -0.0657
   31SAPC  C312 4207   4.214   4.607   7.775 -0.7521  0.6169 -0.4323
   31SAPC  H12X 4208   4.179   4.518   7.720 -1.0667  0.9525 -0.7772
   31SAPC  H12Y 4209   4.123   4.666   7.799 -0.9104  0.4310 -0.5808
   31SAPC  C313 4210   4.285   4.580   7.903  0.9519  0.4913  0.2614
   31SAPC  H13X 4211   4.298   4.673   7.961  1.0185  0.8568 -0.3397
   31SAPC  H13Y 4212   4.380   4.532   7.871  0.7742 -0.2935  0.8802
   31SAPC  C314 4213   4.199   4.489   8.002  0.0717 -0.0948  0.3996
   31SAPC  H14X 4214   4.169   4.400   7.943 -0.7947  2.2147 -2.7844
   31SAPC  H14Y 4215   4.103   4.543   8.007 -0.3563 -0.4472 -3.0317
   31SAPC  C315 4216   4.263   4.461   8.140 -0.6379 -0.4098  0.2203
   31SAPC  H15X 4217   4.314   4.555   8.169 -0.1486 -0.5511 -0.1714
   31SAPC  H15Y 4218   4.346   4.389   8.125 -0.7089 -0.6282  0.8720
   31SAPC  C316 4219   4.164   4.416   8.246 -0.0577 -0.0272 -0.3812
   31SAPC  H16X 4220   4.114   4.323   8.211 -0.8451 -0.4643  1.7779
   31SAPC  H16Y 4221   4.081   4.490   8.240 -1.5453 -1.7013 -1.0858
   31SAPC  C317 4222   4.204   4.406   8.395  0.1262 -0.1845  0.1225
   31SAPC  H17X 4223   4.232   4.506   8.435 -2.1134  0.1202  0.9561
   31SAPC  H17Y 4224   4.301   4.351   8.395  0.6915  0.7371  1.8936
   31SAPC  C318 4225   4.106   4.323   8.473  0.2576 -1.1815 -0.0412
   31SAPC  H18X 4226   4.154   4.287   8.566  0.2934 -0.8841  0.0548
   31SAPC  H18Y 4227   4.065   4.236   8.416 -0.7684 -0.8727  0.2090
   31SAPC  H18Z 4228   4.020   4.386   8.505 -0.2007 -2.3750  1.1124
   32SAPC     N 4229   6.690   5.019   6.328 -0.4295  0.3661  0.2434
   32SAPC   C12 4230   6.571   4.965   6.242 -0.0474 -0.0143  0.1699
   32SAPC  H12A 4231   6.604   4.877   6.190  1.3096 -0.8927  2.4377
   32SAPC  H12B 4232   6.559   5.033   6.159 -0.1095 -2.8156 -2.1795
   32SAPC   C13 4233   6.812   5.054   6.250  0.1535 -0.2099  0.0119
   32SAPC  H13A 4234   6.821   4.980   6.171 -2.1520 -0.7028  0.1735
   32SAPC  H13B 4235   6.797   5.150   6.202 -0.4390  0.2909  1.1674
   32SAPC  H13C 4236   6.894   5.054   6.320  1.2177  1.6572 -1.1901
   32SAPC   C14 4237   6.658   5.149   6.402 -0.0663 -0.7426  0.0521
   32SAPC  H14A 4238   6.732   5.172   6.478 -0.9847  0.2844  0.6572
   32SAPC  H14B 4239   6.647   5.238   6.341 -0.7100 -0.6446  0.3104
   32SAPC  H14C 4240   6.567   5.139   6.460  0.3992 -1.8642  0.5909
   32SAPC   C15 4241   6.720   4.930   6.443 -0.9076 -0.5343 -0.1071
   32SAPC  H15A 4242   6.755   4.836   6.403  1.3676 -0.3255  1.3368
   32SAPC  H15B 4243   6.804   4.976   6.492 -1.1002  1.6032 -1.7003
   32SAPC  H15C 4244   6.627   4.913   6.495 -1.9805  2.6482 -0.8450
   32SAPC   C11 4245   6.438   4.933   6.322 -0.2464 -0.3392 -0.0007
   32SAPC  H11A 4246   6.353   4.938   6.251 -0.7792  2.1738  0.7524
   32SAPC  H11B 4247   6.411   5.019   6.388 -2.7443 -0.7573 -0.4472
   32SAPC     P 4248   6.391   4.669   6.341 -0.0402 -0.1957  0.1690
   32SAPC   O13 4249   6.282   4.696   6.245 -0.5864  0.0733  0.8816
   32SAPC   O14 4250   6.509   4.592   6.294  0.1917  0.4194 -0.3303
   32SAPC   O12 4251   6.432   4.806   6.398  0.6003  0.0236 -0.0827
   32SAPC   O11 4252   6.322   4.608   6.465  0.4666  0.0348 -0.5921
   32SAPC    C1 4253   6.392   4.554   6.578 -0.5821  0.0127 -0.4628
   32SAPC    HA 4254   6.326   4.480   6.628  0.4153 -1.0966 -0.7579
   32SAPC    HB 4255   6.484   4.503   6.543  0.3973  2.3631 -1.3614
   32SAPC    C2 4256   6.430   4.676   6.675  0.0333  0.4549  0.0501
   32SAPC    HS 4257   6.503   4.736   6.616  1.0267 -0.0398  0.7659
   32SAPC   O21 4258   6.480   4.617   6.797  0.4752  0.1237  0.2889
   32SAPC   C21 4259   6.606   4.588   6.801 -0.9173 -0.2837 -1.1920
   32SAPC   O22 4260   6.690   4.614   6.715  0.4701 -0.1460  0.5166
   32SAPC   C22 4261   6.635   4.503   6.929  0.3096  0.7837  0.1129
   32SAPC   H2R 4262   6.745   4.493   6.933  0.2475  0.6444  1.8172
   32SAPC   H2S 4263   6.591   4.563   7.012 -1.3001 -0.6357  0.3126
   32SAPC    C3 4264   6.310   4.764   6.702 -0.0928 -0.2043  0.2821
   32SAPC    HX 4265   6.279   4.808   6.605 -0.2059 -0.2526  0.2963
   32SAPC    HY 4266   6.338   4.841   6.776 -0.5092  2.0188 -1.8177
   32SAPC   O31 4267   6.195   4.684   6.746 -0.4354 -0.2037 -0.3892
   32SAPC   C31 4268   6.092   4.764   6.775  0.0029  0.2908  0.0859
   32SAPC   O32 4269   6.096   4.886   6.774  0.2167 -0.3859 -0.4624
   32SAPC   C32 4270   5.965   4.690   6.805 -0.6357 -1.1985 -0.3153
   32SAPC   H2X 4271   5.972   4.590   6.756 -3.8746 -0.7777 -1.7504
   32SAPC   H2Y 4272   5.887   4.742   6.746 -2.3177  0.5511  3.3207
   32SAPC   C23 4273   6.576   4.365   6.905 -0.0068 -0.4397 -0.3797
   32SAPC   H3R 4274   6.605   4.335   6.802  0.8569 -0.3380 -0.1654
   32SAPC   H3S 4275   6.467   4.380   6.893  0.0501 -1.2801 -2.1304
   32SAPC   C24 4276   6.598   4.256   7.009  0.0812  0.0698 -0.2577
   32SAPC   H4R 4277   6.530   4.170   6.989  1.6820 -1.1074 -0.7729
   32SAPC   H4S 4278   6.575   4.290   7.113 -0.5407  0.0041 -0.3714
   32SAPC   C25 4279   6.747   4.224   6.996  0.9796 -0.0860  0.2369
   32SAPC   H5R 4280   6.811   4.272   6.920 -1.3671 -1.3110 -2.5983
   32SAPC   C26 4281   6.813   4.149   7.087 -0.5480 -0.4635  0.2663
   32SAPC   H6R 4282   6.922   4.145   7.069  0.0883  1.5592  3.3473
   32SAPC   C27 4283   6.756   4.086   7.208 -0.1194 -1.0963  0.1581
   32SAPC   H7R 4284   6.749   3.975   7.199  0.5832 -1.1623  0.3713
   32SAPC   H7S 4285   6.656   4.129   7.231 -0.9513 -2.3852 -0.9817
   32SAPC   C28 4286   6.849   4.127   7.327 -0.5223  0.4241  0.4222
   32SAPC   H8R 4287   6.853   4.235   7.344  0.4253  0.5940 -0.7869
   32SAPC   C29 4288   6.898   4.053   7.424  0.1957  0.5133 -0.0989
   32SAPC   H9R 4289   6.949   4.104   7.508 -0.5304  0.2140  0.5386
   32SAPC  C210 4290   6.879   3.906   7.446 -0.1256 -0.4462  0.2739
   32SAPC  H10R 4291   6.952   3.834   7.402  1.7889  1.8454 -0.3945
   32SAPC  H10S 4292   6.782   3.870   7.404 -2.5445  2.2884  3.2868
   32SAPC  C211 4293   6.878   3.875   7.593 -0.2647  0.9131 -0.2390
   32SAPC  H11R 4294   6.979   3.878   7.636 -0.1922  0.1248 -0.3476
   32SAPC  C212 4295   6.780   3.842   7.675 -0.5892  0.3983 -0.2796
   32SAPC  H12R 4296   6.813   3.811   7.776  2.0855  0.5215 -1.0793
   32SAPC  C213 4297   6.636   3.834   7.646 -0.6470 -0.3385 -0.1188
   32SAPC  H13R 4298   6.624   3.782   7.549 -0.0320 -0.5466 -0.0852
   32SAPC  H13S 4299   6.611   3.939   7.619  0.7312  0.6326  2.1401
   32SAPC  C214 4300   6.535   3.778   7.745 -0.6149 -0.0525 -0.1158
   32SAPC  H14R 4301   6.494   3.681   7.713  1.1270 -0.7768 -0.1894
   32SAPC  C215 4302   6.504   3.830   7.863  0.0166 -0.0315  0.2399
   32SAPC  H15R 4303   6.428   3.780   7.925  2.9333  1.4306  5.2939
   32SAPC  C216 4304   6.565   3.960   7.909 -1.1057  0.4781 -0.1481
   32SAPC  H16R 4305   6.477   4.017   7.945 -0.2272  0.9998  1.2323
   32SAPC  H16S 4306   6.616   4.020   7.830 -0.9610  0.6872  0.1035
   32SAPC  C217 4307   6.676   3.947   8.012 -0.2309 -0.5697 -0.5233
   32SAPC  H17R 4308   6.709   4.046   8.048 -0.5067 -0.9710  0.8642
   32SAPC  H17S 4309   6.767   3.904   7.964  1.2972  1.5145  0.4459
   32SAPC  C218 4310   6.634   3.878   8.147 -0.3387  0.2786  0.0565
   32SAPC  H18R 4311   6.724   3.878   8.212 -0.7680  0.0385  0.6453
   32SAPC  H18S 4312   6.617   3.772   8.122 -1.8796  0.4644  0.2819
   32SAPC  C219 4313   6.517   3.934   8.230  0.1074 -1.2446 -0.0593
   32SAPC  H19R 4314   6.417   3.912   8.186 -0.0887 -0.3887 -0.0486
   32SAPC  H19S 4315   6.526   4.041   8.258  0.7658 -1.1112 -0.7868
   32SAPC  C220 4316   6.515   3.859   8.363 -0.1729 -0.6267 -0.7491
   32SAPC  H20R 4317   6.439   3.900   8.433  1.3654  0.9905  0.0080
   32SAPC  H20S 4318   6.614   3.865   8.413 -1.2001  0.0811  1.2877
   32SAPC  H20T 4319   6.491   3.752   8.349 -1.2484 -0.6806  1.2642
   32SAPC   C33 4320   5.942   4.678   6.958  0.3812  0.8671  0.2365
   32SAPC   H3X 4321   5.838   4.640   6.968  0.0976  1.5008 -0.2942
   32SAPC   H3Y 4322   5.947   4.782   6.996  1.1068  1.2719 -0.9202
   32SAPC   C34 4323   6.041   4.588   7.030 -0.5344 -0.0849 -0.3450
   32SAPC   H4X 4324   6.145   4.620   7.010 -0.1673 -0.7050  0.5344
   32SAPC   H4Y 4325   6.031   4.492   6.976 -0.5645 -1.1694  1.5209
   32SAPC   C35 4326   6.014   4.568   7.184  0.0224  0.0991  0.3182
   32SAPC   H5X 4327   6.073   4.480   7.214 -1.1069 -0.8186 -0.1238
   32SAPC   H5Y 4328   5.908   4.540   7.201 -0.0741  0.1828 -0.1291
   32SAPC   C36 4329   6.044   4.701   7.259 -0.4823  0.2964 -0.0187
   32SAPC   H6X 4330   5.966   4.773   7.229 -2.0549 -1.7555 -0.9552
   32SAPC   H6Y 4331   6.135   4.751   7.221 -0.4678 -1.1059 -1.9173
   32SAPC   C37 4332   6.049   4.693   7.410  0.5943 -1.4080  0.0215
   32SAPC   H7X 4333   6.144   4.643   7.442  0.1771  0.3541  4.3696
   32SAPC   H7Y 4334   5.965   4.629   7.445  2.3678 -1.5657  4.3229
   32SAPC   C38 4335   6.041   4.832   7.468  0.4858 -0.4152  0.2212
   32SAPC   H8X 4336   5.956   4.890   7.426  1.0283 -0.4137 -0.8901
   32SAPC   H8Y 4337   6.140   4.881   7.451  0.2033 -0.5836 -2.0299
   32SAPC   C39 4338   6.021   4.843   7.622  0.0006 -0.0078 -0.1135
   32SAPC   H9X 4339   5.913   4.824   7.645  0.0614  0.7667  0.7999
   32SAPC   H9Y 4340   6.027   4.952   7.643  1.3395 -0.3513  1.3831
   32SAPC  C310 4341   6.114   4.753   7.712 -0.2770  0.1315  0.5431
   32SAPC  H10X 4342   6.219   4.786   7.695 -0.2019  0.2095  1.1791
   32SAPC  H10Y 4343   6.107   4.647   7.681  0.6469  0.9622 -2.7292
   32SAPC  C311 4344   6.073   4.759   7.861 -0.1270 -0.1066 -0.0939
   32SAPC  H11X 4345   6.112   4.669   7.914  1.0388 -0.3797 -1.3775
   32SAPC  H11Y 4346   5.962   4.758   7.862 -0.1209 -0.6327  0.9908
   32SAPC  C312 4347   6.126   4.886   7.936  0.1897  0.3701 -0.2570
   32SAPC  H12X 4348   6.070   4.975   7.899 -0.6777 -0.0089  0.1424
   32SAPC  H12Y 4349   6.233   4.904   7.911  0.0863  0.9302 -0.3220
   32SAPC  C313 4350   6.109   4.872   8.088  0.2340 -0.0923  0.1994
   32SAPC  H13X 4351   6.121   4.976   8.126 -0.0771 -0.1531  0.4661
   32SAPC  H13Y 4352   6.196   4.812   8.125  0.2829 -0.7918 -1.0447
   32SAPC  C314 4353   5.969   4.834   8.141  0.3237  0.1188 -0.5484
   32SAPC  H14X 4354   5.933   4.739   8.097  2.6386 -1.5242  0.9851
   32SAPC  H14Y 4355   5.898   4.918   8.124  1.4453  0.8473 -1.7769
   32SAPC  C315 4356   5.972   4.818   8.297 -0.0183  0.4037  0.7698
   32SAPC  H15X 4357   5.866   4.806   8.329 -0.6388  0.2021 -1.2557
   32SAPC  H15Y 4358   6.019   4.907   8.344  2.1728  1.1732 -2.7581
   32SAPC  C316 4359   6.036   4.687   8.345  0.0187 -0.1930 -0.2967
   32SAPC  H16X 4360   6.141   4.674   8.310 -0.5800 -1.9634 -1.5375
   32SAPC  H16Y 4361   5.981   4.609   8.287 -0.6182  0.7590 -0.9837
   32SAPC  C317 4362   6.026   4.670   8.504 -0.8448  0.1897 -0.0604
   32SAPC  H17X 4363   5.918   4.695   8.515 -0.7186  0.4461  0.5799
   32SAPC  H17Y 4364   6.083   4.741   8.567 -2.1028 -0.4416  1.8198
   32SAPC  C318 4365   6.052   4.530   8.544 -0.4750 -0.4727  0.3578
   32SAPC  H18X 4366   5.994   4.452   8.492  1.5526 -0.7216 -1.5940
   32SAPC  H18Y 4367   6.031   4.534   8.653 -1.0679  2.5722  0.1674
   32SAPC  H18Z 4368   6.160   4.503   8.537 -0.3206  0.5577 -1.4813
   33POPC     N 4369   3.045   5.735  10.999 -0.7609  0.1201 -0.0885
   33POPC   C12 4370   3.018   5.822  10.867 -0.6604  0.7899  0.2944
   33POPC  H12A 4371   3.076   5.911  10.888 -1.8724  1.5092  0.6486
   33POPC  H12B 4372   2.912   5.842  10.873 -1.0488 -1.4298  1.1750
   33POPC   C13 4373   2.992   5.594  10.979  1.0561  0.1228 -0.0071
   33POPC  H13A 4374   2.885   5.589  10.971  1.2866 -1.3185 -3.2715
   33POPC  H13B 4375   3.037   5.543  10.894  1.5272 -0.5646  0.6503
   33POPC  H13C 4376   3.033   5.539  11.063 -0.3116 -3.5702 -1.6418
   33POPC   C14 4377   3.195   5.732  11.011  0.3337  0.6772  0.4675
   33POPC  H14A 4378   3.226   5.635  11.046 -0.0240 -0.6895 -2.8304
   33POPC  H14B 4379   3.233   5.733  10.910  1.4052 -0.5193  0.8529
   33POPC  H14C 4380   3.248   5.801  11.075  0.1360 -1.6115  3.2162
   33POPC   C15 4381   2.986   5.808  11.121  0.4258 -0.5114 -0.4635
   33POPC  H15A 4382   2.891   5.852  11.095  0.0144 -0.1481  1.5457
   33POPC  H15B 4383   3.051   5.885  11.162 -1.1382  1.4423 -1.5783
   33POPC  H15C 4384   2.962   5.732  11.194  0.4248 -0.9306 -0.9036
   33POPC   C11 4385   3.056   5.754  10.729  0.6291 -0.4735 -0.0507
   33POPC  H11A 4386   2.997   5.811  10.654  3.6760  2.2188 -0.4828
   33POPC  H11B 4387   3.010   5.653  10.724 -2.2377  0.8154 -0.7630
   33POPC     P 4388   3.270   5.863  10.634  0.0806  0.2998  0.1868
   33POPC   O13 4389   3.417   5.840  10.639  0.5612 -0.0372 -0.4094
   33POPC   O14 4390   3.228   5.996  10.674 -0.0503  0.4486  0.3125
   33POPC   O12 4391   3.194   5.749  10.709  0.0640  0.0161  0.3087
   33POPC   O11 4392   3.221   5.843  10.481  0.4357 -0.4633 -0.0446
   33POPC    C1 4393   3.211   5.707  10.441 -0.2661 -0.5420  0.2552
   33POPC    HA 4394   3.303   5.645  10.446 -0.1364 -0.3859 -0.2074
   33POPC    HB 4395   3.125   5.665  10.498 -0.7556  1.9828  1.4356
   33POPC    C2 4396   3.178   5.675  10.290  0.0955  0.1192 -1.6467
   33POPC    HS 4397   3.184   5.565  10.279  0.8679 -0.5698  3.9083
   33POPC   O21 4398   3.288   5.734  10.215 -0.0356  0.3665 -0.3415
   33POPC   C21 4399   3.371   5.656  10.146 -0.1359  0.5074  0.2419
   33POPC   O22 4400   3.405   5.543  10.179 -0.0239 -0.3709  0.0739
   33POPC   C22 4401   3.426   5.734  10.027  0.2112  0.2105 -1.2216
   33POPC   H2R 4402   3.534   5.759  10.039  0.3132 -0.7867  0.1108
   33POPC   H2S 4403   3.365   5.827  10.029  2.0948  1.4563 -0.5804
   33POPC    C3 4404   3.051   5.738  10.242 -0.1219 -0.6206 -0.2291
   33POPC    HX 4405   3.060   5.843  10.275 -0.1654 -0.9693  0.9350
   33POPC    HY 4406   2.955   5.707  10.289 -0.7868  1.3327 -0.2483
   33POPC   O31 4407   3.026   5.720  10.104 -0.4654 -0.2486  0.1829
   33POPC   C31 4408   2.992   5.830  10.032 -0.3735  0.3805  0.8085
   33POPC   O32 4409   2.957   5.939  10.083 -0.0197  0.2756  0.2218
   33POPC   C32 4410   2.995   5.806   9.889  0.5607 -0.6809  0.8405
   33POPC   H2X 4411   2.895   5.772   9.856  0.6476 -1.2354  1.1413
   33POPC   H2Y 4412   3.063   5.720   9.869  0.0241 -1.0730  0.6824
   33POPC   C23 4413   3.404   5.656   9.888 -0.0959 -0.0478 -0.2892
   33POPC   H3R 4414   3.375   5.732   9.813  2.1925  0.4810 -0.6600
   33POPC   H3S 4415   3.327   5.576   9.901 -0.4138  0.3756  0.4386
   33POPC   C24 4416   3.541   5.599   9.835  0.3698  0.0489  0.1016
   33POPC   H4R 4417   3.567   5.513   9.901  0.6191 -0.5556 -0.7674
   33POPC   H4S 4418   3.614   5.681   9.855  0.8293 -0.1312 -0.8096
   33POPC   C25 4419   3.540   5.555   9.691  0.0942  0.2588  0.7611
   33POPC   H5R 4420   3.503   5.646   9.638  0.5296  0.7115  1.2224
   33POPC   H5S 4421   3.466   5.473   9.694  1.3790 -0.8732  2.7782
   33POPC   C26 4422   3.673   5.516   9.639 -0.0483  0.5912  0.1336
   33POPC   H6R 4423   3.722   5.454   9.717  0.5041  3.7064  2.3738
   33POPC   H6S 4424   3.735   5.607   9.625 -0.0629  0.3141 -1.7922
   33POPC   C27 4425   3.667   5.439   9.505  0.2172  0.6073  0.2563
   33POPC   H7R 4426   3.590   5.361   9.520  1.8655 -0.9031  0.9350
   33POPC   H7S 4427   3.765   5.395   9.477  0.2447  1.2025 -0.6250
   33POPC   C28 4428   3.623   5.534   9.394  0.4473 -0.1082  0.4172
   33POPC   H8R 4429   3.688   5.624   9.399  1.2661 -0.6094 -0.9397
   33POPC   H8S 4430   3.516   5.563   9.406  0.2759 -0.8382  0.6833
   33POPC   C29 4431   3.631   5.454   9.265 -0.0241 -0.0258  0.3330
   33POPC   H91 4432   3.590   5.352   9.267 -0.3665  0.0776 -1.1422
   33POPC  C210 4433   3.709   5.482   9.158 -0.1433 -0.1964 -0.0546
   33POPC  H101 4434   3.719   5.402   9.083 -3.3188 -1.9950  1.3488
   33POPC  C211 4435   3.796   5.607   9.143  0.2374 -0.3037  0.0687
   33POPC  H11R 4436   3.881   5.600   9.214 -0.9054 -1.2212  1.4041
   33POPC  H11S 4437   3.747   5.698   9.184  3.0001  0.9493  0.7009
   33POPC  C212 4438   3.834   5.620   8.996 -0.0272 -0.7106  0.2681
   33POPC  H12R 4439   3.876   5.523   8.962 -0.1553  0.0486 -2.1841
   33POPC  H12S 4440   3.912   5.699   8.985 -1.7098  1.2992  2.2080
   33POPC  C213 4441   3.718   5.661   8.904 -0.1349 -0.0520 -0.8781
   33POPC  H13R 4442   3.704   5.771   8.911 -2.0144 -0.3579  0.6965
   33POPC  H13S 4443   3.621   5.615   8.931 -0.9363  0.9361 -1.9977
   33POPC  C214 4444   3.743   5.622   8.756 -0.2225  0.0065  0.5439
   33POPC  H14R 4445   3.643   5.633   8.709  0.4476  0.4189 -0.8005
   33POPC  H14S 4446   3.777   5.517   8.761  1.3535  0.3855 -1.4601
   33POPC  C215 4447   3.863   5.696   8.689 -0.1827 -0.2824  0.5073
   33POPC  H15R 4448   3.960   5.696   8.745  0.3823 -0.9971 -0.4531
   33POPC  H15S 4449   3.828   5.800   8.678 -3.1638 -1.1739  1.2751
   33POPC  C216 4450   3.902   5.634   8.560 -0.3278 -0.3891 -0.1493
   33POPC  H16R 4451   3.827   5.649   8.479  1.3276 -0.6815 -1.7730
   33POPC  H16S 4452   3.920   5.525   8.570  1.2810 -0.1540 -0.2891
   33POPC  C217 4453   4.034   5.693   8.502  0.1018 -0.5987  0.3287
   33POPC  H17R 4454   4.119   5.674   8.571  0.1418  1.3910  0.8724
   33POPC  H17S 4455   4.006   5.799   8.482 -1.8142 -0.6622  2.4927
   33POPC  C218 4456   4.059   5.620   8.365  0.3363  0.9178 -0.4894
   33POPC  H18R 4457   4.169   5.616   8.350  0.1470  0.6271 -1.8984
   33POPC  H18S 4458   4.001   5.641   8.273  4.5058 -0.3125 -3.5464
   33POPC  H18T 4459   4.032   5.513   8.377  2.2460  0.2127 -2.1495
   33POPC   C33 4460   3.033   5.929   9.796  0.3456  0.2407 -0.4565
   33POPC   H3X 4461   3.110   5.990   9.848  1.1776 -1.2893  0.1442
   33POPC   H3Y 4462   2.942   5.992   9.790  2.1808  3.0385 -0.2498
   33POPC   C34 4463   3.085   5.896   9.662  0.4663  0.9060  0.3711
   33POPC   H4X 4464   3.193   5.870   9.666  0.3862  0.7102  1.3747
   33POPC   H4Y 4465   3.091   5.988   9.599  0.1482  0.8061  0.1942
   33POPC   C35 4466   3.004   5.787   9.581 -0.0358 -0.3686 -0.0282
   33POPC   H5X 4467   2.895   5.806   9.579 -0.0032  0.2562  2.7173
   33POPC   H5Y 4468   3.024   5.685   9.621 -2.8142 -1.1056 -0.3915
   33POPC   C36 4469   3.053   5.777   9.432 -0.6329  0.2645 -0.6655
   33POPC   H6X 4470   3.010   5.865   9.379 -0.2473 -0.0463 -1.5020
   33POPC   H6Y 4471   3.005   5.688   9.386 -0.6437 -0.7026  1.1386
   33POPC   C37 4472   3.203   5.758   9.411 -0.4333 -0.0909 -0.2588
   33POPC   H7X 4473   3.244   5.695   9.492  0.2545  2.6597  1.6278
   33POPC   H7Y 4474   3.259   5.854   9.418 -0.2883 -0.3397  2.2757
   33POPC   C38 4475   3.233   5.705   9.271 -0.2297 -0.3897 -0.1786
   33POPC   H8X 4476   3.199   5.599   9.272 -3.3935  0.5537 -0.6978
   33POPC   H8Y 4477   3.342   5.700   9.255  0.0385 -1.0693  1.7487
   33POPC   C39 4478   3.162   5.784   9.158 -0.7260  0.2519 -0.0767
   33POPC   H9X 4479   3.211   5.883   9.166  0.0909  0.0074 -1.8359
   33POPC   H9Y 4480   3.052   5.797   9.166 -0.5815  3.6573 -2.6352
   33POPC  C310 4481   3.202   5.723   9.017  0.1060 -0.1700  0.1021
   33POPC  H10X 4482   3.149   5.625   9.013  1.5890 -1.0277  1.1711
   33POPC  H10Y 4483   3.309   5.695   9.007  0.8396  2.0558  1.3465
   33POPC  C311 4484   3.166   5.812   8.904  0.2387  0.3926  0.3115
   33POPC  H11X 4485   3.222   5.908   8.912  1.6282 -0.4352  0.7831
   33POPC  H11Y 4486   3.057   5.832   8.895  1.0013  4.0718 -1.4746
   33POPC  C312 4487   3.211   5.754   8.771  0.1993 -0.0430 -0.9386
   33POPC  H12X 4488   3.167   5.653   8.759  0.8574 -0.1936 -2.1960
   33POPC  H12Y 4489   3.319   5.736   8.793  0.1988  2.0265  0.9378
   33POPC  C313 4490   3.207   5.844   8.646 -1.0059 -0.5444  0.3844
   33POPC  H13X 4491   3.248   5.945   8.669 -2.5010 -0.2077  1.6126
   33POPC  H13Y 4492   3.103   5.852   8.609 -1.0030 -2.1450 -0.0066
   33POPC  C314 4493   3.293   5.793   8.524 -0.5924  0.2778  0.2882
   33POPC  H14X 4494   3.262   5.860   8.442  0.9336  1.2080  0.4525
   33POPC  H14Y 4495   3.258   5.689   8.504  0.1973 -0.2382  1.4818
   33POPC  C315 4496   3.442   5.786   8.552 -0.0587 -0.1733 -0.6266
   33POPC  H15X 4497   3.466   5.715   8.635 -0.1256 -1.6587 -1.8666
   33POPC  H15Y 4498   3.470   5.891   8.575  1.1221 -0.7462  0.6696
   33POPC  C316 4499   3.530   5.736   8.436 -0.3736  1.0122 -0.1378
   33POPC  H16X 4500   3.496   5.785   8.342  3.1481  2.6239 -0.6329
   33POPC  H16Y 4501   3.516   5.629   8.409 -0.6600  0.8921  0.4786
   33POPC  H16Z 4502   3.638   5.759   8.445 -0.1819 -0.3580  1.1451
   34POPC     N 4503   2.586   6.147  10.615 -0.1195 -0.1039  1.0799
   34POPC   C12 4504   2.664   6.189  10.496  0.3024  0.0384  0.3004
   34POPC  H12A 4505   2.595   6.186  10.413 -1.0440  0.2322  1.4163
   34POPC  H12B 4506   2.745   6.119  10.483 -1.2156 -1.3536 -2.1251
   34POPC   C13 4507   2.554   6.006  10.594  1.2953 -0.3043  0.0993
   34POPC  H13A 4508   2.639   5.944  10.616  0.3538 -0.9681  2.0440
   34POPC  H13B 4509   2.480   5.976  10.667 -1.2233 -3.1666 -3.4246
   34POPC  H13C 4510   2.494   5.971  10.512  0.4378  0.4617  0.3809
   34POPC   C14 4511   2.675   6.166  10.738  0.2069  0.2336  0.4892
   34POPC  H14A 4512   2.620   6.131  10.824  1.2627  0.0961  1.1124
   34POPC  H14B 4513   2.765   6.108  10.725  0.6880  1.3265 -1.2082
   34POPC  H14C 4514   2.701   6.270  10.751  0.6420 -0.0765  2.1706
   34POPC   C15 4515   2.454   6.225  10.632  0.1082 -0.3159 -0.0839
   34POPC  H15A 4516   2.388   6.179  10.560 -1.0816  2.7972 -1.0934
   34POPC  H15B 4517   2.482   6.329  10.625 -2.1833  0.4322  1.5097
   34POPC  H15C 4518   2.412   6.204  10.729 -0.1106  2.3667  0.4540
   34POPC   C11 4519   2.730   6.324  10.493  0.2986 -0.1438  0.2427
   34POPC  H11A 4520   2.780   6.322  10.393  1.4294 -2.2221  0.8108
   34POPC  H11B 4521   2.821   6.321  10.556  0.5068 -2.5696 -0.1371
   34POPC     P 4522   2.657   6.551  10.616 -0.5569 -0.5246  0.0890
   34POPC   O13 4523   2.793   6.607  10.601  0.1840 -0.8246 -0.1163
   34POPC   O14 4524   2.621   6.500  10.755  0.4853  0.5827  0.2047
   34POPC   O12 4525   2.639   6.429  10.512  0.1071  0.0037 -0.7456
   34POPC   O11 4526   2.555   6.655  10.575  0.7537  0.0858  0.4588
   34POPC    C1 4527   2.427   6.621  10.524 -0.3523 -1.2449 -0.0235
   34POPC    HA 4528   2.358   6.665  10.598 -0.5339  0.9443 -1.4685
   34POPC    HB 4529   2.394   6.515  10.525 -1.3834 -0.9225  0.5052
   34POPC    C2 4530   2.427   6.670  10.378 -0.4540  0.3122  0.0374
   34POPC    HS 4531   2.325   6.676  10.336 -0.4325  2.2305  0.2142
   34POPC   O21 4532   2.515   6.579  10.304 -0.4805  0.5428 -0.0431
   34POPC   C21 4533   2.461   6.468  10.258 -0.4445  0.0305  0.5225
   34POPC   O22 4534   2.342   6.443  10.274 -0.8588  0.1537  0.2133
   34POPC   C22 4535   2.564   6.386  10.190 -0.1592  0.0519  0.2656
   34POPC   H2R 4536   2.539   6.281  10.215  1.1365 -0.5539 -0.9243
   34POPC   H2S 4537   2.658   6.417  10.240  0.6194 -0.3826 -0.9149
   34POPC    C3 4538   2.487   6.817  10.372  0.3265  0.3297 -0.0605
   34POPC    HX 4539   2.598   6.811  10.372  0.2848 -0.4451  0.0262
   34POPC    HY 4540   2.445   6.860  10.465  2.2865 -1.0983  1.5193
   34POPC   O31 4541   2.445   6.899  10.260 -0.7996  0.4421  0.3451
   34POPC   C31 4542   2.473   7.025  10.256  0.4971 -0.5582 -0.2878
   34POPC   O32 4543   2.515   7.091  10.349  0.0034 -0.2755  0.4073
   34POPC   C32 4544   2.442   7.080  10.114 -0.1877 -0.9731  0.1030
   34POPC   H2X 4545   2.533   7.050  10.057  0.9475  1.7365  0.3945
   34POPC   H2Y 4546   2.427   7.190  10.117 -0.8658 -1.0293 -0.9761
   34POPC   C23 4547   2.561   6.408  10.041 -0.7589  0.5121  0.0706
   34POPC   H3R 4548   2.597   6.508  10.007 -0.1757  0.8196  1.5379
   34POPC   H3S 4549   2.460   6.396   9.997 -0.1602 -0.2199 -1.1382
   34POPC   C24 4550   2.651   6.302   9.963 -0.9811  0.1055  0.4828
   34POPC   H4R 4551   2.613   6.289   9.859 -0.3543 -0.7403  0.3562
   34POPC   H4S 4552   2.634   6.203  10.009  1.0522  0.0303  1.1212
   34POPC   C25 4553   2.802   6.327   9.960 -0.5738 -0.5367 -0.3717
   34POPC   H5R 4554   2.846   6.234   9.918  2.5783  0.1156  1.2941
   34POPC   H5S 4555   2.830   6.348  10.066  0.7511  1.1076 -1.0396
   34POPC   C26 4556   2.844   6.429   9.857  0.4517  0.2292  1.1602
   34POPC   H6R 4557   2.952   6.448   9.876  0.7685  2.1545 -2.0817
   34POPC   H6S 4558   2.801   6.525   9.892 -0.7356 -0.0268  0.4120
   34POPC   C27 4559   2.825   6.395   9.706  0.2659  0.2459 -0.0444
   34POPC   H7R 4560   2.814   6.488   9.646  2.3570  0.3577 -0.3032
   34POPC   H7S 4561   2.729   6.340   9.707  1.0600 -1.1834 -1.4486
   34POPC   C28 4562   2.919   6.288   9.647 -0.2381 -0.6120  0.6540
   34POPC   H8R 4563   2.888   6.252   9.546  0.7157 -2.4300  0.9929
   34POPC   H8S 4564   2.908   6.201   9.715  3.0338  1.0083  3.4372
   34POPC   C29 4565   3.059   6.347   9.652 -0.2745 -0.2747  0.1066
   34POPC   H91 4566   3.117   6.336   9.745  2.2976  0.1829 -1.4094
   34POPC  C210 4567   3.124   6.378   9.542 -0.5738 -0.3378 -0.7041
   34POPC  H101 4568   3.231   6.405   9.544 -0.1792 -1.6945 -2.2827
   34POPC  C211 4569   3.081   6.343   9.407 -0.0827 -0.8512  0.4035
   34POPC  H11R 4570   3.135   6.413   9.339 -0.6081 -0.6129  0.2342
   34POPC  H11S 4571   2.972   6.357   9.395  0.0293 -0.5512 -0.2663
   34POPC  C212 4572   3.117   6.194   9.370 -0.4342 -0.4153  0.2136
   34POPC  H12R 4573   3.045   6.129   9.426 -0.7724 -1.1936 -1.1124
   34POPC  H12S 4574   3.218   6.167   9.409 -0.0446 -1.4910 -1.5198
   34POPC  C213 4575   3.110   6.178   9.218 -0.4622 -0.0307 -0.2204
   34POPC  H13R 4576   3.136   6.073   9.194  2.3412  0.1359  1.8732
   34POPC  H13S 4577   3.190   6.245   9.181 -1.4819  0.2076 -2.0391
   34POPC  C214 4578   2.965   6.190   9.164  0.5806  0.1569  0.4297
   34POPC  H14R 4579   2.931   6.296   9.164  1.3851  0.4981 -3.0384
   34POPC  H14S 4580   2.897   6.130   9.227  1.1923  0.6225  1.5468
   34POPC  C215 4581   2.962   6.145   9.019  0.2955 -0.6058  0.7342
   34POPC  H15R 4582   3.006   6.048   8.987  0.9107  0.8065 -3.0306
   34POPC  H15S 4583   3.019   6.231   8.976  0.0295 -0.5672  0.4592
   34POPC  C216 4584   2.817   6.136   8.969  0.9080  0.3027  0.7018
   34POPC  H16R 4585   2.793   6.231   8.918 -0.0176 -1.3861 -2.0958
   34POPC  H16S 4586   2.750   6.131   9.057  0.0103  1.0185  0.0597
   34POPC  C217 4587   2.778   6.021   8.879 -0.7396 -0.8536 -0.7488
   34POPC  H17R 4588   2.851   6.008   8.796  1.0547  1.0925  0.4934
   34POPC  H17S 4589   2.681   6.042   8.828 -1.6587  0.8254  1.6104
   34POPC  C218 4590   2.758   5.895   8.967 -0.4352 -0.3723 -0.2423
   34POPC  H18R 4591   2.855   5.870   9.016  0.0249  2.2335  0.2271
   34POPC  H18S 4592   2.718   5.804   8.918 -0.4419 -0.4279 -0.1357
   34POPC  H18T 4593   2.682   5.922   9.044 -1.1602 -0.8953 -0.7631
   34POPC   C33 4594   2.309   7.025  10.059  0.3864 -0.0452 -0.0982
   34POPC   H3X 4595   2.218   7.062  10.111  0.3956 -0.2272  0.0484
   34POPC   H3Y 4596   2.301   6.915  10.074 -1.9452  0.2849  1.3388
   34POPC   C34 4597   2.303   7.043   9.906  0.2404  0.2736  0.2377
   34POPC   H4X 4598   2.389   6.980   9.872 -0.5672 -0.6315 -0.1495
   34POPC   H4Y 4599   2.329   7.141   9.861  0.9652 -0.3120 -0.6424
   34POPC   C35 4600   2.178   6.997   9.830 -0.0666 -0.1345 -0.4412
   34POPC   H5X 4601   2.108   7.083   9.822 -1.4160 -1.2267 -0.7677
   34POPC   H5Y 4602   2.141   6.916   9.897  1.6623 -1.3746 -0.9502
   34POPC   C36 4603   2.220   6.924   9.698  0.3131  0.3056  0.1462
   34POPC   H6X 4604   2.133   6.864   9.665  0.5070 -0.5936  1.2134
   34POPC   H6Y 4605   2.297   6.844   9.706  1.0715  0.8566 -1.5428
   34POPC   C37 4606   2.269   7.012   9.579 -0.0474 -0.0947 -0.8533
   34POPC   H7X 4607   2.377   7.032   9.598 -0.6837  1.3938  1.4762
   34POPC   H7Y 4608   2.222   7.113   9.582 -3.4631 -1.6344 -0.1868
   34POPC   C38 4609   2.271   6.958   9.432  1.3308 -0.9682 -0.6871
   34POPC   H8X 4610   2.161   6.958   9.419  1.1874  1.9513  0.1596
   34POPC   H8Y 4611   2.307   6.853   9.429  0.4241 -1.2568 -1.7553
   34POPC   C39 4612   2.351   7.039   9.324  0.6767 -0.4180 -0.4859
   34POPC   H9X 4613   2.438   7.094   9.366 -0.3172  2.2192 -1.7886
   34POPC   H9Y 4614   2.278   7.107   9.276  1.4991 -0.2163 -1.4747
   34POPC  C310 4615   2.389   6.941   9.209 -0.1421  0.3262  0.0274
   34POPC  H10X 4616   2.465   6.865   9.238  0.1749  0.7680  0.3656
   34POPC  H10Y 4617   2.439   6.996   9.126 -0.5820 -1.2302 -1.2817
   34POPC  C311 4618   2.257   6.882   9.152 -0.0552  0.1211 -0.3419
   34POPC  H11X 4619   2.196   6.972   9.130  0.5904  1.0747  1.5992
   34POPC  H11Y 4620   2.200   6.822   9.226  1.5471 -2.5879 -1.2217
   34POPC  C312 4621   2.284   6.808   9.018 -0.6504  0.3936  0.1299
   34POPC  H12X 4622   2.370   6.740   9.038  0.3401  1.4724 -0.3957
   34POPC  H12Y 4623   2.328   6.875   8.942  0.5255 -1.3890 -0.8086
   34POPC  C313 4624   2.163   6.750   8.950  0.1449 -0.0472 -0.0063
   34POPC  H13X 4625   2.196   6.700   8.856 -1.2735  0.0415 -0.5703
   34POPC  H13Y 4626   2.105   6.841   8.922  1.8494  1.3645  1.0168
   34POPC  C314 4627   2.092   6.646   9.036 -0.3193 -0.5719 -0.2055
   34POPC  H14X 4628   2.010   6.594   8.982 -1.5775  0.5004  0.6665
   34POPC  H14Y 4629   2.045   6.703   9.118 -2.3978 -0.8142 -1.2033
   34POPC  C315 4630   2.181   6.531   9.089 -0.1594  0.3208  0.2513
   34POPC  H15X 4631   2.259   6.559   9.164  0.5191  0.5966 -0.5505
   34POPC  H15Y 4632   2.223   6.480   9.000 -2.1973  0.7699 -0.9859
   34POPC  C316 4633   2.102   6.413   9.149  0.3450  0.3480  0.3193
   34POPC  H16X 4634   2.032   6.436   9.232 -0.0324  0.5352 -0.0479
   34POPC  H16Y 4635   2.159   6.325   9.184 -1.8841 -0.5433  1.8316
   34POPC  H16Z 4636   2.050   6.368   9.062  0.8610  0.7750 -0.2137
   35POPC     N 4637   1.816   3.611  11.299 -0.3885 -0.4435 -1.3876
   35POPC   C12 4638   1.749   3.667  11.173  0.2805  0.1959 -0.2189
   35POPC  H12A 4639   1.650   3.708  11.185  0.5505  1.3597 -1.8296
   35POPC  H12B 4640   1.748   3.575  11.116 -0.0487 -0.6250  1.0835
   35POPC   C13 4641   1.734   3.506  11.363  0.6000 -0.0187  0.2489
   35POPC  H13A 4642   1.702   3.420  11.308  1.6818  0.7131 -1.5649
   35POPC  H13B 4643   1.781   3.466  11.452  0.9805  0.2010  0.1489
   35POPC  H13C 4644   1.637   3.546  11.390 -1.7650 -3.6104 -2.4355
   35POPC   C14 4645   1.956   3.561  11.266 -0.2412  0.0310 -1.0463
   35POPC  H14A 4646   2.001   3.637  11.204  0.6578  1.4648  1.2947
   35POPC  H14B 4647   2.016   3.548  11.355  1.0606 -1.0931 -2.0802
   35POPC  H14C 4648   1.941   3.469  11.212  1.6705  0.4241 -2.2801
   35POPC   C15 4649   1.833   3.712  11.407 -0.7607 -0.4672 -0.9880
   35POPC  H15A 4650   1.890   3.670  11.489 -0.4492 -1.5070 -1.7207
   35POPC  H15B 4651   1.740   3.758  11.438  0.2306  2.2716 -1.9549
   35POPC  H15C 4652   1.883   3.800  11.371 -2.3625  0.8670 -0.0601
   35POPC   C11 4653   1.832   3.765  11.083  0.6018 -0.0472 -0.1176
   35POPC  H11A 4654   1.766   3.797  10.999  0.8591 -1.9781 -1.0945
   35POPC  H11B 4655   1.924   3.713  11.049  0.6081 -0.0098 -0.1569
   35POPC     P 4656   1.984   3.981  11.119 -0.0277 -0.6756 -0.0317
   35POPC   O13 4657   2.104   3.924  11.184 -0.2002 -0.5290 -0.1604
   35POPC   O14 4658   1.947   4.121  11.153  0.2526  0.2218  0.5352
   35POPC   O12 4659   1.862   3.891  11.154  0.0292 -0.1611  0.2232
   35POPC   O11 4660   2.012   3.977  10.958  0.1825 -0.6673 -0.3464
   35POPC    C1 4661   1.925   4.053  10.874 -0.5825 -0.4499 -1.0360
   35POPC    HA 4662   1.957   4.159  10.876 -0.8698 -0.3692 -0.0775
   35POPC    HB 4663   1.821   4.073  10.910  0.4003  3.0495  0.0971
   35POPC    C2 4664   1.910   3.999  10.727 -0.5409 -0.1015 -0.8408
   35POPC    HS 4665   1.840   3.912  10.734 -1.6053  0.5210 -3.4184
   35POPC   O21 4666   2.036   3.963  10.677 -0.2660  0.3337  0.3946
   35POPC   C21 4667   2.032   3.879  10.569 -0.6615  1.2343 -0.2076
   35POPC   O22 4668   1.930   3.824  10.533 -0.0649  0.4886  0.2036
   35POPC   C22 4669   2.166   3.869  10.511  0.0573  0.2590  0.0886
   35POPC   H2R 4670   2.180   3.762  10.484 -1.7865  0.2253 -0.7744
   35POPC   H2S 4671   2.247   3.886  10.586  0.0586  0.2027  0.1000
   35POPC    C3 4672   1.838   4.117  10.645  0.7392  0.5460  0.1597
   35POPC    HX 4673   1.903   4.206  10.633  1.0446  0.7985  3.2539
   35POPC    HY 4674   1.752   4.141  10.711  0.8449  2.5221 -0.3966
   35POPC   O31 4675   1.811   4.078  10.508 -0.2446  0.2619  0.0146
   35POPC   C31 4676   1.699   4.013  10.493  0.3736  0.7356  0.4003
   35POPC   O32 4677   1.616   3.992  10.585  0.7262 -0.0270  0.7028
   35POPC   C32 4678   1.679   3.981  10.339  0.4695 -0.0031 -0.0874
   35POPC   H2X 4679   1.723   3.886  10.303  0.0349  0.2866 -1.4384
   35POPC   H2Y 4680   1.733   4.059  10.280  0.7086 -0.7948 -0.9189
   35POPC   C23 4681   2.198   3.965  10.398  0.2931  0.0523  0.1162
   35POPC   H3R 4682   2.289   3.941  10.339  0.8037 -0.9871  1.3119
   35POPC   H3S 4683   2.226   4.063  10.441 -0.4884  0.0992  0.5120
   35POPC   C24 4684   2.093   3.956  10.284 -0.2846 -0.2436  0.1878
   35POPC   H4R 4685   1.992   3.978  10.322 -0.9904 -0.6968 -1.3841
   35POPC   H4S 4686   2.083   3.853  10.244  2.5650 -0.3390 -0.3883
   35POPC   C25 4687   2.141   4.051  10.165  0.9264  1.0272  0.0879
   35POPC   H5R 4688   2.221   3.995  10.112 -0.5465 -0.5219 -0.5362
   35POPC   H5S 4689   2.196   4.141  10.201 -0.0936  2.0744 -0.9441
   35POPC   C26 4690   2.036   4.059  10.049 -0.0073 -0.1115 -0.8173
   35POPC   H6R 4691   1.966   4.134  10.091  0.6499 -1.6446  3.2642
   35POPC   H6S 4692   1.993   3.960  10.021 -1.2088  0.7831 -2.1529
   35POPC   C27 4693   2.098   4.116   9.924 -0.0696  0.4308  0.8768
   35POPC   H7R 4694   2.157   4.031   9.882  0.3688  1.0808  0.1560
   35POPC   H7S 4695   2.167   4.202   9.940 -0.2738  0.6018  0.8359
   35POPC   C28 4696   2.001   4.165   9.821 -0.7164 -0.0720  0.5415
   35POPC   H8R 4697   2.068   4.193   9.737  4.0499 -3.5709  2.8780
   35POPC   H8S 4698   1.956   4.254   9.870  0.2894 -0.5992  2.5142
   35POPC   C29 4699   1.905   4.055   9.771  0.3202  0.2392  0.1815
   35POPC   H91 4700   1.845   4.012   9.853  0.5422  0.8965  0.6984
   35POPC  C210 4701   1.877   4.016   9.646 -0.3805 -0.4448 -1.0903
   35POPC  H101 4702   1.805   3.935   9.628 -1.5196 -0.0190  1.2417
   35POPC  C211 4703   1.939   4.073   9.521  0.4677  0.1997 -0.4763
   35POPC  H11R 4704   1.903   4.006   9.441  0.3054 -1.3860  0.8910
   35POPC  H11S 4705   2.047   4.053   9.537  0.1412 -0.0417  1.6610
   35POPC  C212 4706   1.918   4.219   9.480 -0.2120  0.1842  0.2583
   35POPC  H12R 4707   1.964   4.299   9.541 -3.8979  0.4550  2.9008
   35POPC  H12S 4708   1.807   4.234   9.480 -0.3370  0.0541 -4.3834
   35POPC  C213 4709   1.969   4.238   9.337 -0.1566 -0.0454  0.5439
   35POPC  H13R 4710   1.909   4.192   9.256 -0.1523  0.8322  0.0255
   35POPC  H13S 4711   2.069   4.190   9.332 -0.3422 -0.5037  1.2317
   35POPC  C214 4712   1.987   4.390   9.297  0.6451  0.1331 -0.3052
   35POPC  H14R 4713   2.075   4.438   9.344 -0.2302  0.0379  1.4451
   35POPC  H14S 4714   1.893   4.435   9.335  1.0273  0.6400  0.0424
   35POPC  C215 4715   1.990   4.402   9.149  0.4203 -0.0374  0.3559
   35POPC  H15R 4716   1.959   4.508   9.132 -2.4077 -0.2748  3.4952
   35POPC  H15S 4717   1.920   4.335   9.096 -0.3831  1.5525 -0.6497
   35POPC  C216 4718   2.124   4.383   9.077 -0.6011 -0.2081 -0.2603
   35POPC  H16R 4719   2.145   4.274   9.073 -2.4733 -0.6401  0.8903
   35POPC  H16S 4720   2.207   4.420   9.141 -1.3255 -0.1283  0.6495
   35POPC  C217 4721   2.136   4.441   8.934 -0.1954 -0.1227  1.0217
   35POPC  H17R 4722   2.243   4.459   8.909  0.2159 -2.5272  1.0135
   35POPC  H17S 4723   2.083   4.539   8.938  0.3229  0.1260  1.9823
   35POPC  C218 4724   2.080   4.353   8.829  0.7014 -0.6147  0.2288
   35POPC  H18R 4725   2.053   4.405   8.734 -2.6913 -1.7183  0.5336
   35POPC  H18S 4726   1.979   4.317   8.857 -0.3411  2.4413  0.5586
   35POPC  H18T 4727   2.139   4.260   8.815 -0.2363 -1.6545  2.8689
   35POPC   C33 4728   1.528   3.978  10.282 -0.1742  0.4863 -0.3144
   35POPC   H3X 4729   1.484   4.078  10.302  0.4911  0.7002  0.1364
   35POPC   H3Y 4730   1.483   3.890  10.334 -0.9899  1.2755  0.3367
   35POPC   C34 4731   1.527   3.949  10.131  0.2334  0.4118  0.2096
   35POPC   H4X 4732   1.425   3.910  10.112  1.0023 -2.4214  1.4743
   35POPC   H4Y 4733   1.593   3.862  10.108 -0.1216  0.0698  0.4848
   35POPC   C35 4734   1.567   4.071  10.047  0.5888 -0.1206  0.5408
   35POPC   H5X 4735   1.670   4.112  10.056  0.0491  0.7356  3.3506
   35POPC   H5Y 4736   1.505   4.154  10.087 -1.5696 -1.8192  0.8055
   35POPC   C36 4737   1.529   4.047   9.899 -0.0029 -0.4025 -0.2413
   35POPC   H6X 4738   1.425   4.007   9.899 -0.3263  0.3952  1.9112
   35POPC   H6Y 4739   1.604   3.977   9.857  1.1297  0.3675  0.4995
   35POPC   C37 4740   1.552   4.173   9.813  0.2329 -0.3890  0.3208
   35POPC   H7X 4741   1.658   4.205   9.810 -0.3284  1.6744  1.7228
   35POPC   H7Y 4742   1.495   4.255   9.860  2.0994  1.0675  0.0752
   35POPC   C38 4743   1.509   4.146   9.670  0.9580  0.2036  0.7793
   35POPC   H8X 4744   1.399   4.128   9.664  1.0228  0.7455 -4.2398
   35POPC   H8Y 4745   1.562   4.055   9.635 -0.2112  0.4326 -1.6818
   35POPC   C39 4746   1.540   4.255   9.569  0.0819 -1.4300 -0.4705
   35POPC   H9X 4747   1.642   4.300   9.577 -0.3926 -0.3914 -0.1090
   35POPC   H9Y 4748   1.463   4.331   9.595  1.7187  0.7308 -1.7161
   35POPC  C310 4749   1.520   4.219   9.419  0.1118 -0.6460 -0.2288
   35POPC  H10X 4750   1.425   4.165   9.398 -0.0579  0.2120 -1.7328
   35POPC  H10Y 4751   1.601   4.150   9.388 -0.3077 -0.7013 -1.2353
   35POPC  C311 4752   1.537   4.348   9.340  0.1429  0.0259  0.2720
   35POPC  H11X 4753   1.637   4.393   9.360  0.1224  0.7136 -1.1360
   35POPC  H11Y 4754   1.456   4.421   9.360 -0.2599  0.5206 -2.8816
   35POPC  C312 4755   1.536   4.323   9.196  0.0235  0.4297 -0.6902
   35POPC  H12X 4756   1.440   4.283   9.156 -0.7163 -0.5804  2.0172
   35POPC  H12Y 4757   1.605   4.240   9.167 -2.5676 -1.5065 -1.5269
   35POPC  C313 4758   1.578   4.439   9.114 -0.1854  0.9435  0.4182
   35POPC  H13X 4759   1.683   4.465   9.140 -0.0061 -0.3143  1.0183
   35POPC  H13Y 4760   1.519   4.532   9.126  0.6643  1.8904 -2.4782
   35POPC  C314 4761   1.563   4.418   8.959 -0.2178 -0.4888  0.3139
   35POPC  H14X 4762   1.458   4.385   8.939  0.1188 -0.5849 -1.3553
   35POPC  H14Y 4763   1.633   4.340   8.922  1.0219  0.3048  0.9955
   35POPC  C315 4764   1.593   4.539   8.874  0.6503 -0.3354  0.8858
   35POPC  H15X 4765   1.527   4.623   8.903 -0.2361 -1.7015  2.9158
   35POPC  H15Y 4766   1.576   4.520   8.766  0.1542 -0.9196  1.0642
   35POPC  C316 4767   1.738   4.585   8.901 -0.3258 -0.8016 -0.0969
   35POPC  H16X 4768   1.812   4.509   8.866  1.5748  0.4303  1.1888
   35POPC  H16Y 4769   1.761   4.610   9.006  0.0303 -0.5088 -0.2411
   35POPC  H16Z 4770   1.758   4.666   8.827 -0.9019 -1.7461 -1.3082
   36POPC     N 4771   1.959   2.220  11.432 -0.2865 -0.1262  0.0984
   36POPC   C12 4772   1.890   2.190  11.303 -0.4192 -0.1245 -0.6436
   36POPC  H12A 4773   1.884   2.083  11.292  0.3405 -0.1355 -0.9679
   36POPC  H12B 4774   1.947   2.225  11.218  1.9859 -0.0076  0.9939
   36POPC   C13 4775   2.106   2.207  11.396  0.2805  0.5887 -0.8939
   36POPC  H13A 4776   2.129   2.107  11.363 -2.0640  0.6425 -2.7923
   36POPC  H13B 4777   2.127   2.272  11.312  2.1978  4.0179  2.0979
   36POPC  H13C 4778   2.166   2.246  11.478  0.1174  0.0662 -0.5261
   36POPC   C14 4779   1.939   2.362  11.465  0.5076 -0.1815  0.0079
   36POPC  H14A 4780   1.996   2.392  11.552 -0.5933  0.9410  0.3456
   36POPC  H14B 4781   1.967   2.430  11.387  1.8341  0.6119  1.1399
   36POPC  H14C 4782   1.836   2.383  11.488  0.1881  1.8152 -2.9817
   36POPC   C15 4783   1.917   2.124  11.545 -0.3806 -0.1477  0.4736
   36POPC  H15A 4784   1.814   2.130  11.576 -0.4503 -1.4451  0.4952
   36POPC  H15B 4785   1.975   2.147  11.634 -0.4143  0.2101  0.4052
   36POPC  H15C 4786   1.942   2.022  11.519 -1.0919 -0.1404 -0.2208
   36POPC   C11 4787   1.741   2.240  11.290 -0.0834  0.8546  0.0627
   36POPC  H11A 4788   1.743   2.345  11.254  4.5935  1.2443  1.1396
   36POPC  H11B 4789   1.695   2.237  11.392  1.2811 -2.1781  0.6511
   36POPC     P 4790   1.695   2.155  11.043 -0.0558  0.5761  0.1702
   36POPC   O13 4791   1.628   2.032  10.995  0.5476 -0.8279  0.3433
   36POPC   O14 4792   1.839   2.182  11.014  0.4921 -0.4916  0.8588
   36POPC   O12 4793   1.669   2.152  11.203  0.2218  0.0579 -0.0030
   36POPC   O11 4794   1.611   2.276  10.990  0.1866  0.0925 -0.1990
   36POPC    C1 4795   1.511   2.261  10.892 -0.5252 -0.1514 -0.2098
   36POPC    HA 4796   1.433   2.340  10.894 -2.1134 -1.6684 -0.1322
   36POPC    HB 4797   1.452   2.167  10.902  2.2264 -1.9781 -0.7452
   36POPC    C2 4798   1.561   2.246  10.748 -0.2474  0.3777  0.3810
   36POPC    HS 4799   1.646   2.175  10.742 -2.0979 -1.6987 -2.1564
   36POPC   O21 4800   1.595   2.381  10.711  0.3421 -0.0780  0.6709
   36POPC   C21 4801   1.716   2.398  10.658  0.3082 -0.5730  0.0992
   36POPC   O22 4802   1.797   2.309  10.639 -0.1983 -0.0010 -0.3937
   36POPC   C22 4803   1.727   2.540  10.619 -0.4284  0.3927 -0.5873
   36POPC   H2R 4804   1.708   2.614  10.700  1.5125  1.5713 -1.1672
   36POPC   H2S 4805   1.652   2.550  10.538  2.3835  1.4353 -3.1384
   36POPC    C3 4806   1.450   2.192  10.650  0.5623 -0.1247  0.6526
   36POPC    HX 4807   1.379   2.277  10.640  0.9531  0.1254 -0.0235
   36POPC    HY 4808   1.401   2.099  10.685  1.7906 -0.9860  0.1372
   36POPC   O31 4809   1.501   2.172  10.519 -0.0241 -0.2423  0.3746
   36POPC   C31 4810   1.587   2.071  10.501  0.4362 -0.2009 -0.1125
   36POPC   O32 4811   1.623   1.991  10.590 -0.2345  0.0990 -0.1368
   36POPC   C32 4812   1.613   2.058  10.354  0.2693 -0.0615 -0.0785
   36POPC   H2X 4813   1.534   2.105  10.292 -0.0128 -0.3711  0.0462
   36POPC   H2Y 4814   1.601   1.950  10.335  0.7936 -0.4157  1.5255
   36POPC   C23 4815   1.873   2.577  10.576  0.6524 -0.2124 -0.8956
   36POPC   H3R 4816   1.949   2.541  10.650  0.6126  0.9189 -0.2864
   36POPC   H3S 4817   1.873   2.687  10.560  1.1524 -0.2523 -1.1642
   36POPC   C24 4818   1.916   2.522  10.428  0.3697  0.4142 -0.3257
   36POPC   H4R 4819   1.827   2.552  10.369  1.4505  2.2134 -1.0789
   36POPC   H4S 4820   1.926   2.411  10.427  1.5457  0.5185 -2.3567
   36POPC   C25 4821   2.042   2.592  10.375 -0.8065  0.2659  0.5338
   36POPC   H5R 4822   2.136   2.547  10.415 -0.0295  2.0163  0.7171
   36POPC   H5S 4823   2.036   2.698  10.407  2.9674  1.7612 -3.2844
   36POPC   C26 4824   2.044   2.607  10.222 -0.7239 -0.4939  0.2255
   36POPC   H6R 4825   1.945   2.640  10.185 -1.0648 -0.2306  1.3631
   36POPC   H6S 4826   2.066   2.506  10.182 -0.0661 -0.1225 -0.3685
   36POPC   C27 4827   2.154   2.699  10.171  0.6225 -0.4502 -0.6107
   36POPC   H7R 4828   2.249   2.660  10.214  0.8034 -0.0221 -0.6261
   36POPC   H7S 4829   2.140   2.804  10.201 -1.2003 -0.7987 -0.1955
   36POPC   C28 4830   2.156   2.687  10.013 -0.1623 -0.1541  0.2927
   36POPC   H8R 4831   2.200   2.782   9.976 -0.1061 -0.5581 -0.7022
   36POPC   H8S 4832   2.052   2.684   9.972 -0.7867 -0.5767  1.8679
   36POPC   C29 4833   2.244   2.580   9.956  0.4281  0.2686  0.1024
   36POPC   H91 4834   2.344   2.582  10.002  1.3871  1.0870 -1.9560
   36POPC  C210 4835   2.220   2.501   9.850 -0.7612  0.6152  0.7009
   36POPC  H101 4836   2.294   2.430   9.810 -0.6339  2.6127 -2.8216
   36POPC  C211 4837   2.090   2.493   9.780  0.1427  0.4847 -0.2710
   36POPC  H11R 4838   2.016   2.571   9.809 -0.9742  0.0481 -1.8637
   36POPC  H11S 4839   2.050   2.394   9.812  0.6007  0.7937  1.2647
   36POPC  C212 4840   2.088   2.522   9.631  0.3081 -0.0316 -0.1312
   36POPC  H12R 4841   1.990   2.510   9.582  0.2666  0.6912 -0.2321
   36POPC  H12S 4842   2.164   2.462   9.576  0.1946 -1.7763  1.5295
   36POPC  C213 4843   2.100   2.673   9.601 -0.4918 -0.1389 -0.8613
   36POPC  H13R 4844   2.159   2.717   9.684  1.0676 -1.1812 -1.3844
   36POPC  H13S 4845   2.012   2.735   9.627  0.4665  0.9190 -0.0522
   36POPC  C214 4846   2.170   2.714   9.466  0.2541  0.1571 -0.2391
   36POPC  H14R 4847   2.123   2.654   9.386  1.5543  0.6130 -1.3515
   36POPC  H14S 4848   2.275   2.682   9.482 -0.3416 -1.3881  0.6245
   36POPC  C215 4849   2.174   2.870   9.445  0.3412  0.9172  0.6282
   36POPC  H15R 4850   2.270   2.887   9.392 -0.9677  1.0629 -1.8196
   36POPC  H15S 4851   2.172   2.921   9.544  0.6206  0.0972  1.0555
   36POPC  C216 4852   2.055   2.917   9.368 -0.8654 -0.8183  0.3619
   36POPC  H16R 4853   2.066   3.022   9.333 -2.7600 -1.3152 -1.8622
   36POPC  H16S 4854   1.953   2.909   9.412 -1.4852  0.8076 -0.7591
   36POPC  C217 4855   2.033   2.859   9.227  0.0354  0.0570 -0.5755
   36POPC  H17R 4856   1.996   2.754   9.226 -0.1483  0.1297 -1.6984
   36POPC  H17S 4857   2.132   2.848   9.178  0.0405 -0.5786 -0.4315
   36POPC  C218 4858   1.941   2.937   9.135 -0.0265  0.0090 -0.4453
   36POPC  H18R 4859   1.908   2.879   9.046 -1.0687  0.3870 -0.3069
   36POPC  H18S 4860   1.982   3.037   9.108 -1.0878  0.3517 -0.8068
   36POPC  H18T 4861   1.845   2.945   9.190  0.9567  3.5306  0.9094
   36POPC   C33 4862   1.756   2.085  10.308  0.1302  0.1066 -0.1884
   36POPC   H3X 4863   1.826   2.036  10.380 -1.8732  1.0758  2.5098
   36POPC   H3Y 4864   1.786   2.192  10.306  0.3514  0.0196 -1.5926
   36POPC   C34 4865   1.788   2.036  10.166  0.5596 -0.5033 -0.1702
   36POPC   H4X 4866   1.710   2.076  10.097  0.4633  2.0115  1.3177
   36POPC   H4Y 4867   1.780   1.926  10.179 -0.9708 -0.7353 -2.6073
   36POPC   C35 4868   1.924   2.059  10.110  0.1331 -0.0216 -0.2233
   36POPC   H5X 4869   1.982   2.009  10.191  1.2119  2.9183  0.8831
   36POPC   H5Y 4870   1.934   2.170  10.118  3.0522 -0.1454 -1.2772
   36POPC   C36 4871   1.965   2.006   9.971 -0.2117  0.3752  0.4004
   36POPC   H6X 4872   1.940   1.900   9.949 -2.4042  0.5541  1.8289
   36POPC   H6Y 4873   2.072   2.031   9.959 -0.4434  2.2229  1.9808
   36POPC   C37 4874   1.882   2.089   9.870  0.5690  0.1468  0.5038
   36POPC   H7X 4875   1.904   2.196   9.891 -0.0426  0.5734 -0.9076
   36POPC   H7Y 4876   1.775   2.066   9.886  1.4806 -2.9904  2.4875
   36POPC   C38 4877   1.930   2.061   9.721  0.0161  0.6441 -0.2808
   36POPC   H8X 4878   1.881   1.964   9.701 -4.6737  2.8640 -0.3970
   36POPC   H8Y 4879   2.039   2.044   9.730 -0.2199  0.6792  3.9649
   36POPC   C39 4880   1.902   2.158   9.614  0.0256  0.6139  0.2579
   36POPC   H9X 4881   1.935   2.258   9.651 -0.4200  1.9213 -2.7705
   36POPC   H9Y 4882   1.791   2.166   9.618  0.0525  3.6729 -2.9638
   36POPC  C310 4883   1.951   2.118   9.473 -0.9808 -0.1396  0.3939
   36POPC  H10X 4884   2.060   2.101   9.486 -0.6137  3.1905  2.2628
   36POPC  H10Y 4885   1.952   2.198   9.395 -0.7205 -1.9745 -1.5139
   36POPC  C311 4886   1.869   2.005   9.410  0.6112 -0.6142 -0.0261
   36POPC  H11X 4887   1.785   2.059   9.361  1.0110  0.5073  0.5271
   36POPC  H11Y 4888   1.827   1.943   9.492 -0.5351 -1.4652 -1.2260
   36POPC  C312 4889   1.945   1.910   9.322  0.3315  0.1501 -0.7838
   36POPC  H12X 4890   1.903   1.807   9.331 -0.1344  0.4256  0.2038
   36POPC  H12Y 4891   2.033   1.895   9.388 -2.1356 -1.2424  2.3051
   36POPC  C313 4892   1.975   1.941   9.180 -0.1771  0.2232  0.2479
   36POPC  H13X 4893   2.052   1.867   9.150 -0.5026  0.5129 -1.3686
   36POPC  H13Y 4894   2.010   2.046   9.179  2.4818 -0.6246  0.6725
   36POPC  C314 4895   1.851   1.936   9.079  0.2046 -0.0849 -0.6617
   36POPC  H14X 4896   1.780   2.019   9.098 -0.1228 -0.1559 -1.5711
   36POPC  H14Y 4897   1.799   1.839   9.091  1.3300 -0.6737 -0.4308
   36POPC  C315 4898   1.895   1.961   8.933  0.3828 -0.5652 -0.9016
   36POPC  H15X 4899   1.959   1.874   8.906  1.0888 -1.3270  2.8414
   36POPC  H15Y 4900   1.959   2.052   8.931  3.2188 -2.4850 -0.4862
   36POPC  C316 4901   1.776   1.964   8.826 -0.3891 -0.0014  0.8598
   36POPC  H16X 4902   1.707   2.050   8.839 -1.3977 -0.3042 -2.2061
   36POPC  H16Y 4903   1.712   1.874   8.840  0.0729 -0.4188  0.3429
   36POPC  H16Z 4904   1.810   1.960   8.720 -1.7441  3.2516  0.2689
   37POPC     N 4905   0.607   5.033   6.419 -0.5104 -0.5384 -0.1745
   37POPC   C12 4906   0.582   4.944   6.535 -0.9506 -0.0595 -0.2793
   37POPC  H12A 4907   0.678   4.902   6.561 -1.4346 -0.0230  1.5988
   37POPC  H12B 4908   0.522   4.862   6.497  0.7870 -0.6815 -1.7635
   37POPC   C13 4909   0.662   4.950   6.310 -0.6283  0.3407  0.2221
   37POPC  H13A 4910   0.595   4.866   6.297  1.0156 -0.8930 -0.4718
   37POPC  H13B 4911   0.662   5.007   6.219  0.0128  1.6078  0.9972
   37POPC  H13C 4912   0.765   4.922   6.328  0.1256  1.7923 -1.6859
   37POPC   C14 4913   0.478   5.092   6.372  0.2963 -0.1364 -0.0352
   37POPC  H14A 4914   0.421   5.128   6.457  0.9664 -0.1917  0.4353
   37POPC  H14B 4915   0.503   5.168   6.300 -0.3894 -1.2260 -1.4576
   37POPC  H14C 4916   0.412   5.028   6.315  2.4702 -1.6610 -0.9047
   37POPC   C15 4917   0.699   5.148   6.451  0.7330  0.4119 -0.2501
   37POPC  H15A 4918   0.691   5.221   6.372 -2.0435  1.2864  0.7810
   37POPC  H15B 4919   0.805   5.126   6.457  0.6080 -0.0004  0.4737
   37POPC  H15C 4920   0.664   5.200   6.539 -0.6769 -0.3499 -0.3606
   37POPC   C11 4921   0.511   4.992   6.668 -0.5487 -0.0417 -0.1759
   37POPC  H11A 4922   0.580   5.064   6.717 -1.6492  0.2110  1.0297
   37POPC  H11B 4923   0.503   4.900   6.728 -3.1431 -0.9674 -1.8489
   37POPC     P 4924   0.258   4.952   6.635 -0.0680  0.1599  0.3766
   37POPC   O13 4925   0.276   4.855   6.526 -0.5639 -0.3004  0.6029
   37POPC   O14 4926   0.135   5.034   6.619  0.1565  0.0436  0.1100
   37POPC   O12 4927   0.381   5.053   6.647  0.1638  0.6819 -0.0013
   37POPC   O11 4928   0.259   4.880   6.774  0.0872 -0.1580  0.1809
   37POPC    C1 4929   0.230   4.961   6.895 -0.4765 -0.2075  0.2419
   37POPC    HA 4930   0.213   5.070   6.882  0.8025 -0.0071  0.2377
   37POPC    HB 4931   0.320   4.960   6.959  1.1003 -1.6228 -1.9475
   37POPC    C2 4932   0.111   4.897   6.973  0.1727  0.0881 -0.4418
   37POPC    HS 4933   0.087   4.961   7.061 -1.2252 -1.0077  0.0012
   37POPC   O21 4934   0.145   4.770   7.012 -0.0068  0.1765 -0.0395
   37POPC   C21 4935   0.222   4.765   7.117  0.4622 -0.9947  0.0836
   37POPC   O22 4936   0.280   4.855   7.176 -0.6024  0.3683 -0.1993
   37POPC   C22 4937   0.235   4.621   7.174  0.1346  0.3360  0.2116
   37POPC   H2R 4938   0.342   4.592   7.181  0.0155 -0.3151 -0.5301
   37POPC   H2S 4939   0.175   4.552   7.110  1.2584 -0.6507  0.1892
   37POPC    C3 4940  -0.013   4.896   6.890  0.3115  0.4755  0.5668
   37POPC    HX 4941   0.006   4.830   6.803 -1.2859  0.3196  0.3181
   37POPC    HY 4942  -0.032   4.998   6.850  0.7675  0.6186  0.7120
   37POPC   O31 4943  -0.134   4.857   6.966  0.2300  0.3955  0.3417
   37POPC   C31 4944  -0.225   4.954   6.988  0.8732  0.9149 -0.7312
   37POPC   O32 4945  -0.208   5.071   6.963  0.1809 -0.2013 -0.0802
   37POPC   C32 4946  -0.352   4.891   7.039 -0.1932 -0.1410 -0.4681
   37POPC   H2X 4947  -0.342   4.783   7.016  1.3668  0.0314 -0.6962
   37POPC   H2Y 4948  -0.439   4.935   6.985 -1.0573  0.4158  1.3418
   37POPC   C23 4949   0.182   4.615   7.317 -0.1105  0.6619  0.0787
   37POPC   H3R 4950   0.074   4.592   7.331  0.1872 -0.4248  0.5841
   37POPC   H3S 4951   0.213   4.708   7.369 -1.4063  1.6265 -0.8374
   37POPC   C24 4952   0.242   4.499   7.396 -0.5082  0.7022  0.2797
   37POPC   H4R 4953   0.351   4.522   7.403 -0.5975  1.3175 -0.3500
   37POPC   H4S 4954   0.236   4.407   7.335 -0.3633  0.3504  0.7903
   37POPC   C25 4955   0.197   4.486   7.540  0.0219  0.3512 -0.0197
   37POPC   H5R 4956   0.089   4.461   7.535  0.3191 -0.4084 -3.4220
   37POPC   H5S 4957   0.210   4.576   7.604 -0.6115  0.1742  0.3704
   37POPC   C26 4958   0.269   4.358   7.603 -0.5711 -0.3884  0.0985
   37POPC   H6R 4959   0.374   4.390   7.623 -0.3517 -0.1347 -1.4016
   37POPC   H6S 4960   0.262   4.277   7.528 -0.5121 -1.1124  0.8742
   37POPC   C27 4961   0.209   4.315   7.740  0.5729 -0.1012 -0.0623
   37POPC   H7R 4962   0.113   4.263   7.722  0.5179  0.3184 -1.0087
   37POPC   H7S 4963   0.192   4.399   7.811 -0.4948 -0.8949  0.6318
   37POPC   C28 4964   0.303   4.221   7.817  0.2826  1.0624  0.1604
   37POPC   H8R 4965   0.397   4.279   7.827  2.4156 -2.3739  0.4874
   37POPC   H8S 4966   0.330   4.140   7.747 -3.1638 -0.3950  0.4086
   37POPC   C29 4967   0.243   4.176   7.951  0.4355 -0.5780 -0.4039
   37POPC   H91 4968   0.225   4.257   8.023  0.7582 -1.5164  0.7401
   37POPC  C210 4969   0.232   4.053   8.005 -0.8226  0.4472 -0.4261
   37POPC  H101 4970   0.199   4.057   8.110 -0.0233  1.2717 -0.1992
   37POPC  C211 4971   0.272   3.927   7.943 -0.2322 -0.2673 -0.4509
   37POPC  H11R 4972   0.273   3.928   7.832 -0.7358 -1.4524 -0.4710
   37POPC  H11S 4973   0.196   3.851   7.969 -1.5351  0.9264 -0.6877
   37POPC  C212 4974   0.417   3.875   7.970  0.1982 -0.4843 -0.1928
   37POPC  H12R 4975   0.435   3.876   8.080  0.2193 -0.1895 -0.1970
   37POPC  H12S 4976   0.486   3.951   7.929  0.5479 -1.8515 -2.2015
   37POPC  C213 4977   0.443   3.734   7.916 -0.3086  0.1702 -0.2659
   37POPC  H13R 4978   0.375   3.669   7.975  1.9657 -1.5703  0.5195
   37POPC  H13S 4979   0.550   3.715   7.941 -0.3946  1.7123  1.3613
   37POPC  C214 4980   0.429   3.711   7.764 -0.2480 -0.4380 -0.0758
   37POPC  H14R 4981   0.329   3.743   7.728 -0.4057 -0.5555  0.2568
   37POPC  H14S 4982   0.436   3.602   7.745 -0.5800 -0.5661  0.5227
   37POPC  C215 4983   0.533   3.791   7.681 -0.0969 -0.4732  0.0942
   37POPC  H15R 4984   0.635   3.781   7.723 -0.0980 -0.8072  0.0146
   37POPC  H15S 4985   0.526   3.901   7.692 -0.2366 -0.5654  0.9750
   37POPC  C216 4986   0.542   3.754   7.532 -0.0298  0.6884  0.1216
   37POPC  H16R 4987   0.579   3.649   7.523  0.2999  0.6340  1.8038
   37POPC  H16S 4988   0.623   3.812   7.483  1.7170 -1.8655 -0.1461
   37POPC  C217 4989   0.411   3.770   7.449 -0.2118 -0.4122 -0.3444
   37POPC  H17R 4990   0.368   3.871   7.463  2.8853  0.7290  1.4904
   37POPC  H17S 4991   0.338   3.692   7.480 -0.5544  0.7745  1.8489
   37POPC  C218 4992   0.426   3.753   7.294  0.5205  0.1763  0.4511
   37POPC  H18R 4993   0.524   3.789   7.257  0.0841  2.4774  1.4134
   37POPC  H18S 4994   0.338   3.796   7.241 -0.4112 -2.0074  0.1999
   37POPC  H18T 4995   0.433   3.643   7.287 -0.5610  0.1967 -1.5401
   37POPC   C33 4996  -0.373   4.903   7.187  0.0718 -0.1964  0.1183
   37POPC   H3X 4997  -0.484   4.908   7.194  0.0646  3.2314 -1.5651
   37POPC   H3Y 4998  -0.334   4.996   7.232 -0.6437  0.8552 -1.4153
   37POPC   C34 4999  -0.323   4.793   7.279 -0.0634  0.6307 -0.0807
   37POPC   H4X 5000  -0.362   4.692   7.255  0.4236  0.1448  1.1612
   37POPC   H4Y 5001  -0.361   4.808   7.382 -0.7830 -2.8925  0.2108
   37POPC   C35 5002  -0.168   4.774   7.280  0.3486  0.0337  0.5062
   37POPC   H5X 5003  -0.122   4.750   7.181  1.6368 -0.5324  1.2373
   37POPC   H5Y 5004  -0.147   4.685   7.342 -0.0045  0.0146  0.6029
   37POPC   C36 5005  -0.081   4.894   7.338  0.0870  0.3433  0.0992
   37POPC   H6X 5006  -0.074   4.991   7.285  2.4441  0.5823  0.7762
   37POPC   H6Y 5007   0.021   4.855   7.357 -0.3981 -0.4619  1.1545
   37POPC   C37 5008  -0.135   4.930   7.485 -0.9911  0.5673  0.3561
   37POPC   H7X 5009  -0.236   4.975   7.474  0.2873  2.9346 -2.2718
   37POPC   H7Y 5010  -0.064   5.007   7.520  0.8499  0.3529 -2.6887
   37POPC   C38 5011  -0.120   4.813   7.581 -0.3498 -0.1563  0.2526
   37POPC   H8X 5012  -0.018   4.768   7.578  0.1445  0.7475  2.5528
   37POPC   H8Y 5013  -0.191   4.732   7.553  0.6096 -1.1717  0.7404
   37POPC   C39 5014  -0.144   4.859   7.730 -0.3368  0.8796 -0.6285
   37POPC   H9X 5015  -0.231   4.928   7.725 -1.5090 -0.2071  3.1526
   37POPC   H9Y 5016  -0.052   4.911   7.766  0.6363 -1.1021 -0.2111
   37POPC  C310 5017  -0.172   4.735   7.819 -0.4195  0.1530  0.8533
   37POPC  H10X 5018  -0.158   4.760   7.926  0.4023  1.7664  0.3809
   37POPC  H10Y 5019  -0.092   4.662   7.794 -0.2288  0.9810 -1.0699
   37POPC  C311 5020  -0.318   4.685   7.801  0.1449  0.4379  0.1636
   37POPC  H11X 5021  -0.339   4.621   7.712  1.0246  0.5030 -0.0952
   37POPC  H11Y 5022  -0.390   4.769   7.790  0.5078  0.8068  0.6389
   37POPC  C312 5023  -0.376   4.597   7.911 -0.0435  0.2455  0.1766
   37POPC  H12X 5024  -0.469   4.543   7.884 -0.1065  0.6340 -0.4048
   37POPC  H12Y 5025  -0.401   4.669   7.992 -1.9300 -2.1542  1.7919
   37POPC  C313 5026  -0.289   4.481   7.959  0.0815 -0.5373  0.5874
   37POPC  H13X 5027  -0.207   4.473   7.884 -1.1486  1.0297 -0.9659
   37POPC  H13Y 5028  -0.351   4.389   7.961 -0.2474 -0.3364 -0.2566
   37POPC  C314 5029  -0.222   4.501   8.093  0.3277  0.2565 -1.1370
   37POPC  H14X 5030  -0.307   4.504   8.164  0.4017 -0.6415 -1.0061
   37POPC  H14Y 5031  -0.164   4.596   8.089  0.6234  0.2099  1.3804
   37POPC  C315 5032  -0.132   4.386   8.131 -0.7667  0.8475  0.3690
   37POPC  H15X 5033  -0.129   4.308   8.052 -1.2595  0.9347  0.2645
   37POPC  H15Y 5034  -0.173   4.333   8.220  0.5382 -1.0718 -0.1293
   37POPC  C316 5035   0.016   4.418   8.155 -0.3207 -0.0077 -0.0265
   37POPC  H16X 5036   0.016   4.474   8.251  1.0909 -1.3184  0.7596
   37POPC  H16Y 5037   0.051   4.501   8.090 -1.7998  0.8441  0.2358
   37POPC  H16Z 5038   0.079   4.328   8.169 -1.4246 -0.5140  1.9802
   38POPC     N 5039   1.260   1.138   6.191  0.0986 -0.3969  0.1878
   38POPC   C12 5040   1.372   1.223   6.141  0.1524 -0.3126  0.0485
   38POPC  H12A 5041   1.397   1.297   6.215 -1.8204 -0.4010  0.8159
   38POPC  H12B 5042   1.343   1.274   6.051  2.1908  0.3198 -0.2746
   38POPC   C13 5043   1.256   1.000   6.139 -0.8638  0.9338 -0.9452
   38POPC  H13A 5044   1.166   0.944   6.160  0.9583 -2.2670 -1.2861
   38POPC  H13B 5045   1.267   0.998   6.032  0.5665  2.9862 -0.8578
   38POPC  H13C 5046   1.348   0.948   6.165 -1.3077 -0.0249 -1.2607
   38POPC   C14 5047   1.271   1.125   6.345  0.6235  0.7928  0.8802
   38POPC  H14A 5048   1.193   1.058   6.375  3.8911 -3.1335  1.0573
   38POPC  H14B 5049   1.365   1.078   6.371  0.4231  0.1034  0.3673
   38POPC  H14C 5050   1.261   1.221   6.394  1.8896  0.6978  1.3413
   38POPC   C15 5051   1.139   1.215   6.153 -0.1536  0.3167 -0.0360
   38POPC  H15A 5052   1.050   1.163   6.185 -1.1265  1.7112 -0.4392
   38POPC  H15B 5053   1.124   1.225   6.047  0.2046  0.6737 -0.0524
   38POPC  H15C 5054   1.145   1.313   6.198 -0.1269  0.1275  0.3853
   38POPC   C11 5055   1.507   1.150   6.110  0.0971 -0.3952 -0.0972
   38POPC  H11A 5056   1.485   1.099   6.014 -1.6620  1.9808 -0.9919
   38POPC  H11B 5057   1.527   1.075   6.190 -2.1210  1.5556  2.3931
   38POPC     P 5058   1.705   1.290   6.212  0.1013  0.2264 -0.0634
   38POPC   O13 5059   1.791   1.402   6.164  0.6754 -0.5323 -0.5891
   38POPC   O14 5060   1.777   1.170   6.272  0.0952  0.5325  0.2369
   38POPC   O12 5061   1.602   1.250   6.101 -0.1531  0.2504 -0.2214
   38POPC   O11 5062   1.599   1.342   6.316 -0.4104 -0.1405 -0.3946
   38POPC    C1 5063   1.649   1.426   6.421 -0.0502  0.1789  0.1449
   38POPC    HA 5064   1.572   1.499   6.456 -1.0793 -0.0204 -1.6551
   38POPC    HB 5065   1.733   1.491   6.388 -1.2745  2.4582  1.3450
   38POPC    C2 5066   1.687   1.349   6.554  0.3990  0.3664  0.5163
   38POPC    HS 5067   1.787   1.308   6.529 -0.7035 -1.8263 -0.4137
   38POPC   O21 5068   1.593   1.251   6.586  0.6817 -0.2099  0.2524
   38POPC   C21 5069   1.647   1.144   6.642 -0.0568  0.4544  0.1838
   38POPC   O22 5070   1.766   1.123   6.657 -0.7026  0.1633 -0.1584
   38POPC   C22 5071   1.549   1.029   6.654 -0.1257 -0.5503  0.0414
   38POPC   H2R 5072   1.616   0.953   6.700  1.3088  0.3918 -0.4385
   38POPC   H2S 5073   1.524   1.000   6.550 -0.0863  0.8148 -0.3604
   38POPC    C3 5074   1.706   1.450   6.674 -0.6943 -0.0396 -0.1086
   38POPC    HX 5075   1.606   1.497   6.685 -1.5081 -2.2026  2.1742
   38POPC    HY 5076   1.785   1.523   6.647 -0.7812  0.3398  0.6482
   38POPC   O31 5077   1.732   1.391   6.804 -0.7122  0.0237  0.0480
   38POPC   C31 5078   1.855   1.354   6.827 -0.6865 -0.3347 -0.1570
   38POPC   O32 5079   1.952   1.394   6.764  0.3825 -0.3067  0.2020
   38POPC   C32 5080   1.860   1.249   6.933 -0.3330  0.1425  0.5171
   38POPC   H2X 5081   1.814   1.157   6.890 -3.3063  1.2841  1.0966
   38POPC   H2Y 5082   1.787   1.286   7.008 -1.1061 -1.7311  0.7111
   38POPC   C23 5083   1.425   1.074   6.727 -0.6642 -0.3659 -0.3961
   38POPC   H3R 5084   1.355   0.988   6.737 -3.5950  1.7586 -1.7231
   38POPC   H3S 5085   1.370   1.153   6.671 -0.4135  0.8106  0.9953
   38POPC   C24 5086   1.464   1.123   6.869 -0.6982 -0.1438 -0.1461
   38POPC   H4R 5087   1.564   1.172   6.873 -1.6346  2.0580 -2.1997
   38POPC   H4S 5088   1.471   1.032   6.932  2.8782 -0.8538 -1.4571
   38POPC   C25 5089   1.361   1.211   6.947 -0.3524 -0.6488 -0.4775
   38POPC   H5R 5090   1.267   1.153   6.949 -0.6916 -0.2948 -3.3232
   38POPC   H5S 5091   1.332   1.307   6.898 -0.2215  0.6070  1.8405
   38POPC   C26 5092   1.417   1.252   7.088 -0.6688  0.3011  0.4278
   38POPC   H6R 5093   1.338   1.298   7.151 -1.1295  0.6726 -0.4174
   38POPC   H6S 5094   1.494   1.332   7.081 -1.4719  1.2678  2.3885
   38POPC   C27 5095   1.478   1.136   7.171 -0.0023  0.5214 -0.3399
   38POPC   H7R 5096   1.575   1.104   7.126  1.3416 -0.5349  3.1844
   38POPC   H7S 5097   1.406   1.052   7.182 -1.1777  1.5447 -0.1284
   38POPC   C28 5098   1.500   1.179   7.310 -0.0301  0.9118  0.2547
   38POPC   H8R 5099   1.401   1.216   7.345 -1.1985 -1.8880  0.0589
   38POPC   H8S 5100   1.566   1.268   7.315 -0.5881  1.2929  1.0192
   38POPC   C29 5101   1.562   1.064   7.392 -0.0737  0.1028 -1.1087
   38POPC   H91 5102   1.567   0.961   7.355 -0.2981 -0.8040  1.2925
   38POPC  C210 5103   1.608   1.076   7.517  1.0256 -0.3972 -0.2046
   38POPC  H101 5104   1.637   0.986   7.573  0.8913 -0.3088  0.0064
   38POPC  C211 5105   1.610   1.212   7.596  0.3107 -0.1131 -0.0410
   38POPC  H11R 5106   1.626   1.301   7.532 -0.3785 -0.5670 -0.8483
   38POPC  H11S 5107   1.701   1.220   7.660 -0.3499 -0.6808  0.9747
   38POPC  C212 5108   1.500   1.226   7.693  0.3175  0.3413  0.0197
   38POPC  H12R 5109   1.401   1.226   7.643  0.1284 -0.5444  0.3899
   38POPC  H12S 5110   1.510   1.325   7.742 -0.2658  0.8122 -0.7997
   38POPC  C213 5111   1.504   1.139   7.818  0.0791 -0.6181  0.0179
   38POPC  H13R 5112   1.535   1.039   7.782  1.5670 -0.1356 -0.0623
   38POPC  H13S 5113   1.399   1.136   7.854 -0.4049 -1.0607 -1.3945
   38POPC  C214 5114   1.588   1.190   7.933  0.0046 -0.3559 -0.9332
   38POPC  H14R 5115   1.571   1.297   7.956  0.6993 -0.2474 -0.9020
   38POPC  H14S 5116   1.696   1.173   7.910  0.1001  0.3750 -1.0471
   38POPC  C215 5117   1.568   1.117   8.066 -0.0711 -0.3015  0.1169
   38POPC  H15R 5118   1.615   1.016   8.069  0.9053 -0.0829 -4.2931
   38POPC  H15S 5119   1.463   1.082   8.074  0.0532 -0.7429 -0.1527
   38POPC  C216 5120   1.619   1.197   8.193  0.1401 -0.2063  0.7569
   38POPC  H16R 5121   1.637   1.114   8.265  0.3958 -0.6152  0.2202
   38POPC  H16S 5122   1.534   1.260   8.227  2.0069  1.1437  3.1074
   38POPC  C217 5123   1.758   1.266   8.193  0.4396 -0.7266 -0.4266
   38POPC  H17R 5124   1.740   1.376   8.198  1.5370 -0.5127 -0.9830
   38POPC  H17S 5125   1.816   1.248   8.100  0.5952 -0.7688 -0.3215
   38POPC  C218 5126   1.852   1.234   8.312  0.8415 -0.7860 -0.2596
   38POPC  H18R 5127   1.865   1.126   8.331  0.4599 -0.6781  0.6375
   38POPC  H18S 5128   1.806   1.281   8.402  0.2400 -0.4613 -0.7295
   38POPC  H18T 5129   1.951   1.282   8.297  0.2533  0.3465 -0.6039
   38POPC   C33 5130   2.006   1.224   6.978 -0.2133 -0.0790  0.4125
   38POPC   H3X 5131   2.005   1.191   7.084 -0.2323  0.0811  0.4606
   38POPC   H3Y 5132   2.054   1.323   6.990  0.6219 -0.4922  0.4903
   38POPC   C34 5133   2.084   1.133   6.889  0.4362 -0.4774  0.3881
   38POPC   H4X 5134   2.077   1.185   6.792 -2.8687  1.1988  1.4418
   38POPC   H4Y 5135   2.044   1.029   6.886  2.6995 -1.3867  0.7314
   38POPC   C35 5136   2.229   1.123   6.923  0.0033 -0.1230  0.9857
   38POPC   H5X 5137   2.279   1.221   6.909 -1.1413 -0.0301 -3.0195
   38POPC   H5Y 5138   2.275   1.054   6.849  1.7404  2.4724 -0.4225
   38POPC   C36 5139   2.252   1.059   7.060 -0.4057  0.4939 -0.8978
   38POPC   H6X 5140   2.191   0.969   7.080  3.1190 -1.1352  3.2117
   38POPC   H6Y 5141   2.221   1.129   7.141 -1.2880  0.4987 -1.2308
   38POPC   C37 5142   2.391   1.011   7.094  0.3059  0.0436  0.3272
   38POPC   H7X 5143   2.458   1.099   7.082 -2.0599  1.3479 -4.7162
   38POPC   H7Y 5144   2.419   0.934   7.019  1.6536  1.0017 -0.1755
   38POPC   C38 5145   2.386   0.956   7.242 -0.2018  0.1354 -0.6494
   38POPC   H8X 5146   2.309   0.876   7.256 -0.5457  0.5169 -0.3492
   38POPC   H8Y 5147   2.350   1.041   7.303  1.4762 -0.5010  1.2761
   38POPC   C39 5148   2.525   0.924   7.302 -0.2607  0.3677  0.2354
   38POPC   H9X 5149   2.593   1.009   7.281  1.3262 -1.7031 -3.3922
   38POPC   H9Y 5150   2.565   0.837   7.245 -0.6125 -0.4229  1.1667
   38POPC  C310 5151   2.520   0.905   7.450 -0.2069  0.5156 -0.1952
   38POPC  H10X 5152   2.481   0.805   7.478  0.5189  0.1236 -0.5816
   38POPC  H10Y 5153   2.462   0.990   7.493 -0.8309  0.2957 -0.5854
   38POPC  C311 5154   2.658   0.924   7.509  0.0773 -0.2331 -0.1398
   38POPC  H11X 5155   2.712   1.016   7.478 -1.9856  0.6055 -1.3072
   38POPC  H11Y 5156   2.716   0.834   7.478  1.8084  0.6863  0.3721
   38POPC  C312 5157   2.653   0.935   7.663 -0.3669  0.2512  0.4762
   38POPC  H12X 5158   2.611   0.836   7.693  2.1304 -1.1480 -0.4849
   38POPC  H12Y 5159   2.586   1.013   7.705  1.0227  0.3488  2.6008
   38POPC  C313 5160   2.801   0.938   7.714 -0.2344  0.1836 -0.1805
   38POPC  H13X 5161   2.847   1.034   7.682 -2.5280  1.6625  0.8153
   38POPC  H13Y 5162   2.854   0.857   7.661 -1.0450 -0.3323 -0.2069
   38POPC  C314 5163   2.805   0.919   7.867 -0.2471  0.3655 -0.2841
   38POPC  H14X 5164   2.771   0.816   7.893  2.7350 -0.2294  1.5272
   38POPC  H14Y 5165   2.724   0.986   7.904 -0.6068 -0.1769 -0.0766
   38POPC  C315 5166   2.932   0.948   7.939 -0.8467  0.0604  0.2667
   38POPC  H15X 5167   2.970   1.046   7.904 -1.0016 -0.2988 -0.9291
   38POPC  H15Y 5168   2.992   0.864   7.897 -2.5021 -1.5032  0.9494
   38POPC  C316 5169   2.928   0.927   8.095  0.2096 -0.0303  0.2002
   38POPC  H16X 5170   2.859   1.002   8.138 -0.6488 -0.1244 -0.9807
   38POPC  H16Y 5171   3.031   0.949   8.131 -1.1101  2.6176  2.4921
   38POPC  H16Z 5172   2.900   0.824   8.126  0.2134 -0.4033 -0.9913
   39POPC     N 5173   5.199   5.633   6.096 -0.3398  0.0850  0.1114
   39POPC   C12 5174   5.333   5.619   6.165  0.1681  0.6925  0.9396
   39POPC  H12A 5175   5.319   5.647   6.269  0.7098  1.9887  0.6682
   39POPC  H12B 5176   5.408   5.685   6.123  1.2102 -0.4466  1.0110
   39POPC   C13 5177   5.110   5.524   6.148  0.4860  0.6241 -0.0641
   39POPC  H13A 5178   5.063   5.461   6.074  1.0957  0.9024 -0.6924
   39POPC  H13B 5179   5.166   5.455   6.210  0.0170  0.3284  0.0344
   39POPC  H13C 5180   5.038   5.576   6.210  2.0103  1.2421  1.2135
   39POPC   C14 5181   5.143   5.765   6.117  0.6073 -0.0310  0.3600
   39POPC  H14A 5182   5.059   5.777   6.051  0.1432 -0.4846  0.8675
   39POPC  H14B 5183   5.100   5.779   6.215  0.8435  1.3068  0.2871
   39POPC  H14C 5184   5.212   5.844   6.091 -0.4240  0.2641 -1.5213
   39POPC   C15 5185   5.205   5.614   5.948  0.0697  0.2929 -0.9405
   39POPC  H15A 5186   5.236   5.706   5.903 -1.1820  1.8216  1.2263
   39POPC  H15B 5187   5.104   5.598   5.911  0.5715 -0.8459 -1.8514
   39POPC  H15C 5188   5.262   5.530   5.912  0.2775  0.5545 -1.2253
   39POPC   C11 5189   5.408   5.485   6.177  0.0828 -0.2447 -0.6898
   39POPC  H11A 5190   5.346   5.419   6.114  0.7690 -1.2781 -0.3106
   39POPC  H11B 5191   5.403   5.432   6.275  0.8601  0.2994 -0.3442
   39POPC     P 5192   5.654   5.571   6.165 -0.2783 -0.0299  0.2129
   39POPC   O13 5193   5.615   5.710   6.183 -0.1932 -0.4492 -0.7594
   39POPC   O14 5194   5.776   5.541   6.086 -0.4834  0.2152 -0.3618
   39POPC   O12 5195   5.533   5.491   6.110  0.1503 -0.3794 -0.0100
   39POPC   O11 5196   5.669   5.511   6.311 -0.1870  0.5156  0.1796
   39POPC    C1 5197   5.765   5.578   6.392  0.5197  0.0340 -0.0412
   39POPC    HA 5198   5.749   5.688   6.385 -2.1227 -0.2649  0.7668
   39POPC    HB 5199   5.868   5.542   6.370 -0.3932 -1.3251 -2.2868
   39POPC    C2 5200   5.750   5.528   6.532  0.4092  0.5243  0.2592
   39POPC    HS 5201   5.764   5.418   6.529 -2.1065  0.1864 -0.2194
   39POPC   O21 5202   5.623   5.574   6.581 -0.0565 -0.0422  0.0618
   39POPC   C21 5203   5.551   5.471   6.646  0.0972 -0.7983  0.5325
   39POPC   O22 5204   5.585   5.356   6.646 -0.3049  0.1710 -0.1657
   39POPC   C22 5205   5.435   5.530   6.734  2.1824 -0.2593 -0.1015
   39POPC   H2R 5206   5.342   5.519   6.675  2.4490 -0.8302 -0.4193
   39POPC   H2S 5207   5.456   5.635   6.763 -1.4393  1.0898 -2.0121
   39POPC    C3 5208   5.866   5.576   6.634 -1.0139 -0.7905 -0.0766
   39POPC    HX 5209   5.844   5.683   6.657  0.5026 -0.8072  1.6193
   39POPC    HY 5210   5.964   5.565   6.583 -0.8395  1.9533 -0.4004
   39POPC   O31 5211   5.874   5.505   6.761  0.1373  0.0273  0.4731
   39POPC   C31 5212   5.927   5.383   6.753  0.0551 -0.0786  0.5693
   39POPC   O32 5213   5.925   5.322   6.646 -0.3324  0.2630  0.4152
   39POPC   C32 5214   5.962   5.319   6.888  0.3319 -0.1820  0.1271
   39POPC   H2X 5215   5.985   5.401   6.960  0.8079 -0.4133  0.2332
   39POPC   H2Y 5216   5.873   5.261   6.921  0.0153 -0.1236 -0.6118
   39POPC   C23 5217   5.398   5.437   6.856  0.4003 -0.2040 -0.3039
   39POPC   H3R 5218   5.371   5.341   6.808 -0.7401 -0.7563  1.3851
   39POPC   H3S 5219   5.310   5.486   6.903 -0.5159  1.0175 -3.1721
   39POPC   C24 5220   5.499   5.409   6.962 -0.4612  0.0062  0.9531
   39POPC   H4R 5221   5.576   5.340   6.922 -0.4113  0.1837  0.7439
   39POPC   H4S 5222   5.449   5.358   7.047 -0.2872  2.0470  2.3190
   39POPC   C25 5223   5.575   5.532   7.006 -0.4597 -0.0988  0.4975
   39POPC   H5R 5224   5.493   5.603   7.030 -0.2014  0.3351  0.1046
   39POPC   H5S 5225   5.631   5.573   6.919 -0.0846  0.0233  0.7970
   39POPC   C26 5226   5.655   5.512   7.138  0.2931  0.7797 -0.7794
   39POPC   H6R 5227   5.729   5.429   7.136  1.3770  1.7537 -3.0699
   39POPC   H6S 5228   5.588   5.503   7.226 -0.4151  1.3014 -1.2676
   39POPC   C27 5229   5.748   5.637   7.163  0.0333  0.0080  0.2745
   39POPC   H7R 5230   5.689   5.723   7.125  0.1628  0.9389  2.1065
   39POPC   H7S 5231   5.844   5.633   7.108 -1.3244  1.3480 -2.2597
   39POPC   C28 5232   5.776   5.643   7.319 -0.1378 -0.0229 -0.5119
   39POPC   H8R 5233   5.679   5.661   7.370 -0.1148 -1.5137  0.0872
   39POPC   H8S 5234   5.839   5.732   7.336 -1.4365  0.8085 -0.0209
   39POPC   C29 5235   5.864   5.536   7.385 -0.2103 -0.1632  0.1678
   39POPC   H91 5236   5.957   5.507   7.332  0.1920  1.6402 -0.1467
   39POPC  C210 5237   5.857   5.500   7.513  0.1616 -0.1047  0.0820
   39POPC  H101 5238   5.928   5.424   7.549  2.0586  1.2038 -0.8427
   39POPC  C211 5239   5.755   5.544   7.618 -0.0193  0.3384 -0.4842
   39POPC  H11R 5240   5.710   5.449   7.653 -1.5981  0.9732 -0.7654
   39POPC  H11S 5241   5.673   5.608   7.579 -0.5476  0.1563  0.3103
   39POPC  C212 5242   5.827   5.615   7.740 -0.4745 -0.0168 -0.7853
   39POPC  H12R 5243   5.879   5.705   7.700 -1.0724  1.5921  1.9402
   39POPC  H12S 5244   5.895   5.545   7.793 -1.4407  0.4818  1.1472
   39POPC  C213 5245   5.721   5.669   7.843  0.2453  0.4725  0.0565
   39POPC  H13R 5246   5.682   5.578   7.894  0.4002  0.2614 -0.1932
   39POPC  H13S 5247   5.644   5.718   7.780  0.5552  1.2672  0.2906
   39POPC  C214 5248   5.779   5.768   7.939 -0.4278  0.6049 -0.5694
   39POPC  H14R 5249   5.710   5.848   7.973 -2.7870 -1.5820 -0.1248
   39POPC  H14S 5250   5.864   5.823   7.892 -0.9450  0.0213 -2.2284
   39POPC  C215 5251   5.829   5.709   8.074 -0.1598  1.0639  0.1487
   39POPC  H15R 5252   5.889   5.618   8.051  0.1720  1.3291 -0.0323
   39POPC  H15S 5253   5.738   5.671   8.126  0.4084 -2.9478 -1.5899
   39POPC  C216 5254   5.915   5.796   8.164  1.0407  0.2092  0.2821
   39POPC  H16R 5255   5.843   5.826   8.243 -0.6985 -0.0319 -1.1872
   39POPC  H16S 5256   5.959   5.875   8.099 -1.7682  0.5220 -1.3100
   39POPC  C217 5257   6.021   5.717   8.233  0.4892  0.4475 -0.1781
   39POPC  H17R 5258   6.085   5.785   8.293  0.7392  0.6072 -0.6281
   39POPC  H17S 5259   6.087   5.676   8.154  1.2761  0.5304  0.4322
   39POPC  C218 5260   5.979   5.599   8.310 -0.4097  1.0341 -0.3056
   39POPC  H18R 5261   5.980   5.496   8.268 -4.1153  0.3502  1.0922
   39POPC  H18S 5262   5.878   5.615   8.353 -0.8367  0.7600 -1.2000
   39POPC  H18T 5263   6.044   5.585   8.400 -0.9757  0.7578  0.0664
   39POPC   C33 5264   6.075   5.216   6.875  0.5014  0.0713  0.1979
   39POPC   H3X 5265   6.167   5.262   6.833 -2.0235  5.2413 -0.0346
   39POPC   H3Y 5266   6.043   5.141   6.798  0.8777  1.0325 -0.9166
   39POPC   C34 5267   6.100   5.133   7.003 -0.3556  0.3315  0.5675
   39POPC   H4X 5268   6.186   5.066   6.980  0.6601  2.0563 -0.8019
   39POPC   H4Y 5269   6.011   5.069   7.021 -1.1396  1.1898 -0.1840
   39POPC   C35 5270   6.154   5.222   7.116  0.3094  0.3606  0.4587
   39POPC   H5X 5271   6.087   5.310   7.130 -1.5018 -0.9248  0.1670
   39POPC   H5Y 5272   6.254   5.250   7.077 -0.7548  2.3692 -0.9558
   39POPC   C36 5273   6.152   5.148   7.255 -0.3308 -0.2016 -0.1211
   39POPC   H6X 5274   6.215   5.058   7.240 -0.0391 -0.4646  2.4908
   39POPC   H6Y 5275   6.048   5.130   7.289  0.4638  1.1999  3.2143
   39POPC   C37 5276   6.215   5.238   7.367  0.9293 -0.1266 -0.2448
   39POPC   H7X 5277   6.161   5.335   7.363  0.8719  0.0034  2.5702
   39POPC   H7Y 5278   6.324   5.254   7.352  0.6722  0.7591 -1.1818
   39POPC   C38 5279   6.205   5.179   7.509 -0.4903  0.9524 -0.6064
   39POPC   H8X 5280   6.283   5.100   7.516 -0.5049  1.0317  0.4699
   39POPC   H8Y 5281   6.105   5.132   7.519 -0.6137  1.3690  0.0950
   39POPC   C39 5282   6.217   5.287   7.619 -0.3279  0.6212  0.2947
   39POPC   H9X 5283   6.119   5.338   7.619 -0.7263 -0.0547 -2.6871
   39POPC   H9Y 5284   6.306   5.351   7.600 -0.4336  0.1791 -1.8928
   39POPC  C310 5285   6.231   5.225   7.755 -0.0491 -0.7879  0.2675
   39POPC  H10X 5286   6.324   5.166   7.769 -1.1916 -2.3483  1.2639
   39POPC  H10Y 5287   6.142   5.162   7.775 -1.0858 -1.1718 -4.8376
   39POPC  C311 5288   6.237   5.317   7.871 -0.4502 -0.1005  0.2155
   39POPC  H11X 5289   6.150   5.385   7.875 -1.6778 -1.6996  1.1054
   39POPC  H11Y 5290   6.328   5.381   7.863 -1.1168  0.5537 -2.8134
   39POPC  C312 5291   6.233   5.247   8.003 -0.1607 -0.5124  0.3038
   39POPC  H12X 5292   6.304   5.162   8.007  1.7696  0.9323 -2.4601
   39POPC  H12Y 5293   6.129   5.213   8.027 -0.0824 -0.7471  0.3110
   39POPC  C313 5294   6.272   5.340   8.124  0.4610 -0.0075 -0.5171
   39POPC  H13X 5295   6.212   5.433   8.113 -2.6429 -1.7318  0.9406
   39POPC  H13Y 5296   6.379   5.359   8.104  0.3645  0.5447 -0.5125
   39POPC  C314 5297   6.235   5.269   8.250 -0.2602 -0.2301 -0.5784
   39POPC  H14X 5298   6.292   5.174   8.261 -0.5040 -0.4718 -1.3243
   39POPC  H14Y 5299   6.126   5.255   8.236 -0.2240  0.4782 -1.6962
   39POPC  C315 5300   6.276   5.357   8.368 -0.2094 -0.5277 -0.4374
   39POPC  H15X 5301   6.257   5.466   8.355  2.8418  0.1879  0.6019
   39POPC  H15Y 5302   6.387   5.353   8.358 -0.0556  2.4951 -0.6493
   39POPC  C316 5303   6.222   5.305   8.505  0.3803 -0.9815  0.6861
   39POPC  H16X 5304   6.112   5.319   8.503  0.6738  1.5421 -1.6511
   39POPC  H16Y 5305   6.260   5.367   8.589 -1.5580  3.0104 -1.2034
   39POPC  H16Z 5306   6.231   5.196   8.523 -0.4824 -0.8190  2.0755
   40POPC     N 5307   4.334   2.439   6.246 -0.3902 -0.7831  0.1874
   40POPC   C12 5308   4.185   2.467   6.207  0.3778 -0.3243 -0.1618
   40POPC  H12A 5309   4.140   2.383   6.157 -1.2935  0.4476  0.0151
   40POPC  H12B 5310   4.184   2.551   6.140 -2.6674 -0.4736 -0.3930
   40POPC   C13 5311   4.424   2.451   6.125  0.3210 -0.2617 -1.3425
   40POPC  H13A 5312   4.408   2.371   6.055 -0.3236 -1.4562  0.1408
   40POPC  H13B 5313   4.420   2.545   6.073  0.1381 -0.7548 -2.2352
   40POPC  H13C 5314   4.529   2.447   6.148 -0.1159  0.4757  0.8956
   40POPC   C14 5315   4.373   2.544   6.342  0.0074 -0.6316  0.2301
   40POPC  H14A 5316   4.365   2.644   6.300 -0.5482  0.1235  2.1021
   40POPC  H14B 5317   4.314   2.549   6.432 -0.8280 -1.2555 -0.2822
   40POPC  H14C 5318   4.474   2.524   6.374  0.1246  0.0247  0.2811
   40POPC   C15 5319   4.361   2.313   6.321  0.2154  0.8511  0.4330
   40POPC  H15A 5320   4.467   2.303   6.340 -0.0955 -1.1673  1.1746
   40POPC  H15B 5321   4.327   2.231   6.260  0.9745  0.7790  0.1045
   40POPC  H15C 5322   4.315   2.309   6.419  2.1076 -0.8666  1.2803
   40POPC   C11 5323   4.088   2.499   6.327 -0.6208  0.1005 -0.5618
   40POPC  H11A 5324   4.111   2.422   6.404 -1.5886  0.2340 -0.1285
   40POPC  H11B 5325   3.982   2.481   6.302  0.1948 -1.2704 -3.1949
   40POPC     P 5326   4.060   2.760   6.306  0.1851 -0.8279 -0.7090
   40POPC   O13 5327   3.916   2.758   6.289 -0.4932  0.0756  0.0525
   40POPC   O14 5328   4.138   2.774   6.183  0.0609 -0.4571  0.0968
   40POPC   O12 5329   4.107   2.630   6.381 -0.3992  0.1495 -0.3713
   40POPC   O11 5330   4.101   2.873   6.403  0.2651  0.0372 -0.2300
   40POPC    C1 5331   4.224   2.873   6.477  0.8050 -0.6556 -0.9104
   40POPC    HA 5332   4.276   2.969   6.456 -1.1894  0.5822 -0.3172
   40POPC    HB 5333   4.288   2.788   6.448  0.2997 -1.6220  0.7706
   40POPC    C2 5334   4.188   2.875   6.628 -0.3184  0.7494  0.1595
   40POPC    HS 5335   4.284   2.879   6.684  0.0834 -1.4012 -0.3289
   40POPC   O21 5336   4.117   2.760   6.678  0.0456 -0.3183  0.7792
   40POPC   C21 5337   4.178   2.646   6.673  0.4868 -0.2313 -0.6674
   40POPC   O22 5338   4.295   2.624   6.657  0.1671  0.1421  0.5776
   40POPC   C22 5339   4.072   2.538   6.696  0.4769 -0.4084  0.4392
   40POPC   H2R 5340   4.013   2.533   6.601 -0.4030 -0.7060  0.9908
   40POPC   H2S 5341   4.000   2.575   6.772 -1.2801 -0.6061 -1.0728
   40POPC    C3 5342   4.108   3.003   6.658 -0.3267 -0.6457  0.2241
   40POPC    HX 5343   4.014   2.995   6.601  0.0880  0.5791 -0.6313
   40POPC    HY 5344   4.167   3.087   6.615 -0.2753 -2.3981 -3.2633
   40POPC   O31 5345   4.095   3.013   6.802 -0.4351  0.0604  0.2440
   40POPC   C31 5346   4.197   3.057   6.868 -0.6983 -0.3198  0.3742
   40POPC   O32 5347   4.311   3.071   6.827 -0.0535  0.0747  0.2935
   40POPC   C32 5348   4.150   3.078   7.019  0.0908  0.1975 -0.3154
   40POPC   H2X 5349   4.139   2.981   7.071 -0.7443  0.6733  0.4054
   40POPC   H2Y 5350   4.050   3.124   7.003  0.3843  0.5275 -1.2268
   40POPC   C23 5351   4.115   2.398   6.748  0.8295  0.4071 -0.4999
   40POPC   H3R 5352   4.178   2.355   6.667  0.6311 -0.5918 -0.1270
   40POPC   H3S 5353   4.020   2.341   6.754  0.4012  1.2918  1.7088
   40POPC   C24 5354   4.175   2.396   6.889  0.3799 -0.2277  0.3475
   40POPC   H4R 5355   4.217   2.494   6.918 -0.6131  0.1248  0.6081
   40POPC   H4S 5356   4.257   2.320   6.884  0.5766 -0.0996  1.4840
   40POPC   C25 5357   4.072   2.359   6.995 -0.4105 -0.1426  0.2014
   40POPC   H5R 5358   4.016   2.268   6.965  0.9705 -1.1633  0.6913
   40POPC   H5S 5359   3.993   2.437   7.003 -0.6110 -0.2963 -0.2716
   40POPC   C26 5360   4.137   2.355   7.139  0.3175  0.5732  0.0842
   40POPC   H6R 5361   4.182   2.455   7.150  2.3010 -0.1756 -0.9058
   40POPC   H6S 5362   4.224   2.285   7.139 -1.1434 -1.3200  2.4020
   40POPC   C27 5363   4.045   2.321   7.263 -0.1789  0.4609 -0.2026
   40POPC   H7R 5364   4.009   2.218   7.245  0.7125 -0.0503  0.8797
   40POPC   H7S 5365   3.965   2.398   7.263 -0.7843 -0.1686 -1.0292
   40POPC   C28 5366   4.115   2.323   7.402 -0.2610 -0.3201 -0.0411
   40POPC   H8R 5367   4.207   2.261   7.397 -0.2377 -0.3615  0.7901
   40POPC   H8S 5368   4.049   2.281   7.481 -0.9317  2.7290  1.0659
   40POPC   C29 5369   4.179   2.458   7.438 -0.2558  0.4186 -0.0606
   40POPC   H91 5370   4.264   2.498   7.380 -0.1975  1.2890  0.6165
   40POPC  C210 5371   4.148   2.537   7.538 -0.3064 -0.0468  0.3564
   40POPC  H101 5372   4.219   2.619   7.557  0.0733 -0.3098  0.0950
   40POPC  C211 5373   4.037   2.519   7.639  0.2035  0.0021  0.6205
   40POPC  H11R 5374   3.977   2.428   7.617  0.6295 -0.4630  1.3794
   40POPC  H11S 5375   3.965   2.601   7.617 -1.5001 -1.8379 -0.9131
   40POPC  C212 5376   4.093   2.525   7.785 -0.5541  0.3691 -0.3441
   40POPC  H12R 5377   4.154   2.615   7.806  0.6443 -0.3180 -0.8692
   40POPC  H12S 5378   4.151   2.432   7.800 -1.2761 -0.7076 -3.7145
   40POPC  C213 5379   3.972   2.534   7.885 -0.4331  1.2505  0.5999
   40POPC  H13R 5380   3.906   2.447   7.867  0.6728  0.7839 -1.4038
   40POPC  H13S 5381   3.921   2.629   7.856  0.2043  0.2497 -4.1999
   40POPC  C214 5382   4.028   2.532   8.027  0.2116 -0.2573 -0.2620
   40POPC  H14R 5383   4.121   2.592   8.027  1.1561 -1.6872 -0.0317
   40POPC  H14S 5384   4.055   2.426   8.046 -0.9146 -0.7888 -1.5677
   40POPC  C215 5385   3.925   2.567   8.130  0.3086 -0.3447  0.6865
   40POPC  H15R 5386   3.839   2.498   8.125 -0.1835  0.3851 -1.2585
   40POPC  H15S 5387   3.881   2.667   8.110 -1.6193 -0.7895  2.5421
   40POPC  C216 5388   4.003   2.586   8.259  0.3077 -0.0274  0.1511
   40POPC  H16R 5389   4.045   2.688   8.261  0.2658  0.0061 -0.6263
   40POPC  H16S 5390   4.078   2.504   8.267 -1.7430 -2.3114 -2.7216
   40POPC  C217 5391   3.908   2.568   8.373 -0.1585 -0.0011  0.3094
   40POPC  H17R 5392   3.826   2.642   8.362 -0.8119 -0.3560  2.5497
   40POPC  H17S 5393   3.945   2.593   8.475  1.7885  1.5621 -0.7280
   40POPC  C218 5394   3.840   2.433   8.392 -0.2625 -0.0389 -1.1105
   40POPC  H18R 5395   3.779   2.388   8.312 -0.7785  1.2018 -1.4306
   40POPC  H18S 5396   3.768   2.447   8.476 -0.1274 -1.4165 -0.7434
   40POPC  H18T 5397   3.921   2.364   8.426  0.0644  0.9536  0.1994
   40POPC   C33 5398   4.221   3.185   7.096 -0.5770  0.0402 -0.4538
   40POPC   H3X 5399   4.186   3.285   7.063 -1.7237  0.5536  2.2318
   40POPC   H3Y 5400   4.329   3.174   7.073 -0.2487  0.5396  0.8262
   40POPC   C34 5401   4.197   3.167   7.245 -0.0586 -0.1765  0.4787
   40POPC   H4X 5402   4.261   3.088   7.290  0.8288  0.0726 -0.3196
   40POPC   H4Y 5403   4.090   3.147   7.268 -0.1732 -0.6975 -0.4479
   40POPC   C35 5404   4.237   3.295   7.322 -0.3944 -0.7832  0.0809
   40POPC   H5X 5405   4.161   3.374   7.307 -0.5733 -1.1388 -0.9538
   40POPC   H5Y 5406   4.339   3.323   7.291 -2.0258  2.6955 -2.4190
   40POPC   C36 5407   4.238   3.259   7.473 -0.0468  0.0587  0.0038
   40POPC   H6X 5408   4.313   3.177   7.479  1.1866  1.2163  0.8889
   40POPC   H6Y 5409   4.138   3.214   7.490 -0.8449  1.6507 -0.4432
   40POPC   C37 5410   4.287   3.369   7.566  0.5722 -0.4929 -0.1664
   40POPC   H7X 5411   4.213   3.451   7.554  1.2435  0.1646  0.2252
   40POPC   H7Y 5412   4.384   3.409   7.529  0.9502  1.0319  2.4118
   40POPC   C38 5413   4.288   3.314   7.707 -0.4990 -0.1117  0.8605
   40POPC   H8X 5414   4.361   3.230   7.710 -1.2014 -0.6840  2.5418
   40POPC   H8Y 5415   4.193   3.275   7.749 -0.3498 -1.3891  0.0407
   40POPC   C39 5416   4.339   3.423   7.806  0.6353 -0.5299  0.1852
   40POPC   H9X 5417   4.429   3.463   7.755  0.1527  1.1919  0.6342
   40POPC   H9Y 5418   4.384   3.387   7.901  0.3498  0.2532  0.6189
   40POPC  C310 5419   4.233   3.531   7.830 -0.4920 -0.2727  0.2712
   40POPC  H10X 5420   4.135   3.486   7.859  0.7406 -3.4123 -0.2210
   40POPC  H10Y 5421   4.224   3.585   7.734 -0.5383  0.7090  0.8135
   40POPC  C311 5422   4.283   3.644   7.921  0.7651 -0.1112 -0.3308
   40POPC  H11X 5423   4.207   3.725   7.917  0.5712 -0.3851 -4.4341
   40POPC  H11Y 5424   4.382   3.679   7.886 -0.4488  2.1234 -1.6510
   40POPC  C312 5425   4.303   3.598   8.067  0.4828 -0.0473  0.2114
   40POPC  H12X 5426   4.391   3.529   8.069  1.7062  1.5117  1.6834
   40POPC  H12Y 5427   4.221   3.532   8.101 -0.6527  0.4460 -1.5173
   40POPC  C313 5428   4.327   3.716   8.166  0.5967 -0.2004 -0.0111
   40POPC  H13X 5429   4.409   3.776   8.122 -0.8239  1.9698  0.2105
   40POPC  H13Y 5430   4.365   3.652   8.249 -0.9818 -1.2908 -0.0947
   40POPC  C314 5431   4.203   3.802   8.204 -0.1722  0.1264 -0.2473
   40POPC  H14X 5432   4.126   3.737   8.253 -1.5430  2.8014  1.2691
   40POPC  H14Y 5433   4.150   3.836   8.113  0.4875  2.0709  0.0663
   40POPC  C315 5434   4.239   3.920   8.289  0.8803  0.1492  0.2008
   40POPC  H15X 5435   4.148   3.976   8.319 -0.1849 -1.7506  0.6110
   40POPC  H15Y 5436   4.306   3.985   8.229  0.8433  1.8599  1.9630
   40POPC  C316 5437   4.301   3.903   8.432  0.1045 -0.0316 -0.4023
   40POPC  H16X 5438   4.306   4.002   8.481  0.6730  0.1725 -0.8557
   40POPC  H16Y 5439   4.402   3.857   8.427  0.2131  0.3235 -1.6794
   40POPC  H16Z 5440   4.241   3.827   8.486  1.0209  0.0783  0.8024
   41CHL1    C3 5441   3.817   6.805  10.130  0.9545  0.3250  0.2257
   41CHL1    H3 5442   3.923   6.777  10.113  0.4957 -0.9637 -0.6121
   41CHL1    O3 5443   3.761   6.752  10.252 -0.2330  0.0239 -0.1196
   41CHL1   H3' 5444   3.799   6.807  10.322  0.3545  0.5416 -0.8423
   41CHL1    C4 5445   3.815   6.956  10.142  0.3626 -0.3570  0.1421
   41CHL1   H4A 5446   3.712   6.989  10.169  0.5237  0.9445 -0.7699
   41CHL1   H4B 5447   3.879   6.987  10.228 -0.2583  0.1784  0.4174
   41CHL1    C5 5448   3.853   7.021  10.010 -0.3629  0.7470  0.4311
   41CHL1    C6 5449   3.959   7.102  10.004 -0.4104  0.6408  1.0592
   41CHL1    H6 5450   4.002   7.137  10.099 -0.0492  1.4481  0.6010
   41CHL1    C7 5451   4.016   7.171   9.889 -0.2768  0.1241  0.6229
   41CHL1   H7A 5452   4.037   7.277   9.914 -1.5062  0.2446  1.1378
   41CHL1   H7B 5453   4.106   7.117   9.853  0.6759  0.0253  3.1028
   41CHL1    C8 5454   3.922   7.161   9.766  0.8890  1.0586  0.4172
   41CHL1    H8 5455   3.849   7.241   9.789  0.1693  0.1207  1.4543
   41CHL1   C14 5456   3.989   7.187   9.636  0.0665  0.3593  1.3416
   41CHL1   H14 5457   4.061   7.104   9.620  1.4745  2.2032 -2.3958
   41CHL1   C15 5458   4.084   7.312   9.628 -0.4082  0.2233 -0.6540
   41CHL1  H15A 5459   4.024   7.398   9.663  1.3759  2.0847 -2.0784
   41CHL1  H15B 5460   4.176   7.301   9.691  0.2181  0.4793 -1.5200
   41CHL1   C16 5461   4.115   7.323   9.475 -0.4784 -0.1195  0.1789
   41CHL1  H16A 5462   4.112   7.431   9.448 -1.2440  0.5459  2.7930
   41CHL1  H16B 5463   4.219   7.292   9.454 -0.1986 -0.6123  2.2319
   41CHL1   C17 5464   4.008   7.225   9.407  0.3403 -0.2367 -0.2428
   41CHL1   H17 5465   4.067   7.132   9.394 -1.1834 -1.6381  2.5195
   41CHL1   C13 5466   3.897   7.194   9.510 -0.7979 -0.1417  0.4980
   41CHL1   C18 5467   3.798   7.312   9.520  0.0433  0.0841  0.5157
   41CHL1  H18A 5468   3.851   7.409   9.530 -0.7180  0.5829 -0.1753
   41CHL1  H18B 5469   3.731   7.325   9.432 -0.3656  1.9493  1.0703
   41CHL1  H18C 5470   3.738   7.290   9.611 -0.2729 -1.7918 -0.1276
   41CHL1   C12 5471   3.824   7.057   9.498 -0.3133  0.8138  0.2062
   41CHL1  H12A 5472   3.759   7.046   9.408 -0.0320 -2.2771  0.3308
   41CHL1  H12B 5473   3.905   6.982   9.490  1.4545  2.8226 -1.4426
   41CHL1   C11 5474   3.750   7.026   9.634  0.6302  0.0170 -0.2803
   41CHL1  H11A 5475   3.667   7.097   9.653  2.3275  1.1043  3.6642
   41CHL1  H11B 5476   3.706   6.925   9.620  1.7859 -0.6883  0.9905
   41CHL1    C9 5477   3.844   7.027   9.758 -0.3292 -0.3931 -0.3363
   41CHL1    H9 5478   3.925   6.954   9.736  0.5040 -0.2184  2.0665
   41CHL1   C10 5479   3.780   6.972   9.887  0.1074 -0.5976 -0.7648
   41CHL1   C19 5480   3.627   7.016   9.891  0.0788  0.2467 -0.0411
   41CHL1  H19A 5481   3.608   7.124   9.877 -1.8764  0.0869  1.1819
   41CHL1  H19B 5482   3.575   6.960   9.810  0.9621 -1.5573  0.6186
   41CHL1  H19C 5483   3.580   6.988   9.988  0.5548 -0.9102 -0.1391
   41CHL1    C1 5484   3.788   6.820   9.889 -0.4070  0.1887 -0.0273
   41CHL1   H1A 5485   3.738   6.768   9.805 -0.5108 -0.5501  0.4832
   41CHL1   H1B 5486   3.896   6.796   9.889  0.3698  3.4435  1.6536
   41CHL1    C2 5487   3.728   6.755  10.017  0.0556  0.2591 -0.3814
   41CHL1   H2A 5488   3.751   6.646  10.013  4.0137  0.8172  3.4217
   41CHL1   H2B 5489   3.620   6.768  10.038 -0.0843 -1.1207 -0.1891
   41CHL1   C20 5490   3.969   7.273   9.272  0.6898 -0.8530 -0.2353
   41CHL1   H20 5491   3.919   7.371   9.287 -0.2777 -1.6762  2.1174
   41CHL1   C21 5492   3.865   7.177   9.210 -0.0059 -0.1958  0.2308
   41CHL1  H21A 5493   3.850   7.218   9.108 -1.6883  2.3103  1.4529
   41CHL1  H21B 5494   3.762   7.182   9.250  0.4118 -0.4846  1.3723
   41CHL1  H21C 5495   3.910   7.075   9.204 -0.5199 -0.3783 -0.5690
   41CHL1   C22 5496   4.085   7.291   9.175  0.2830 -0.0323 -0.1762
   41CHL1  H22A 5497   4.047   7.343   9.085 -0.3808  1.8771  1.1789
   41CHL1  H22B 5498   4.156   7.364   9.221 -0.1421  0.8278 -0.8712
   41CHL1   C23 5499   4.148   7.165   9.119  0.9727  0.2650 -0.2275
   41CHL1  H23A 5500   4.178   7.098   9.203 -0.1506  1.5001  1.1745
   41CHL1  H23B 5501   4.080   7.106   9.054  0.2440  1.0816 -0.2107
   41CHL1   C24 5502   4.280   7.194   9.036 -0.0213  0.4391  0.0479
   41CHL1  H24A 5503   4.250   7.260   8.952  3.0798 -0.3209 -1.7423
   41CHL1  H24B 5504   4.365   7.238   9.093  0.9417 -0.7432 -0.4546
   41CHL1   C25 5505   4.344   7.065   8.988  0.3019  0.8135 -0.2802
   41CHL1   H25 5506   4.355   7.000   9.077  1.3463  0.9653 -0.2972
   41CHL1   C26 5507   4.254   7.000   8.881  0.0300  0.8182  0.1460
   41CHL1  H26A 5508   4.290   6.901   8.845  0.7713  0.4315  1.8675
   41CHL1  H26B 5509   4.150   6.992   8.920 -0.0952  1.9796  0.0739
   41CHL1  H26C 5510   4.243   7.064   8.791  2.1848 -0.9235 -1.4034
   41CHL1   C27 5511   4.477   7.087   8.923  0.2613  0.0332  0.9019
   41CHL1  H27A 5512   4.546   7.137   8.994 -0.6124 -0.4827  2.1289
   41CHL1  H27B 5513   4.526   6.991   8.893  0.6061 -0.6058  3.3623
   41CHL1  H27C 5514   4.458   7.157   8.840  0.0956 -0.9848  0.0654
   42CHL1    C3 5515   3.471   6.065   9.796  0.2045 -0.5104  0.4051
   42CHL1    H3 5516   3.381   6.014   9.757  1.7656 -1.9154 -1.4510
   42CHL1    O3 5517   3.483   6.052   9.935 -1.3551  0.1120 -0.0255
   42CHL1   H3' 5518   3.574   6.077   9.955 -0.8776 -0.9847 -0.7573
   42CHL1    C4 5519   3.601   6.008   9.735 -0.7944  0.6018 -0.1351
   42CHL1   H4A 5520   3.690   6.065   9.769  1.6340 -2.3804 -1.2312
   42CHL1   H4B 5521   3.610   5.902   9.769 -0.5137  0.5473 -0.3697
   42CHL1    C5 5522   3.601   6.030   9.584 -0.0365  0.8210  0.0359
   42CHL1    C6 5523   3.604   5.927   9.497  0.1031  0.3566  0.4557
   42CHL1    H6 5524   3.624   5.824   9.530 -0.4127  0.2540  0.4515
   42CHL1    C7 5525   3.597   5.944   9.344  0.7128 -0.6762 -0.3751
   42CHL1   H7A 5526   3.661   5.873   9.287 -1.2214 -2.9526  0.2085
   42CHL1   H7B 5527   3.491   5.921   9.321  0.5366 -0.8104  0.5697
   42CHL1    C8 5528   3.614   6.098   9.306  0.0916  0.7022  0.3223
   42CHL1    H8 5529   3.723   6.119   9.319 -0.0054  0.6712  1.2497
   42CHL1   C14 5530   3.574   6.117   9.157 -0.5073  0.0142  1.0655
   42CHL1   H14 5531   3.463   6.109   9.152 -0.4778 -0.0334  0.3989
   42CHL1   C15 5532   3.650   6.014   9.055  0.4463  0.4556 -0.4150
   42CHL1  H15A 5533   3.750   5.993   9.100  0.2890 -0.4443 -0.4867
   42CHL1  H15B 5534   3.586   5.926   9.037  1.3301 -0.1689 -0.5534
   42CHL1   C16 5535   3.649   6.093   8.923  0.1219  0.4815 -0.0456
   42CHL1  H16A 5536   3.749   6.109   8.879  0.4937  0.9557  0.9558
   42CHL1  H16B 5537   3.585   6.029   8.858 -0.1489  0.0225  0.6697
   42CHL1   C17 5538   3.580   6.231   8.959  0.2354 -0.3468  0.0027
   42CHL1   H17 5539   3.470   6.221   8.950  0.2638  0.7105 -1.6311
   42CHL1   C13 5540   3.609   6.254   9.108 -0.9679  0.3062 -0.0190
   42CHL1   C18 5541   3.757   6.293   9.118 -0.3794 -0.3196  0.3065
   42CHL1  H18A 5542   3.773   6.395   9.077 -2.6789  1.0103  2.5725
   42CHL1  H18B 5543   3.793   6.294   9.224 -0.7448 -0.2319  0.4297
   42CHL1  H18C 5544   3.825   6.216   9.075  1.7975  1.1914  0.9583
   42CHL1   C12 5545   3.516   6.350   9.190 -0.0165  0.3079  0.9183
   42CHL1  H12A 5546   3.539   6.454   9.159 -1.6038  0.3939 -0.0335
   42CHL1  H12B 5547   3.411   6.343   9.154  0.0730  1.5605  0.3771
   42CHL1   C11 5548   3.533   6.346   9.342 -0.6651  0.6315  0.0662
   42CHL1  H11A 5549   3.627   6.396   9.373  0.4660 -2.5382  2.0149
   42CHL1  H11B 5550   3.446   6.395   9.392 -1.0290 -0.9269  1.0011
   42CHL1    C9 5551   3.536   6.197   9.399 -0.3080  0.4177  0.6667
   42CHL1    H9 5552   3.433   6.160   9.380 -0.5025  0.4501  1.5959
   42CHL1   C10 5553   3.567   6.181   9.547  0.9855  0.0882  0.0041
   42CHL1   C19 5554   3.699   6.261   9.574 -0.1126  0.3048  0.1466
   42CHL1  H19A 5555   3.680   6.371   9.577  0.0625  0.3651 -0.8022
   42CHL1  H19B 5556   3.734   6.247   9.679  1.1573  1.1889 -0.1504
   42CHL1  H19C 5557   3.782   6.235   9.505  1.5653  1.5055  1.6452
   42CHL1    C1 5558   3.445   6.238   9.624  0.5893 -0.1420  0.5217
   42CHL1   H1A 5559   3.439   6.347   9.602 -1.2955 -0.2554  0.3684
   42CHL1   H1B 5560   3.351   6.197   9.582 -1.3302  1.3225  3.1851
   42CHL1    C2 5561   3.454   6.217   9.770 -0.5160 -0.2323 -0.2630
   42CHL1   H2A 5562   3.363   6.249   9.824  0.2436 -1.1146  1.5850
   42CHL1   H2B 5563   3.541   6.265   9.820 -0.6720 -0.3795  0.1429
   42CHL1   C20 5564   3.631   6.339   8.858  0.0999  0.3697 -0.3306
   42CHL1   H20 5565   3.742   6.334   8.863 -0.0284 -1.1548  1.4832
   42CHL1   C21 5566   3.588   6.486   8.897  0.0861  0.7353 -0.1495
   42CHL1  H21A 5567   3.479   6.495   8.913  0.3621  0.3033  2.1532
   42CHL1  H21B 5568   3.605   6.556   8.813  1.1382 -2.5061 -2.7800
   42CHL1  H21C 5569   3.635   6.530   8.987  0.0174 -1.2517  0.8867
   42CHL1   C22 5570   3.584   6.300   8.714 -0.5942  0.3679  0.2592
   42CHL1  H22A 5571   3.624   6.199   8.688 -1.4416 -0.0089  0.4015
   42CHL1  H22B 5572   3.474   6.289   8.724 -0.5665 -0.3739 -0.1414
   42CHL1   C23 5573   3.625   6.398   8.601 -0.1878 -0.2384 -0.4737
   42CHL1  H23A 5574   3.570   6.370   8.509  0.1140  0.8843 -1.0102
   42CHL1  H23B 5575   3.590   6.501   8.624  1.1838  0.3310 -0.8629
   42CHL1   C24 5576   3.770   6.402   8.559 -0.4388  0.7289  0.2080
   42CHL1  H24A 5577   3.778   6.480   8.480 -0.7637  2.1635  1.5893
   42CHL1  H24B 5578   3.837   6.431   8.642 -2.4780 -1.5853  2.7729
   42CHL1   C25 5579   3.820   6.268   8.487 -0.4601 -0.9141 -0.7587
   42CHL1   H25 5580   3.735   6.224   8.431 -1.9221  2.3176 -1.1703
   42CHL1   C26 5581   3.946   6.285   8.401  0.3789  0.3206  0.4454
   42CHL1  H26A 5582   3.987   6.191   8.357  1.5188  1.2686 -0.5599
   42CHL1  H26B 5583   3.917   6.349   8.315  0.9432 -0.8214 -0.6295
   42CHL1  H26C 5584   4.019   6.348   8.456  0.8662  1.2541 -1.2138
   42CHL1   C27 5585   3.867   6.166   8.594  0.0050 -0.2083 -0.0854
   42CHL1  H27A 5586   3.904   6.209   8.689 -0.6279  1.6860 -0.6767
   42CHL1  H27B 5587   3.789   6.090   8.617  0.0857 -0.5196 -0.8071
   42CHL1  H27C 5588   3.958   6.112   8.558 -1.5739 -3.6292  0.8147
   43CHL1    C3 5589   4.218   6.487  10.024  0.7060  0.0925  0.3309
   43CHL1    H3 5590   4.322   6.527  10.021  0.2826  1.4688  2.4664
   43CHL1    O3 5591   4.190   6.460  10.164 -0.2438 -0.0265  0.0912
   43CHL1   H3' 5592   4.147   6.375  10.168 -1.1731  0.5078  2.2480
   43CHL1    C4 5593   4.119   6.599   9.978 -0.0016 -0.0693 -0.2355
   43CHL1   H4A 5594   4.016   6.567  10.006 -0.7126  0.2419 -2.4228
   43CHL1   H4B 5595   4.134   6.696  10.030 -0.2835  1.0163 -2.1307
   43CHL1    C5 5596   4.141   6.620   9.830  0.2593 -0.2572  0.6664
   43CHL1    C6 5597   4.167   6.740   9.777  0.7320  0.4481 -0.0246
   43CHL1    H6 5598   4.176   6.833   9.834  1.9151 -0.0990  0.6959
   43CHL1    C7 5599   4.175   6.764   9.625  0.1714 -0.8338 -0.4944
   43CHL1   H7A 5600   4.121   6.857   9.600  0.1746 -0.1033  2.0939
   43CHL1   H7B 5601   4.279   6.789   9.593 -0.9312  1.8273 -2.1404
   43CHL1    C8 5602   4.113   6.653   9.545  0.0878  0.1304  0.1186
   43CHL1    H8 5603   4.003   6.664   9.542  0.2536  2.3703  1.0438
   43CHL1   C14 5604   4.159   6.673   9.394 -0.1205 -0.1582 -0.0860
   43CHL1   H14 5605   4.270   6.676   9.396 -0.1157 -0.7363  1.7956
   43CHL1   C15 5606   4.124   6.802   9.318 -0.3646 -0.7925  0.3658
   43CHL1  H15A 5607   4.020   6.835   9.338 -0.1403 -1.5188  2.8788
   43CHL1  H15B 5608   4.178   6.889   9.362  0.2952 -0.7802 -0.4444
   43CHL1   C16 5609   4.150   6.771   9.170 -0.7364  0.4868 -0.5914
   43CHL1  H16A 5610   4.064   6.798   9.104 -1.9277 -1.8994 -0.0543
   43CHL1  H16B 5611   4.239   6.830   9.139  1.7214 -2.7305  0.1353
   43CHL1   C17 5612   4.172   6.612   9.166 -0.0992  0.1000  0.5738
   43CHL1   H17 5613   4.283   6.605   9.166  0.0118  1.5363 -1.2165
   43CHL1   C13 5614   4.118   6.563   9.301  0.3746 -0.1531 -0.4994
   43CHL1   C18 5615   3.958   6.554   9.291 -0.0501  0.0507 -0.1791
   43CHL1  H18A 5616   3.915   6.654   9.273  0.4827  0.3949  0.4303
   43CHL1  H18B 5617   3.929   6.480   9.213  3.2021  0.1338 -1.5785
   43CHL1  H18C 5618   3.914   6.506   9.380 -2.5892  0.1067 -1.3659
   43CHL1   C12 5619   4.185   6.435   9.356  0.4640  1.3522  0.4559
   43CHL1  H12A 5620   4.167   6.348   9.290 -1.4319 -0.6082  3.3948
   43CHL1  H12B 5621   4.295   6.446   9.358  0.8629 -1.9409 -1.1770
   43CHL1   C11 5622   4.130   6.404   9.502 -0.0937 -0.7687  0.1820
   43CHL1  H11A 5623   4.024   6.370   9.494 -0.7539  0.8347  1.8483
   43CHL1  H11B 5624   4.200   6.323   9.533  1.6767  0.5606 -0.2737
   43CHL1    C9 5625   4.162   6.521   9.597 -0.4221 -0.0903 -0.8540
   43CHL1    H9 5626   4.273   6.518   9.596 -0.4513 -1.4574 -3.0427
   43CHL1   C10 5627   4.126   6.491   9.741  0.5462 -0.1420 -0.4138
   43CHL1   C19 5628   3.978   6.455   9.754 -0.6398 -0.0146  1.4644
   43CHL1  H19A 5629   3.947   6.441   9.860 -1.3241 -0.1957  1.2433
   43CHL1  H19B 5630   3.925   6.544   9.713  1.6694  0.3533 -0.7736
   43CHL1  H19C 5631   3.960   6.359   9.701 -0.5907  0.7245  0.0942
   43CHL1    C1 5632   4.218   6.375   9.792  0.8295 -0.0192  0.2699
   43CHL1   H1A 5633   4.183   6.282   9.744  1.0083 -0.9437  1.8900
   43CHL1   H1B 5634   4.323   6.397   9.763  1.0862 -0.3685  0.9179
   43CHL1    C2 5635   4.209   6.357   9.942  0.2213  0.1746  0.1478
   43CHL1   H2A 5636   4.290   6.292   9.980 -0.3023 -1.4214 -1.3832
   43CHL1   H2B 5637   4.112   6.309   9.970 -1.0108  1.3228 -1.9607
   43CHL1   C20 5638   4.131   6.550   9.023  0.4946 -0.7001  0.6017
   43CHL1   H20 5639   4.021   6.544   9.030  0.1502  2.8171 -0.5480
   43CHL1   C21 5640   4.179   6.404   8.993  1.0033  0.3688  0.1306
   43CHL1  H21A 5641   4.142   6.355   8.900 -1.2209 -1.0752  1.7144
   43CHL1  H21B 5642   4.144   6.340   9.077  1.1596 -2.4627 -1.9220
   43CHL1  H21C 5643   4.289   6.396   8.994  1.0501  0.9735  0.6046
   43CHL1   C22 5644   4.167   6.644   8.899  0.0745 -0.1789  0.1430
   43CHL1  H22A 5645   4.100   6.730   8.920  2.0072  1.8848 -1.7940
   43CHL1  H22B 5646   4.272   6.679   8.883  0.0924 -1.0322 -1.7771
   43CHL1   C23 5647   4.115   6.596   8.767 -0.6794 -0.1098  0.3972
   43CHL1  H23A 5648   4.171   6.511   8.722 -1.1421 -0.8413  1.1819
   43CHL1  H23B 5649   4.009   6.566   8.782 -0.7759  0.1530  0.2541
   43CHL1   C24 5650   4.117   6.711   8.663  0.5068 -0.4100 -0.9546
   43CHL1  H24A 5651   4.061   6.796   8.708  0.4343  0.1652 -2.1100
   43CHL1  H24B 5652   4.226   6.732   8.658  0.9482 -1.9131  1.7052
   43CHL1   C25 5653   4.070   6.677   8.521 -0.3118  0.2527  0.4252
   43CHL1   H25 5654   3.979   6.613   8.531 -1.7633  2.1794 -0.1234
   43CHL1   C26 5655   4.023   6.803   8.448 -0.4859  0.5347 -0.1334
   43CHL1  H26A 5656   3.946   6.849   8.513 -0.3036 -0.5077  0.8295
   43CHL1  H26B 5657   4.108   6.875   8.443 -0.1732  0.2044  0.4987
   43CHL1  H26C 5658   3.999   6.784   8.341 -1.4448 -0.3169  0.2309
   43CHL1   C27 5659   4.166   6.596   8.435  0.6673 -0.0731  0.5768
   43CHL1  H27A 5660   4.111   6.557   8.347  3.2605 -3.0697  0.1665
   43CHL1  H27B 5661   4.260   6.646   8.403 -0.1002  0.2348 -1.2559
   43CHL1  H27C 5662   4.202   6.509   8.494  2.1485  1.0026  1.2661
   44CHL1    C3 5663   4.515   0.293  10.108  0.3859  0.1156 -0.1266
   44CHL1    H3 5664   4.603   0.360  10.120  0.5035  0.0099 -0.4106
   44CHL1    O3 5665   4.464   0.250  10.231 -0.7143  0.4126 -0.0643
   44CHL1   H3' 5666   4.393   0.192  10.202  0.5811  0.1326 -2.9022
   44CHL1    C4 5667   4.405   0.369  10.042  0.1650 -0.6503  0.4819
   44CHL1   H4A 5668   4.317   0.303  10.033 -0.7879  0.4897  1.2267
   44CHL1   H4B 5669   4.375   0.454  10.108 -1.6447 -1.5764  0.8949
   44CHL1    C5 5670   4.437   0.412   9.894  0.2219 -0.1559  0.6031
   44CHL1    C6 5671   4.416   0.542   9.860  0.7202  0.1501  0.1913
   44CHL1    H6 5672   4.377   0.620   9.927  0.6925 -0.3736  0.7860
   44CHL1    C7 5673   4.448   0.596   9.719 -0.2281  1.0134 -0.3273
   44CHL1   H7A 5674   4.373   0.671   9.686 -0.0232  1.6715  0.6826
   44CHL1   H7B 5675   4.537   0.660   9.737  0.1797 -0.4210  3.0152
   44CHL1    C8 5676   4.484   0.479   9.621 -0.0667  0.6710  0.0257
   44CHL1    H8 5677   4.392   0.427   9.589  1.2823 -0.5366 -1.9477
   44CHL1   C14 5678   4.558   0.544   9.506 -0.1007  0.2439  0.2449
   44CHL1   H14 5679   4.649   0.582   9.557  1.1199 -1.6658 -0.5130
   44CHL1   C15 5680   4.496   0.667   9.437 -0.2551 -0.1477 -0.7151
   44CHL1  H15A 5681   4.390   0.645   9.412 -0.4314 -2.5949  1.9776
   44CHL1  H15B 5682   4.515   0.765   9.487 -0.6236 -0.4369 -0.0041
   44CHL1   C16 5683   4.578   0.684   9.305 -0.8171  0.3412 -0.2145
   44CHL1  H16A 5684   4.500   0.699   9.228  1.0777  2.0289 -1.8775
   44CHL1  H16B 5685   4.644   0.773   9.302  0.7918 -0.8037  0.2998
   44CHL1   C17 5686   4.652   0.555   9.288 -0.4559 -0.2585  0.5010
   44CHL1   H17 5687   4.755   0.572   9.328 -1.0196  1.4504  1.2682
   44CHL1   C13 5688   4.592   0.448   9.390 -0.7494  0.0386 -0.0020
   44CHL1   C18 5689   4.465   0.389   9.327 -0.1871 -0.2295  0.3760
   44CHL1  H18A 5690   4.490   0.311   9.252  1.7961 -0.4794  1.2825
   44CHL1  H18B 5691   4.408   0.339   9.409 -0.1293 -1.4141 -0.3056
   44CHL1  H18C 5692   4.411   0.475   9.283  2.1037  1.4644  0.7843
   44CHL1   C12 5693   4.691   0.344   9.453  0.7503 -0.1031 -0.3687
   44CHL1  H12A 5694   4.718   0.267   9.378 -0.2746  0.0388 -0.8944
   44CHL1  H12B 5695   4.779   0.395   9.496  2.4860 -0.4868 -3.3336
   44CHL1   C11 5696   4.626   0.276   9.574  0.1325  0.6470 -0.7317
   44CHL1  H11A 5697   4.540   0.231   9.520 -0.6797  0.9987  0.2573
   44CHL1  H11B 5698   4.701   0.201   9.610 -0.1286  0.7705  0.0851
   44CHL1    C9 5699   4.571   0.374   9.683 -0.1029 -0.2409 -0.1753
   44CHL1    H9 5700   4.668   0.414   9.719  0.1418 -1.1800  0.2198
   44CHL1   C10 5701   4.509   0.307   9.805 -0.4796 -0.0072  0.6856
   44CHL1   C19 5702   4.398   0.217   9.757  0.4689 -0.3505 -0.4963
   44CHL1  H19A 5703   4.448   0.139   9.697  1.9394  0.8546 -0.8569
   44CHL1  H19B 5704   4.349   0.167   9.843  1.6280  0.5760  0.7136
   44CHL1  H19C 5705   4.320   0.266   9.694  0.0725  1.5037  1.3962
   44CHL1    C1 5706   4.616   0.220   9.888  0.5145 -0.9710 -0.3927
   44CHL1   H1A 5707   4.659   0.135   9.830  0.9427 -0.9537 -0.1072
   44CHL1   H1B 5708   4.700   0.291   9.907  1.3437 -1.0216 -3.5005
   44CHL1    C2 5709   4.565   0.167  10.027 -0.1973 -0.3116  0.0449
   44CHL1   H2A 5710   4.652   0.113  10.070  0.7387  0.6209 -0.6575
   44CHL1   H2B 5711   4.477   0.101  10.012  0.3114 -1.6508  2.6353
   44CHL1   C20 5712   4.676   0.524   9.138  1.0417  0.6328  0.3976
   44CHL1   H20 5713   4.575   0.511   9.095  1.4591  0.2880 -0.4901
   44CHL1   C21 5714   4.766   0.397   9.125  0.3304  0.0329 -0.3447
   44CHL1  H21A 5715   4.863   0.418   9.174 -0.7779 -0.9592  2.3377
   44CHL1  H21B 5716   4.793   0.378   9.019  2.1988  2.3180 -0.3322
   44CHL1  H21C 5717   4.700   0.318   9.167 -0.3025  0.5356 -0.3790
   44CHL1   C22 5718   4.739   0.637   9.050  0.5907  0.8204  0.3224
   44CHL1  H22A 5719   4.682   0.731   9.065  0.8048  0.9903  0.0664
   44CHL1  H22B 5720   4.839   0.655   9.096  0.6795 -0.5360  0.6722
   44CHL1   C23 5721   4.736   0.611   8.901  0.1725  0.5594  0.6745
   44CHL1  H23A 5722   4.828   0.647   8.850  0.0543  0.0137  0.0773
   44CHL1  H23B 5723   4.743   0.501   8.885  0.7768  0.3627  2.1942
   44CHL1   C24 5724   4.603   0.647   8.833 -0.6603 -0.4479 -0.0637
   44CHL1  H24A 5725   4.516   0.600   8.884 -2.3608  0.0969 -2.3983
   44CHL1  H24B 5726   4.600   0.758   8.832 -0.2565 -0.4346  0.1022
   44CHL1   C25 5727   4.595   0.587   8.689 -0.2279  0.5242  0.1725
   44CHL1   H25 5728   4.606   0.477   8.700  1.9581  0.6440 -0.5568
   44CHL1   C26 5729   4.447   0.583   8.641  0.5556  0.5713 -0.1191
   44CHL1  H26A 5730   4.437   0.540   8.539  1.4224  0.0626  0.0097
   44CHL1  H26B 5731   4.391   0.532   8.723  1.9856 -0.5830  0.1717
   44CHL1  H26C 5732   4.403   0.685   8.633 -0.8272  0.1035  1.0964
   44CHL1   C27 5733   4.682   0.659   8.580 -0.4234  0.1680 -0.7943
   44CHL1  H27A 5734   4.680   0.603   8.484  0.2958  0.1756 -0.8093
   44CHL1  H27B 5735   4.637   0.761   8.581 -1.7021 -0.3818 -0.6034
   44CHL1  H27C 5736   4.788   0.664   8.612 -0.1456 -1.3065 -1.4651
   45CHL1    C3 5737   1.187   5.306  10.296 -0.5608  0.2056  0.1225
   45CHL1    H3 5738   1.294   5.286  10.317 -0.4515  0.6338 -0.0421
   45CHL1    O3 5739   1.122   5.328  10.423  0.0263  0.1672  0.3719
   45CHL1   H3' 5740   1.129   5.422  10.438 -1.6314  0.4368 -0.4787
   45CHL1    C4 5741   1.157   5.432  10.214 -0.3451 -0.4263  1.0157
   45CHL1   H4A 5742   1.051   5.467  10.214  0.3074  1.6288  1.5685
   45CHL1   H4B 5743   1.213   5.521  10.250 -0.1764  0.0997 -0.5149
   45CHL1    C5 5744   1.188   5.411  10.069  0.2171  0.0911 -0.5452
   45CHL1    C6 5745   1.278   5.490  10.008 -0.1124  0.0748 -0.5548
   45CHL1    H6 5746   1.320   5.579  10.058  0.5890  0.5223 -1.8983
   45CHL1    C7 5747   1.323   5.484   9.860  0.6634  0.0961 -0.1570
   45CHL1   H7A 5748   1.338   5.587   9.821 -0.4532  1.0048  1.7190
   45CHL1   H7B 5749   1.416   5.425   9.847  0.6874  0.4668 -1.7625
   45CHL1    C8 5750   1.221   5.396   9.780 -0.2571 -0.3328  0.2465
   45CHL1    H8 5751   1.281   5.353   9.697 -1.3736 -1.4603 -0.0001
   45CHL1   C14 5752   1.110   5.476   9.709  0.2371 -0.2443 -0.3584
   45CHL1   H14 5753   1.042   5.517   9.787 -2.3163 -0.6234 -2.3058
   45CHL1   C15 5754   1.175   5.593   9.622 -1.1246  0.4015  0.0435
   45CHL1  H15A 5755   1.185   5.693   9.671  3.3867 -0.2876  0.7719
   45CHL1  H15B 5756   1.277   5.565   9.587 -2.0320 -2.6220 -0.3172
   45CHL1   C16 5757   1.089   5.607   9.502  0.0424  0.3788  1.0134
   45CHL1  H16A 5758   0.992   5.659   9.515 -0.7035 -0.2171 -1.8028
   45CHL1  H16B 5759   1.135   5.663   9.417 -1.3805  0.8554  0.5454
   45CHL1   C17 5760   1.060   5.454   9.471 -0.4493 -0.6800 -0.3077
   45CHL1   H17 5761   1.160   5.419   9.437 -0.8551 -1.6629 -0.4824
   45CHL1   C13 5762   1.037   5.382   9.612  0.7450 -0.6361 -0.8177
   45CHL1   C18 5763   0.880   5.380   9.640 -0.5419  0.9790  0.8508
   45CHL1  H18A 5764   0.875   5.342   9.745  1.8042  3.2395  1.8367
   45CHL1  H18B 5765   0.841   5.484   9.632  1.0736  1.5700  0.5230
   45CHL1  H18C 5766   0.817   5.321   9.571 -2.6454  3.2360  0.7700
   45CHL1   C12 5767   1.084   5.235   9.617 -0.0792  0.2310 -0.1528
   45CHL1  H12A 5768   1.022   5.161   9.562  2.1047 -0.9224 -1.1070
   45CHL1  H12B 5769   1.186   5.224   9.575  0.7442  0.1238  1.7986
   45CHL1   C11 5770   1.097   5.176   9.761  0.0417  0.3275 -0.0063
   45CHL1  H11A 5771   0.997   5.150   9.802 -0.1929  0.8123 -0.2669
   45CHL1  H11B 5772   1.149   5.078   9.756  0.8924  0.7305  0.6877
   45CHL1    C9 5773   1.171   5.275   9.854  0.2543 -0.3766 -0.3579
   45CHL1    H9 5774   1.265   5.219   9.872  0.7188 -0.0046 -1.6294
   45CHL1   C10 5775   1.123   5.293  10.000 -0.0548 -0.4988 -0.3320
   45CHL1   C19 5776   0.969   5.321  10.007 -0.3921  0.0324  0.0135
   45CHL1  H19A 5777   0.914   5.236   9.960  0.8167 -0.8132  0.1042
   45CHL1  H19B 5778   0.929   5.323  10.111 -2.6174 -1.7794 -0.7661
   45CHL1  H19C 5779   0.933   5.409   9.949 -1.4977  0.3619  1.1786
   45CHL1    C1 5780   1.155   5.162  10.077  1.0780  0.5586 -0.2348
   45CHL1   H1A 5781   1.096   5.076  10.038 -0.9080  2.2927 -1.1450
   45CHL1   H1B 5782   1.259   5.130  10.056  1.1322  0.6771 -0.1444
   45CHL1    C2 5783   1.134   5.181  10.231 -0.0824  0.5606  0.3620
   45CHL1   H2A 5784   1.187   5.100  10.285  0.1232  0.9659  0.7671
   45CHL1   H2B 5785   1.024   5.169  10.242  0.0545 -1.5792 -0.3854
   45CHL1   C20 5786   0.959   5.430   9.353  0.1513  0.4037  0.0968
   45CHL1   H20 5787   0.857   5.457   9.387 -0.3526 -0.4441 -0.7349
   45CHL1   C21 5788   0.976   5.282   9.311  0.0406 -1.4420  0.8338
   45CHL1  H21A 5789   1.078   5.247   9.284  0.4860  1.4662 -1.4741
   45CHL1  H21B 5790   0.919   5.272   9.215  1.6247  1.5375 -0.4654
   45CHL1  H21C 5791   0.936   5.213   9.388 -1.2740 -0.1854  1.3148
   45CHL1   C22 5792   0.989   5.519   9.230 -0.1783 -0.9005 -0.2807
   45CHL1  H22A 5793   0.989   5.625   9.263  0.5358 -1.0422  0.1806
   45CHL1  H22B 5794   1.081   5.494   9.173 -0.0157  0.2879 -0.5433
   45CHL1   C23 5795   0.864   5.527   9.136  0.9009  0.5560  1.0303
   45CHL1  H23A 5796   0.835   5.427   9.097 -2.2030  1.3599  1.1709
   45CHL1  H23B 5797   0.770   5.560   9.186 -1.0217 -0.5149 -1.7587
   45CHL1   C24 5798   0.894   5.622   9.018  0.4123  0.2538 -0.2205
   45CHL1  H24A 5799   0.804   5.625   8.953 -1.1702  1.0081  1.9744
   45CHL1  H24B 5800   0.918   5.726   9.050 -3.5111  0.5968  1.8351
   45CHL1   C25 5801   0.992   5.587   8.904 -0.3737  0.0160  0.3491
   45CHL1   H25 5802   1.092   5.567   8.948  0.3154 -0.4650 -1.4110
   45CHL1   C26 5803   0.955   5.450   8.839 -0.2125  0.6080  0.1911
   45CHL1  H26A 5804   0.853   5.447   8.796  0.1076  0.2011 -0.5486
   45CHL1  H26B 5805   1.028   5.426   8.758  0.1919  1.2764  0.3511
   45CHL1  H26C 5806   0.972   5.377   8.920  0.8926 -0.5410 -1.0498
   45CHL1   C27 5807   0.990   5.703   8.796 -0.0392 -0.0117 -0.0274
   45CHL1  H27A 5808   1.022   5.797   8.846 -0.0301 -0.5184  0.9302
   45CHL1  H27B 5809   1.069   5.672   8.724  1.9824 -0.4150  2.2657
   45CHL1  H27C 5810   0.890   5.701   8.747  0.3220 -1.5328 -0.7509
   46CHL1    C3 5811   4.532   3.679  10.089 -0.5092  0.6268  0.3657
   46CHL1    H3 5812   4.636   3.669  10.053  0.0203  1.6802  1.5308
   46CHL1    O3 5813   4.541   3.682  10.230  0.4907 -0.1321 -0.7046
   46CHL1   H3' 5814   4.454   3.702  10.265  0.5701 -0.3065 -0.4124
   46CHL1    C4 5815   4.470   3.806  10.029  0.1597  0.1946  0.1788
   46CHL1   H4A 5816   4.367   3.807  10.068  0.3240  1.7038  0.6059
   46CHL1   H4B 5817   4.523   3.895  10.070 -1.1697  1.1656 -0.1962
   46CHL1    C5 5818   4.461   3.794   9.881  0.1344 -0.1466 -0.1263
   46CHL1    C6 5819   4.506   3.890   9.796  0.5212 -0.2836 -0.0730
   46CHL1    H6 5820   4.542   3.983   9.842 -0.1592  1.4650 -2.9581
   46CHL1    C7 5821   4.489   3.883   9.647 -0.0318 -0.1890 -0.5884
   46CHL1   H7A 5822   4.453   3.983   9.614  0.3920  0.5422  1.0936
   46CHL1   H7B 5823   4.594   3.874   9.611  0.9374  1.8881  1.5185
   46CHL1    C8 5824   4.396   3.775   9.599  0.0606  0.8974  0.2415
   46CHL1    H8 5825   4.294   3.816   9.613  0.4061  2.6222 -1.9882
   46CHL1   C14 5826   4.424   3.753   9.447 -0.5349  0.3912  0.1732
   46CHL1   H14 5827   4.524   3.705   9.447 -0.4174  0.6261 -1.3076
   46CHL1   C15 5828   4.417   3.873   9.351 -0.8007  0.2434 -0.1868
   46CHL1  H15A 5829   4.342   3.946   9.388 -0.8768 -1.0575  2.3431
   46CHL1  H15B 5830   4.513   3.928   9.341 -1.6469  1.6436 -0.8135
   46CHL1   C16 5831   4.367   3.818   9.219 -0.4197  0.4134 -1.0308
   46CHL1  H16A 5832   4.270   3.860   9.183  0.6254  1.3154 -2.9002
   46CHL1  H16B 5833   4.442   3.839   9.139  1.0647  2.2293  0.7975
   46CHL1   C17 5834   4.361   3.662   9.240  0.1999  0.0503 -0.2106
   46CHL1   H17 5835   4.470   3.640   9.232  0.5260  1.3318  0.5123
   46CHL1   C13 5836   4.324   3.649   9.389  1.0454  0.1848 -0.0932
   46CHL1   C18 5837   4.171   3.697   9.400  0.1131 -0.1053  0.2093
   46CHL1  H18A 5838   4.141   3.736   9.500  0.2588  2.2146 -0.6130
   46CHL1  H18B 5839   4.136   3.760   9.316  0.9557 -1.9578 -1.5672
   46CHL1  H18C 5840   4.102   3.611   9.386 -0.6812  0.5216  0.2427
   46CHL1   C12 5841   4.343   3.514   9.469 -0.2650  0.2648 -0.3282
   46CHL1  H12A 5842   4.271   3.438   9.431  0.8080 -0.1170 -1.6259
   46CHL1  H12B 5843   4.447   3.477   9.457 -0.1956  0.2763  0.2496
   46CHL1   C11 5844   4.306   3.534   9.613 -0.5657 -0.3572 -1.2431
   46CHL1  H11A 5845   4.197   3.550   9.629 -0.4024 -1.6327  1.3064
   46CHL1  H11B 5846   4.346   3.440   9.656  1.3618 -0.2850 -2.8075
   46CHL1    C9 5847   4.409   3.641   9.670  0.1368 -0.7925 -0.3656
   46CHL1    H9 5848   4.512   3.602   9.651 -0.0209 -0.7759 -1.2365
   46CHL1   C10 5849   4.396   3.668   9.823 -0.1800  0.1635 -0.3381
   46CHL1   C19 5850   4.248   3.678   9.861 -0.0973  0.1050  0.7426
   46CHL1  H19A 5851   4.231   3.715   9.965  1.0723  0.2468  0.8873
   46CHL1  H19B 5852   4.191   3.747   9.795  0.6082  0.5157  0.5651
   46CHL1  H19C 5853   4.197   3.580   9.854 -1.0239  0.6040  0.3508
   46CHL1    C1 5854   4.445   3.544   9.895  0.3120  0.7796 -0.0215
   46CHL1   H1A 5855   4.381   3.455   9.874  0.5844  0.8744 -1.2834
   46CHL1   H1B 5856   4.544   3.522   9.849  0.1463  1.9864 -0.9582
   46CHL1    C2 5857   4.462   3.555  10.049 -0.3204  0.6773 -0.8073
   46CHL1   H2A 5858   4.514   3.461  10.077 -1.0698  1.4986  3.6470
   46CHL1   H2B 5859   4.365   3.535  10.100 -0.3305 -1.9588 -1.7792
   46CHL1   C20 5860   4.273   3.598   9.138 -0.4418 -0.2055  0.8547
   46CHL1   H20 5861   4.166   3.615   9.159 -0.4460  2.3035 -0.9575
   46CHL1   C21 5862   4.291   3.446   9.137  0.5108 -0.2516  0.8227
   46CHL1  H21A 5863   4.257   3.402   9.233  0.0007 -0.8878  0.3553
   46CHL1  H21B 5864   4.399   3.420   9.130  0.4604  0.0678 -1.4559
   46CHL1  H21C 5865   4.242   3.393   9.053 -4.8078  1.3777  2.7436
   46CHL1   C22 5866   4.293   3.652   8.993 -0.8637 -0.6762  0.2002
   46CHL1  H22A 5867   4.219   3.609   8.922 -0.9979  0.6029 -0.4543
   46CHL1  H22B 5868   4.264   3.760   8.991  2.2081  0.2032 -1.3856
   46CHL1   C23 5869   4.433   3.633   8.929  0.5099 -0.1109  0.1331
   46CHL1  H23A 5870   4.509   3.647   9.009  2.5729  1.7338 -2.0688
   46CHL1  H23B 5871   4.446   3.528   8.894 -1.2890  0.4462 -2.3048
   46CHL1   C24 5872   4.468   3.721   8.815  0.9727  0.5979  0.1436
   46CHL1  H24A 5873   4.417   3.685   8.723  1.1640 -0.7249  0.5507
   46CHL1  H24B 5874   4.432   3.825   8.829  1.7605  1.2775 -2.5363
   46CHL1   C25 5875   4.622   3.741   8.790  0.0529  0.0351  0.5794
   46CHL1   H25 5876   4.666   3.639   8.791 -2.5680 -1.1468 -0.4051
   46CHL1   C26 5877   4.646   3.794   8.644  0.4781  0.0379  0.3500
   46CHL1  H26A 5878   4.607   3.724   8.567  0.4737  1.1773 -0.6985
   46CHL1  H26B 5879   4.600   3.895   8.638  1.1084  0.2628 -0.7086
   46CHL1  H26C 5880   4.750   3.821   8.616  0.1711 -0.4713 -1.3333
   46CHL1   C27 5881   4.676   3.849   8.889  0.1504 -0.4607  0.5421
   46CHL1  H27A 5882   4.668   3.807   8.991 -0.9368  0.7381  0.9687
   46CHL1  H27B 5883   4.781   3.880   8.870 -0.0793  0.3678  0.5955
   46CHL1  H27C 5884   4.622   3.945   8.874 -1.1286 -1.1125  0.9755
   47CHL1    C3 5885   4.758   6.513  10.111  0.3551 -0.0946  0.2692
   47CHL1    H3 5886   4.846   6.453  10.082  0.7094  0.6247 -0.1475
   47CHL1    O3 5887   4.747   6.497  10.252 -0.1165  0.1004 -0.2671
   47CHL1   H3' 5888   4.701   6.575  10.284 -1.6699 -0.5074 -0.9809
   47CHL1    C4 5889   4.772   6.657  10.070  0.0954  0.3721  0.1899
   47CHL1   H4A 5890   4.690   6.717  10.115 -1.8172 -1.0576 -1.2978
   47CHL1   H4B 5891   4.861   6.700  10.120  0.1128  0.7902 -0.1996
   47CHL1    C5 5892   4.771   6.668   9.921  0.1149  0.4772  0.0018
   47CHL1    C6 5893   4.878   6.734   9.865 -0.2368 -0.3300 -0.0139
   47CHL1    H6 5894   4.954   6.783   9.928 -0.6495  1.5647 -0.9306
   47CHL1    C7 5895   4.889   6.758   9.714 -0.0026  0.1101 -0.0665
   47CHL1   H7A 5896   4.917   6.865   9.698  0.6129  0.1153  0.9789
   47CHL1   H7B 5897   4.983   6.709   9.681  1.2302  1.4785  1.3060
   47CHL1    C8 5898   4.762   6.710   9.642 -0.1484 -0.6610  0.0681
   47CHL1    H8 5899   4.687   6.791   9.651  0.9754  0.5185 -0.9582
   47CHL1   C14 5900   4.795   6.697   9.501 -0.1405  0.2032  0.2027
   47CHL1   H14 5901   4.851   6.601   9.497 -1.1687 -0.4574  1.3444
   47CHL1   C15 5902   4.870   6.809   9.430  0.8180 -0.1986  0.3565
   47CHL1  H15A 5903   4.849   6.914   9.459 -0.9752 -0.2633 -0.6206
   47CHL1  H15B 5904   4.976   6.783   9.449  0.3787 -0.3128  2.7485
   47CHL1   C16 5905   4.833   6.794   9.282  0.3704 -0.6658 -0.3002
   47CHL1  H16A 5906   4.781   6.883   9.242  0.1323  0.1508  1.7591
   47CHL1  H16B 5907   4.914   6.769   9.210 -0.8618 -0.5679 -1.7349
   47CHL1   C17 5908   4.737   6.673   9.278  0.1558 -0.2144  0.7454
   47CHL1   H17 5909   4.813   6.593   9.266  0.6705  0.2371  0.9584
   47CHL1   C13 5910   4.673   6.664   9.415 -0.1379  0.3515  0.7293
   47CHL1   C18 5911   4.553   6.768   9.422 -0.0102 -0.0421  0.0430
   47CHL1  H18A 5912   4.479   6.721   9.352 -1.0312  1.4966  0.0627
   47CHL1  H18B 5913   4.510   6.770   9.524  1.7922 -1.3227  0.8332
   47CHL1  H18C 5914   4.586   6.870   9.393 -0.9818  0.0234 -0.8742
   47CHL1   C12 5915   4.624   6.527   9.452 -0.0150 -0.0513 -0.0300
   47CHL1  H12A 5916   4.534   6.506   9.390 -0.5468  0.4846  0.5516
   47CHL1  H12B 5917   4.701   6.450   9.428  2.3461  2.9331 -2.5313
   47CHL1   C11 5918   4.591   6.531   9.602  0.1885  0.4335 -0.4261
   47CHL1  H11A 5919   4.499   6.585   9.633  1.0051  0.1808  2.6316
   47CHL1  H11B 5920   4.566   6.426   9.628  0.9510  0.4549  0.3898
   47CHL1    C9 5921   4.708   6.578   9.694 -0.1333 -0.6535 -0.9878
   47CHL1    H9 5922   4.789   6.502   9.694 -0.6293 -1.1929 -0.6711
   47CHL1   C10 5923   4.661   6.593   9.847 -0.5070 -0.6074  0.0629
   47CHL1   C19 5924   4.528   6.682   9.861 -0.7488 -0.4451  0.7151
   47CHL1  H19A 5925   4.516   6.703   9.970  0.4212  1.4419  0.5090
   47CHL1  H19B 5926   4.538   6.777   9.804 -1.7429 -0.9395 -0.2983
   47CHL1  H19C 5927   4.440   6.629   9.820  0.7022 -1.6973 -0.8397
   47CHL1    C1 5928   4.632   6.450   9.900  0.0797 -0.4062 -0.1593
   47CHL1   H1A 5929   4.535   6.411   9.861 -0.2542  0.4142 -0.1586
   47CHL1   H1B 5930   4.701   6.371   9.862 -2.0434 -1.4095 -2.0618
   47CHL1    C2 5931   4.634   6.442  10.054  0.3187  0.6812 -0.5892
   47CHL1   H2A 5932   4.635   6.336  10.090  0.2500  0.2465 -1.8697
   47CHL1   H2B 5933   4.549   6.493  10.105  1.9057  2.4658  0.3360
   47CHL1   C20 5934   4.643   6.665   9.148 -0.2727 -0.2779 -0.6440
   47CHL1   H20 5935   4.551   6.719   9.177 -0.1513  0.2865 -1.2732
   47CHL1   C21 5936   4.607   6.523   9.104  0.5405 -0.1978  0.2669
   47CHL1  H21A 5937   4.523   6.524   9.031  1.5877  2.8582 -0.9732
   47CHL1  H21B 5938   4.577   6.454   9.185 -0.0551 -1.3594 -0.9072
   47CHL1  H21C 5939   4.699   6.488   9.051 -0.3301 -0.6608 -0.9705
   47CHL1   C22 5940   4.696   6.737   9.023  0.3155 -0.3609  0.8222
   47CHL1  H22A 5941   4.698   6.844   9.053  0.0014 -0.6866  2.0478
   47CHL1  H22B 5942   4.795   6.691   9.003 -0.7924 -1.1593 -3.3084
   47CHL1   C23 5943   4.611   6.729   8.892 -0.1766  0.1123  0.4693
   47CHL1  H23A 5944   4.599   6.625   8.855 -1.5441  0.3274  0.2846
   47CHL1  H23B 5945   4.512   6.769   8.925  0.5541  0.3983  2.4073
   47CHL1   C24 5946   4.682   6.816   8.784 -0.3924 -0.8631 -0.3187
   47CHL1  H24A 5947   4.708   6.911   8.836 -1.1927  0.1681 -1.7584
   47CHL1  H24B 5948   4.782   6.777   8.753  0.2703  1.4698 -1.2296
   47CHL1   C25 5949   4.603   6.852   8.655 -0.5377  0.2778 -0.0703
   47CHL1   H25 5950   4.515   6.916   8.678  0.4583  1.9872 -0.8955
   47CHL1   C26 5951   4.691   6.929   8.554 -0.7533 -0.2303  0.4232
   47CHL1  H26A 5952   4.629   6.964   8.470 -0.2788 -0.7517 -0.1499
   47CHL1  H26B 5953   4.778   6.867   8.522 -0.7958  0.0651 -0.2576
   47CHL1  H26C 5954   4.741   7.015   8.604 -0.6356  0.7185 -1.2980
   47CHL1   C27 5955   4.538   6.735   8.578 -0.2010  0.0863  0.1484
   47CHL1  H27A 5956   4.481   6.665   8.643  1.6217 -1.6379 -0.0855
   47CHL1  H27B 5957   4.460   6.786   8.517 -0.4113  0.5171  0.7683
   47CHL1  H27C 5958   4.606   6.680   8.511  1.2392 -1.5424  2.8792
   48CHL1    C3 5959   5.056   0.438  10.256 -0.0168 -0.7109  0.0082
   48CHL1    H3 5960   5.060   0.549  10.266  0.1451 -0.6747 -0.4358
   48CHL1    O3 5961   5.034   0.385  10.385 -0.5169 -0.1533 -0.0928
   48CHL1   H3' 5962   4.943   0.409  10.404 -0.1558 -0.5947  2.2966
   48CHL1    C4 5963   4.938   0.404  10.161 -0.2079 -0.2329 -0.3191
   48CHL1   H4A 5964   4.925   0.294  10.155  0.7560 -0.4232  0.8199
   48CHL1   H4B 5965   4.855   0.458  10.212  0.7935  0.3372  0.7464
   48CHL1    C5 5966   4.960   0.470  10.028  0.9419 -1.0961 -0.1725
   48CHL1    C6 5967   4.867   0.555   9.978  0.3305 -0.6209  0.0229
   48CHL1    H6 5968   4.771   0.564  10.030  0.1259 -0.4526 -0.3813
   48CHL1    C7 5969   4.887   0.630   9.848 -0.0351 -0.0076  0.3438
   48CHL1   H7A 5970   4.789   0.624   9.796 -0.7783  0.5897  1.6516
   48CHL1   H7B 5971   4.912   0.738   9.855 -1.7128  0.7200 -3.2824
   48CHL1    C8 5972   5.006   0.569   9.759 -0.5217 -0.4849  0.2346
   48CHL1    H8 5973   4.968   0.471   9.721 -0.7715 -0.0168 -0.7383
   48CHL1   C14 5974   5.042   0.658   9.645  0.6289  0.0129  0.7857
   48CHL1   H14 5975   5.076   0.754   9.690  0.8368  0.5986 -0.5948
   48CHL1   C15 5976   4.925   0.697   9.552  0.0397  0.2645  0.1364
   48CHL1  H15A 5977   4.872   0.608   9.513  1.9353 -0.5221 -0.7144
   48CHL1  H15B 5978   4.859   0.776   9.594  1.2418  0.2133  2.2255
   48CHL1   C16 5979   5.007   0.753   9.424 -0.1080  0.0723  0.2970
   48CHL1  H16A 5980   4.962   0.708   9.333 -0.2161  2.7593 -1.0015
   48CHL1  H16B 5981   4.982   0.860   9.415  0.0849  0.0165 -0.8654
   48CHL1   C17 5982   5.163   0.715   9.445 -0.4868  0.3212  0.0539
   48CHL1   H17 5983   5.205   0.807   9.490 -0.7289  0.3970  0.1228
   48CHL1   C13 5984   5.151   0.605   9.556  0.3103 -0.7180 -0.0715
   48CHL1   C18 5985   5.116   0.459   9.497  0.1445  0.2338  0.1867
   48CHL1  H18A 5986   5.100   0.388   9.580  2.6009  0.4910  0.9190
   48CHL1  H18B 5987   5.027   0.476   9.432  1.5862  0.5209 -1.7683
   48CHL1  H18C 5988   5.200   0.413   9.440 -1.6482 -0.9999 -1.5377
   48CHL1   C12 5989   5.275   0.587   9.645 -0.8082  0.0118 -0.0717
   48CHL1  H12A 5990   5.357   0.540   9.586  0.6232 -0.3381  2.1279
   48CHL1  H12B 5991   5.325   0.684   9.666 -0.6012  0.2043 -1.4387
   48CHL1   C11 5992   5.260   0.507   9.773  0.4474  0.0074  0.7356
   48CHL1  H11A 5993   5.272   0.400   9.745  0.1200  0.1502  0.0270
   48CHL1  H11B 5994   5.343   0.536   9.840  0.1175  1.3103  0.5954
   48CHL1    C9 5995   5.127   0.540   9.854  0.2304  0.4735 -0.1908
   48CHL1    H9 5996   5.156   0.637   9.901 -0.3825  0.3349  0.4786
   48CHL1   C10 5997   5.099   0.435   9.966 -0.6020 -0.9148  0.3939
   48CHL1   C19 5998   5.096   0.293   9.919  0.6086  0.0680  0.0357
   48CHL1  H19A 5999   5.195   0.257   9.882  2.1200  1.8233  2.2711
   48CHL1  H19B 6000   5.081   0.231  10.010 -2.8724  1.1515  0.2804
   48CHL1  H19C 6001   5.027   0.277   9.833  2.1407 -0.0231 -1.2031
   48CHL1    C1 6002   5.211   0.449  10.069  0.4714 -0.1009 -0.6932
   48CHL1   H1A 6003   5.302   0.397  10.033  0.5244  0.7439 -1.8028
   48CHL1   H1B 6004   5.239   0.556  10.079  0.9632 -0.5240  2.9653
   48CHL1    C2 6005   5.189   0.400  10.211  0.1302  1.0535 -1.0910
   48CHL1   H2A 6006   5.267   0.442  10.278 -0.0610 -0.6025  0.2076
   48CHL1   H2B 6007   5.191   0.289  10.216  1.3649  1.2063  4.3450
   48CHL1   C20 6008   5.240   0.690   9.314  0.5380  0.1151 -0.3808
   48CHL1   H20 6009   5.194   0.611   9.250 -1.8484  1.1355 -0.0036
   48CHL1   C21 6010   5.398   0.654   9.339 -0.1225 -0.6508 -0.7912
   48CHL1  H21A 6011   5.456   0.626   9.248 -1.0291  0.0777 -1.6049
   48CHL1  H21B 6012   5.399   0.565   9.405 -0.4851  0.8170  1.2384
   48CHL1  H21C 6013   5.438   0.739   9.397  2.1208 -1.4104 -1.2042
   48CHL1   C22 6014   5.226   0.810   9.208  0.2692 -0.2221  0.5692
   48CHL1  H22A 6015   5.116   0.826   9.200  0.1955 -0.7663  0.4411
   48CHL1  H22B 6016   5.256   0.908   9.250 -0.9698 -0.1135  1.2354
   48CHL1   C23 6017   5.295   0.784   9.076 -0.3121  0.5394 -0.6160
   48CHL1  H23A 6018   5.402   0.754   9.089 -0.8374 -0.9807  0.2764
   48CHL1  H23B 6019   5.248   0.691   9.039 -1.1123  1.3064 -1.5403
   48CHL1   C24 6020   5.288   0.905   8.978 -0.9281 -0.4015  0.1031
   48CHL1  H24A 6021   5.183   0.942   8.967 -1.7576 -2.6430  0.1937
   48CHL1  H24B 6022   5.349   0.987   9.022 -0.9417  1.1782 -2.7191
   48CHL1   C25 6023   5.342   0.863   8.838  0.8730  0.0116  0.0226
   48CHL1   H25 6024   5.271   0.783   8.810 -1.0580  0.6868  2.7610
   48CHL1   C26 6025   5.330   0.980   8.744 -0.2029 -0.7041 -0.5523
   48CHL1  H26A 6026   5.396   1.067   8.764  0.2011 -0.5603 -2.4561
   48CHL1  H26B 6027   5.358   0.936   8.646  0.8007 -1.2934 -0.0138
   48CHL1  H26C 6028   5.228   1.023   8.729 -0.1133 -0.4301 -0.3854
   48CHL1   C27 6029   5.485   0.808   8.826  0.4372  0.3442  0.4001
   48CHL1  H27A 6030   5.501   0.771   8.722  0.8716  1.3435  0.0975
   48CHL1  H27B 6031   5.559   0.889   8.845 -0.2758  1.5571 -1.8147
   48CHL1  H27C 6032   5.498   0.719   8.890 -0.6206 -0.0149  0.1233
   49CHL1    C3 6033   3.869   2.770   9.926 -0.3148 -0.2139 -0.3813
   49CHL1    H3 6034   3.965   2.803   9.879 -1.2330 -1.0094 -2.9345
   49CHL1    O3 6035   3.875   2.749  10.066  0.2303 -0.3536 -0.9708
   49CHL1   H3' 6036   3.924   2.669  10.086  1.3846  0.9666  1.7449
   49CHL1    C4 6037   3.768   2.876   9.900 -0.3969 -0.1044 -0.2015
   49CHL1   H4A 6038   3.676   2.839   9.950  0.6481 -1.7655  0.5314
   49CHL1   H4B 6039   3.802   2.966   9.955 -0.6923 -0.7454  1.0405
   49CHL1    C5 6040   3.739   2.900   9.753  0.0091  0.4358 -1.0720
   49CHL1    C6 6041   3.741   3.017   9.701 -0.4047 -0.8493  0.1755
   49CHL1    H6 6042   3.756   3.109   9.759 -2.2034 -1.7250  2.1090
   49CHL1    C7 6043   3.744   3.038   9.552  0.4449 -0.7647 -0.0612
   49CHL1   H7A 6044   3.695   3.134   9.521 -1.9511 -1.0370  2.6859
   49CHL1   H7B 6045   3.847   3.060   9.518  0.6690  2.1194  2.2896
   49CHL1    C8 6046   3.690   2.924   9.465  0.2172 -0.0892 -0.0175
   49CHL1    H8 6047   3.580   2.923   9.477  0.2369  0.8668  0.3199
   49CHL1   C14 6048   3.724   2.951   9.318 -0.3135 -0.5423  0.4112
   49CHL1   H14 6049   3.835   2.946   9.318 -0.2855  0.0562  1.7733
   49CHL1   C15 6050   3.687   3.084   9.255 -0.1043  0.1853 -0.5335
   49CHL1  H15A 6051   3.590   3.134   9.279 -0.4445 -0.8169  0.1936
   49CHL1  H15B 6052   3.765   3.156   9.288  1.0486 -1.6737  0.9062
   49CHL1   C16 6053   3.685   3.048   9.112 -0.6816 -0.0153 -0.1301
   49CHL1  H16A 6054   3.596   3.093   9.064 -0.1645 -0.1845 -1.2711
   49CHL1  H16B 6055   3.778   3.075   9.057  0.3463  0.4027  1.7528
   49CHL1   C17 6056   3.705   2.896   9.097 -0.0393 -0.7516 -0.3144
   49CHL1   H17 6057   3.815   2.883   9.097  0.1040  0.2582  1.3560
   49CHL1   C13 6058   3.667   2.839   9.226  0.0088 -0.2602 -0.1251
   49CHL1   C18 6059   3.520   2.838   9.237  0.0853  0.0475  0.3337
   49CHL1  H18A 6060   3.467   2.776   9.161  1.4878  0.0775 -0.6788
   49CHL1  H18B 6061   3.488   2.785   9.330  0.2129 -1.0143 -0.2166
   49CHL1  H18C 6062   3.468   2.936   9.233 -0.5485 -0.3314 -1.5451
   49CHL1   C12 6063   3.724   2.707   9.271 -0.0363  0.3611  0.6723
   49CHL1  H12A 6064   3.687   2.621   9.212 -1.4971  1.1188  0.4471
   49CHL1  H12B 6065   3.834   2.712   9.260 -0.1524 -0.8545 -1.2067
   49CHL1   C11 6066   3.703   2.682   9.423  0.6413  0.2505 -0.5442
   49CHL1  H11A 6067   3.596   2.654   9.432  0.1085  2.0178 -1.1925
   49CHL1  H11B 6068   3.760   2.591   9.450 -0.1161 -0.1420 -0.2592
   49CHL1    C9 6069   3.742   2.794   9.516 -0.5108  0.2721  0.1785
   49CHL1    H9 6070   3.852   2.795   9.505 -0.7000 -0.4816 -1.8879
   49CHL1   C10 6071   3.722   2.772   9.667 -0.0055  0.0417  0.5337
   49CHL1   C19 6072   3.581   2.721   9.689  0.2453 -0.0705 -0.1563
   49CHL1  H19A 6073   3.512   2.802   9.656  2.2413  1.1979 -1.3525
   49CHL1  H19B 6074   3.573   2.617   9.648  1.1476  0.7684 -2.5985
   49CHL1  H19C 6075   3.570   2.720   9.799  0.8397 -0.8735 -0.0957
   49CHL1    C1 6076   3.823   2.663   9.708  0.0185 -0.4442  0.1073
   49CHL1   H1A 6077   3.792   2.566   9.663  0.7876 -0.3039 -0.7150
   49CHL1   H1B 6078   3.922   2.697   9.671 -0.9352  0.1482 -1.9264
   49CHL1    C2 6079   3.834   2.640   9.862  0.2218 -0.0499  0.7661
   49CHL1   H2A 6080   3.915   2.565   9.874 -0.0659 -0.3550  0.8491
   49CHL1   H2B 6081   3.734   2.595   9.884 -1.4627  3.7681  1.3160
   49CHL1   C20 6082   3.667   2.823   8.970  0.3171 -0.0115  0.6412
   49CHL1   H20 6083   3.665   2.712   8.986  2.0099 -0.3319 -1.2402
   49CHL1   C21 6084   3.787   2.828   8.872  0.7136  0.7424 -0.0780
   49CHL1  H21A 6085   3.756   2.779   8.777  1.1087  0.4067 -0.0340
   49CHL1  H21B 6086   3.876   2.773   8.910  0.8746 -0.5718 -2.2770
   49CHL1  H21C 6087   3.822   2.931   8.851  0.3928  0.6552 -1.0931
   49CHL1   C22 6088   3.537   2.859   8.905  0.0193  0.1248  0.2229
   49CHL1  H22A 6089   3.461   2.841   8.985  1.1444  1.0146  1.5016
   49CHL1  H22B 6090   3.526   2.966   8.879 -1.7244 -0.3300 -1.0714
   49CHL1   C23 6091   3.498   2.775   8.783 -0.0817 -0.6174  0.0915
   49CHL1  H23A 6092   3.551   2.814   8.693  1.4120  0.4894  1.4242
   49CHL1  H23B 6093   3.519   2.668   8.804  0.0553 -0.6582 -0.2604
   49CHL1   C24 6094   3.347   2.788   8.743 -0.4752 -0.2752 -0.6735
   49CHL1  H24A 6095   3.278   2.747   8.820 -1.5394  2.3496 -0.1796
   49CHL1  H24B 6096   3.321   2.896   8.745  1.1295  0.1275  2.6515
   49CHL1   C25 6097   3.317   2.715   8.614 -0.8726 -0.1078 -0.1642
   49CHL1   H25 6098   3.374   2.620   8.611  1.8411  1.3494  2.7988
   49CHL1   C26 6099   3.164   2.676   8.614  0.5947 -0.3544 -0.3242
   49CHL1  H26A 6100   3.116   2.770   8.648 -0.0025 -0.9698  0.5440
   49CHL1  H26B 6101   3.133   2.636   8.516  1.6309 -0.3655 -0.6532
   49CHL1  H26C 6102   3.147   2.597   8.691  0.2536  0.5515  0.5447
   49CHL1   C27 6103   3.341   2.787   8.482 -0.3203  0.2615  0.1522
   49CHL1  H27A 6104   3.352   2.723   8.392  1.9361  2.1404 -0.9280
   49CHL1  H27B 6105   3.279   2.879   8.474 -0.8535 -0.2997 -2.5572
   49CHL1  H27C 6106   3.447   2.817   8.494 -0.0141 -0.3990 -0.8533
   50CHL1    C3 6107   0.392   4.330  10.182  0.9281 -0.1371 -0.3115
   50CHL1    H3 6108   0.462   4.244  10.181  1.9135  0.6259  0.6546
   50CHL1    O3 6109   0.343   4.350  10.313 -0.4396 -0.4978  0.2564
   50CHL1   H3' 6110   0.305   4.269  10.347  1.1748 -0.5665  1.9564
   50CHL1    C4 6111   0.470   4.466  10.143  0.8156  0.1280  0.2452
   50CHL1   H4A 6112   0.399   4.541  10.183  0.3750 -0.1065 -0.0911
   50CHL1   H4B 6113   0.560   4.469  10.208 -1.7169 -0.3280  3.8652
   50CHL1    C5 6114   0.500   4.472  10.001  0.0888 -1.0558 -0.5060
   50CHL1    C6 6115   0.621   4.501   9.950  0.2642 -0.0074 -0.3374
   50CHL1    H6 6116   0.703   4.522  10.021  0.2978  0.4434 -0.5072
   50CHL1    C7 6117   0.652   4.528   9.803 -0.6108 -0.0779 -0.1731
   50CHL1   H7A 6118   0.733   4.604   9.804 -2.9096  2.4255  0.1375
   50CHL1   H7B 6119   0.697   4.437   9.758  0.9305  1.4736 -1.8821
   50CHL1    C8 6120   0.527   4.559   9.722 -0.2040  0.6103 -0.6307
   50CHL1    H8 6121   0.487   4.657   9.754  0.8790  0.8172  0.0932
   50CHL1   C14 6122   0.568   4.564   9.575 -0.4954  0.4074 -0.0186
   50CHL1   H14 6123   0.609   4.463   9.550 -1.1255 -0.3623  1.9343
   50CHL1   C15 6124   0.681   4.665   9.538  0.8259 -0.0999  0.9635
   50CHL1  H15A 6125   0.670   4.758   9.596 -0.8639 -0.0125  0.5212
   50CHL1  H15B 6126   0.783   4.626   9.559  1.7120  2.2563  1.1017
   50CHL1   C16 6127   0.655   4.682   9.387 -0.5987 -0.3102 -0.2797
   50CHL1  H16A 6128   0.628   4.785   9.354 -0.7847 -0.0184  0.7377
   50CHL1  H16B 6129   0.745   4.665   9.324  1.8586  2.0562  2.4236
   50CHL1   C17 6130   0.540   4.588   9.354 -0.7383  0.5986  0.0656
   50CHL1   H17 6131   0.583   4.486   9.341 -0.8713  0.8081 -2.1140
   50CHL1   C13 6132   0.454   4.584   9.479 -0.4817  0.1661 -0.8447
   50CHL1   C18 6133   0.386   4.721   9.504 -0.1506  0.0670  0.4055
   50CHL1  H18A 6134   0.295   4.732   9.441  0.3700  0.0990 -0.3502
   50CHL1  H18B 6135   0.336   4.714   9.603 -0.3007  0.6361  0.3698
   50CHL1  H18C 6136   0.446   4.815   9.504  0.0283 -0.0470  0.8365
   50CHL1   C12 6137   0.349   4.468   9.503 -0.2950 -0.1239  0.3572
   50CHL1  H12A 6138   0.262   4.498   9.441  1.6046  2.2802 -1.2265
   50CHL1  H12B 6139   0.398   4.373   9.472  1.9104  0.2172  2.6478
   50CHL1   C11 6140   0.307   4.455   9.646  0.8041 -0.0200  0.2480
   50CHL1  H11A 6141   0.228   4.532   9.661 -1.1269 -1.6902 -1.0599
   50CHL1  H11B 6142   0.268   4.351   9.651 -0.0443  0.2373 -0.8693
   50CHL1    C9 6143   0.426   4.450   9.745 -0.0179  0.1895 -0.7943
   50CHL1    H9 6144   0.477   4.351   9.739  0.1027 -0.0994  3.4019
   50CHL1   C10 6145   0.385   4.456   9.899  0.1342  0.8846 -0.3333
   50CHL1   C19 6146   0.275   4.564   9.915  0.7387 -0.9155 -0.1969
   50CHL1  H19A 6147   0.281   4.653   9.849  1.1864  0.5691  1.7957
   50CHL1  H19B 6148   0.175   4.519   9.900  0.4028 -0.2642  0.0470
   50CHL1  H19C 6149   0.275   4.601  10.020  0.1008 -0.0303 -0.4950
   50CHL1    C1 6150   0.321   4.318   9.945 -0.0893  0.1067  0.7038
   50CHL1   H1A 6151   0.233   4.300   9.879 -0.0830  0.7540  0.5099
   50CHL1   H1B 6152   0.400   4.243   9.927  0.4104  0.6298  0.7096
   50CHL1    C2 6153   0.281   4.305  10.090  0.8524  0.6301  0.4553
   50CHL1   H2A 6154   0.252   4.199  10.105 -0.1097  0.6367 -1.2743
   50CHL1   H2B 6155   0.195   4.370  10.117  0.1942 -0.2636  0.5186
   50CHL1   C20 6156   0.465   4.607   9.215 -0.5241 -0.2550 -0.6510
   50CHL1   H20 6157   0.358   4.598   9.244  0.1263 -3.1556  1.0801
   50CHL1   C21 6158   0.507   4.492   9.123 -0.0967  0.1730 -0.4002
   50CHL1  H21A 6159   0.451   4.500   9.027  2.1053  1.4912 -1.6195
   50CHL1  H21B 6160   0.471   4.402   9.177  1.8601  0.5226  1.5641
   50CHL1  H21C 6161   0.617   4.487   9.110  0.3859  3.5668  1.7553
   50CHL1   C22 6162   0.481   4.743   9.140 -0.4292 -0.2159 -0.6590
   50CHL1  H22A 6163   0.467   4.823   9.216  1.8263 -1.3534  1.0170
   50CHL1  H22B 6164   0.585   4.754   9.103 -0.5802 -1.3284 -1.4225
   50CHL1   C23 6165   0.382   4.762   9.023 -0.1717  0.2128  0.7463
   50CHL1  H23A 6166   0.373   4.666   8.967  1.6490  0.7302 -0.4710
   50CHL1  H23B 6167   0.277   4.773   9.058 -0.4688 -0.4675  0.0987
   50CHL1   C24 6168   0.429   4.870   8.932 -0.3708  0.5367 -0.4713
   50CHL1  H24A 6169   0.461   4.960   8.990 -2.4290  0.4087  0.9194
   50CHL1  H24B 6170   0.514   4.834   8.871 -0.2712  0.7552 -0.4630
   50CHL1   C25 6171   0.321   4.915   8.832 -0.1235  0.4339  0.1612
   50CHL1   H25 6172   0.226   4.938   8.885 -0.1652  1.7487 -0.4654
   50CHL1   C26 6173   0.367   5.033   8.754  0.5140  0.3587  0.0810
   50CHL1  H26A 6174   0.299   5.064   8.671  2.3419  1.2106 -1.1370
   50CHL1  H26B 6175   0.368   5.118   8.826 -2.8088 -0.6648  1.4060
   50CHL1  H26C 6176   0.464   5.018   8.702 -0.0037 -2.3761 -0.1537
   50CHL1   C27 6177   0.295   4.798   8.734 -0.2545  0.4949 -0.0118
   50CHL1  H27A 6178   0.213   4.824   8.663 -1.8243 -1.9013  0.8846
   50CHL1  H27B 6179   0.389   4.762   8.686  0.0325  0.5478  0.5073
   50CHL1  H27C 6180   0.249   4.715   8.791  1.0420 -0.5526 -0.4599
   51CHL1    C3 6181   1.399   0.196  10.197 -0.4917 -0.4510 -0.1769
   51CHL1    H3 6182   1.496   0.251  10.204  0.3564 -1.6695 -1.8359
   51CHL1    O3 6183   1.353   0.158  10.324  0.2399 -0.1609 -0.3192
   51CHL1   H3' 6184   1.276   0.104  10.301  1.6224 -1.0983 -2.9760
   51CHL1    C4 6185   1.293   0.293  10.133 -0.0449 -0.2504  0.1691
   51CHL1   H4A 6186   1.195   0.242  10.149 -0.6032 -0.2231 -2.9244
   51CHL1   H4B 6187   1.298   0.384  10.196  1.5491 -0.9035  1.0412
   51CHL1    C5 6188   1.326   0.337   9.991  0.2855 -0.1468  0.8107
   51CHL1    C6 6189   1.321   0.466   9.957 -0.2007 -0.2499 -0.4830
   51CHL1    H6 6190   1.289   0.545  10.027 -0.2559  0.1835 -0.9920
   51CHL1    C7 6191   1.332   0.513   9.817 -0.3067 -0.4777 -0.1218
   51CHL1   H7A 6192   1.231   0.553   9.794  0.4497  1.9549  0.6893
   51CHL1   H7B 6193   1.423   0.575   9.801 -1.0752  0.9118  0.8365
   51CHL1    C8 6194   1.344   0.407   9.709  0.0574  0.0309 -1.1472
   51CHL1    H8 6195   1.238   0.376   9.697 -0.5121  1.9284 -1.2051
   51CHL1   C14 6196   1.407   0.461   9.582  0.6562 -0.1348 -0.3474
   51CHL1   H14 6197   1.514   0.480   9.604  0.8633 -2.2918  0.6841
   51CHL1   C15 6198   1.358   0.589   9.515  0.0562  0.4103  0.0246
   51CHL1  H15A 6199   1.249   0.571   9.505  0.0879 -0.5911  1.2760
   51CHL1  H15B 6200   1.382   0.686   9.565  0.4025 -0.5518  1.7894
   51CHL1   C16 6201   1.409   0.581   9.371  1.0893  0.2262 -0.8490
   51CHL1  H16A 6202   1.328   0.599   9.297 -1.3369 -0.4770  1.5494
   51CHL1  H16B 6203   1.489   0.657   9.361  2.3162 -0.9073  0.1673
   51CHL1   C17 6204   1.475   0.439   9.355 -0.1014 -0.2656  0.1527
   51CHL1   H17 6205   1.581   0.435   9.388 -0.1829 -1.6588  0.2626
   51CHL1   C13 6206   1.411   0.358   9.465 -0.1358 -0.2636 -0.0058
   51CHL1   C18 6207   1.272   0.313   9.431 -0.3439 -0.3838  0.3163
   51CHL1  H18A 6208   1.217   0.268   9.516 -1.1634  2.6687  1.4612
   51CHL1  H18B 6209   1.206   0.388   9.381 -1.3738 -0.5370  1.4430
   51CHL1  H18C 6210   1.284   0.227   9.362  3.2313 -0.8380  1.3989
   51CHL1   C12 6211   1.492   0.236   9.512  0.5158  0.2012 -0.5546
   51CHL1  H12A 6212   1.493   0.158   9.433 -2.4230 -0.5900  0.1111
   51CHL1  H12B 6213   1.593   0.275   9.534  1.4289 -1.8223 -1.0857
   51CHL1   C11 6214   1.438   0.173   9.647  0.5453 -0.4762  0.2640
   51CHL1  H11A 6215   1.336   0.139   9.621  0.2503 -0.9680  2.0098
   51CHL1  H11B 6216   1.502   0.086   9.672 -1.1448 -1.5747  0.8496
   51CHL1    C9 6217   1.420   0.277   9.758 -0.1669  0.8221 -0.5726
   51CHL1    H9 6218   1.518   0.323   9.783  0.3157  1.6644 -3.7900
   51CHL1   C10 6219   1.362   0.221   9.888  0.4597 -0.1871  0.1252
   51CHL1   C19 6220   1.237   0.133   9.861  0.3004  0.1993  0.2569
   51CHL1  H19A 6221   1.195   0.082   9.950 -1.8114 -0.6227 -1.1742
   51CHL1  H19B 6222   1.159   0.204   9.825 -0.0778 -0.3624 -0.0544
   51CHL1  H19C 6223   1.248   0.057   9.780 -0.0275 -1.8503  2.0909
   51CHL1    C1 6224   1.458   0.127   9.954 -0.4350  0.5728 -0.8356
   51CHL1   H1A 6225   1.490   0.036   9.899 -1.2932 -1.1642  1.4756
   51CHL1   H1B 6226   1.547   0.191   9.975  0.9640 -2.0851  1.7968
   51CHL1    C2 6227   1.418   0.074  10.102  0.3051  0.0523  0.0752
   51CHL1   H2A 6228   1.503   0.017  10.146  0.4929 -0.2904 -0.7238
   51CHL1   H2B 6229   1.324   0.014  10.094 -1.2947  2.7107 -2.2878
   51CHL1   C20 6230   1.482   0.383   9.208  0.3441  0.2695  0.0149
   51CHL1   H20 6231   1.491   0.272   9.207  0.9366  0.3252 -2.0480
   51CHL1   C21 6232   1.611   0.446   9.147  0.5280 -0.7413  0.4080
   51CHL1  H21A 6233   1.599   0.556   9.157  1.0868 -0.6374 -0.0272
   51CHL1  H21B 6234   1.623   0.412   9.042 -0.0970  1.3143 -0.3489
   51CHL1  H21C 6235   1.701   0.421   9.207  0.3274 -1.5213  0.3903
   51CHL1   C22 6236   1.363   0.415   9.120 -0.2331 -0.1249 -0.5943
   51CHL1  H22A 6237   1.264   0.398   9.169 -0.6316  1.4002 -0.8539
   51CHL1  H22B 6238   1.359   0.526   9.111 -1.6227 -0.2980 -2.3718
   51CHL1   C23 6239   1.357   0.349   8.982 -0.2924  0.6858  0.2982
   51CHL1  H23A 6240   1.266   0.388   8.932 -0.8237 -0.8275  0.0482
   51CHL1  H23B 6241   1.447   0.374   8.922 -0.8999  0.6545 -0.6481
   51CHL1   C24 6242   1.341   0.196   8.981 -0.0386  0.2654  0.0664
   51CHL1  H24A 6243   1.421   0.133   9.025  1.1755  1.9698  0.3223
   51CHL1  H24B 6244   1.254   0.174   9.046 -0.1250 -0.2302 -0.2051
   51CHL1   C25 6245   1.298   0.126   8.850 -0.0632 -0.1422 -0.0107
   51CHL1   H25 6246   1.361   0.164   8.767  0.3363 -2.2402 -0.7055
   51CHL1   C26 6247   1.327  -0.024   8.857 -0.9255 -0.2740  0.4835
   51CHL1  H26A 6248   1.315  -0.082   8.762  1.4877 -0.0150  0.0001
   51CHL1  H26B 6249   1.430  -0.038   8.894 -0.3665 -0.6659 -1.1566
   51CHL1  H26C 6250   1.261  -0.072   8.932 -0.4599 -1.7619 -0.0305
   51CHL1   C27 6251   1.147   0.162   8.825 -0.0752 -0.2434 -0.2167
   51CHL1  H27A 6252   1.116   0.131   8.723 -1.8228 -0.2063  0.2788
   51CHL1  H27B 6253   1.078   0.117   8.900  0.8440  0.1994  0.8953
   51CHL1  H27C 6254   1.135   0.271   8.841  0.4123  0.0935 -2.0141
   52CHL1    C3 6255   5.031   6.229   9.915  0.2607  0.3751  0.8636
   52CHL1    H3 6256   4.925   6.256   9.893  0.6688  0.6945 -0.7242
   52CHL1    O3 6257   5.042   6.184  10.051 -0.1312  0.1068 -0.3021
   52CHL1   H3' 6258   5.108   6.114  10.047  0.0916  0.3802 -1.6114
   52CHL1    C4 6259   5.091   6.134   9.819 -0.3643 -0.4436 -0.1746
   52CHL1   H4A 6260   5.193   6.113   9.858 -0.1702 -1.7230 -1.3256
   52CHL1   H4B 6261   5.046   6.034   9.838  2.1491 -1.6706 -0.4737
   52CHL1    C5 6262   5.095   6.176   9.674 -0.3379 -0.3026  0.0959
   52CHL1    C6 6263   5.059   6.085   9.584 -0.5499  0.9668 -0.4647
   52CHL1    H6 6264   5.018   5.989   9.619  0.8427  0.4767 -0.1545
   52CHL1    C7 6265   5.069   6.109   9.437 -0.1597 -0.2300 -0.4707
   52CHL1   H7A 6266   5.128   6.031   9.384  1.1112  0.6916 -0.4304
   52CHL1   H7B 6267   4.968   6.111   9.390  0.0371  0.2352 -0.8802
   52CHL1    C8 6268   5.123   6.250   9.391  0.1295 -0.0213 -0.8850
   52CHL1    H8 6269   5.233   6.235   9.401 -0.2250 -1.3420  1.3194
   52CHL1   C14 6270   5.085   6.284   9.259  0.3028 -0.4551 -0.3688
   52CHL1   H14 6271   4.980   6.318   9.271 -0.2290 -1.0592 -3.0234
   52CHL1   C15 6272   5.081   6.174   9.154 -0.2483 -0.2548 -0.7953
   52CHL1  H15A 6273   5.177   6.121   9.174 -0.0573  0.2009 -0.5010
   52CHL1  H15B 6274   4.993   6.107   9.166 -1.0043  0.6746 -1.1279
   52CHL1   C16 6275   5.087   6.256   9.021 -0.4992  0.2226  0.1811
   52CHL1  H16A 6276   5.180   6.235   8.962 -0.4014 -0.9661  0.7446
   52CHL1  H16B 6277   5.003   6.226   8.955 -0.6797 -0.7349  0.8380
   52CHL1   C17 6278   5.089   6.408   9.065  0.1086  0.4327 -0.1156
   52CHL1   H17 6279   4.982   6.435   9.078  0.1160  1.1861 -1.5199
   52CHL1   C13 6280   5.154   6.413   9.204  0.8620  0.3194 -0.1307
   52CHL1   C18 6281   5.309   6.387   9.188  0.5811  0.3728 -0.3509
   52CHL1  H18A 6282   5.349   6.329   9.274  0.2445  1.2303  0.3927
   52CHL1  H18B 6283   5.333   6.327   9.098  2.2150  2.6909 -1.5081
   52CHL1  H18C 6284   5.366   6.481   9.173  0.7473  0.0370 -1.8602
   52CHL1   C12 6285   5.121   6.531   9.308 -0.4708 -0.1385  0.7814
   52CHL1  H12A 6286   5.174   6.627   9.285 -1.9081  0.4912  0.0401
   52CHL1  H12B 6287   5.011   6.547   9.307 -0.0892  2.9113 -1.8615
   52CHL1   C11 6288   5.166   6.495   9.449 -0.5616  0.5762  0.8631
   52CHL1  H11A 6289   5.275   6.470   9.444 -0.3699  1.0110  2.5016
   52CHL1  H11B 6290   5.136   6.578   9.516 -2.0835  1.0106 -0.3531
   52CHL1    C9 6291   5.097   6.359   9.495  0.6145  0.5338 -1.1636
   52CHL1    H9 6292   4.986   6.369   9.503  0.5356 -0.9967 -0.0885
   52CHL1   C10 6293   5.138   6.317   9.640  0.2503 -0.4592  0.2003
   52CHL1   C19 6294   5.292   6.325   9.647  0.2374 -0.1959  0.1849
   52CHL1  H19A 6295   5.335   6.427   9.657 -1.9046  0.8360 -0.8783
   52CHL1  H19B 6296   5.321   6.283   9.746 -0.6865 -0.5981  0.2884
   52CHL1  H19C 6297   5.347   6.273   9.565 -3.1290  1.5176 -3.3225
   52CHL1    C1 6298   5.082   6.420   9.745  0.4984 -0.2132 -0.2202
   52CHL1   H1A 6299   5.135   6.517   9.744 -3.3229  2.0102  1.2726
   52CHL1   H1B 6300   4.973   6.442   9.739  0.5725 -0.2524 -2.0859
   52CHL1    C2 6301   5.104   6.369   9.892  0.2269  0.8405  1.2390
   52CHL1   H2A 6302   5.067   6.438   9.971 -2.2499  0.6045  0.3051
   52CHL1   H2B 6303   5.213   6.353   9.909  0.5182 -0.2181 -1.3396
   52CHL1   C20 6304   5.153   6.507   8.958  0.0504  0.4330 -0.0693
   52CHL1   H20 6305   5.262   6.487   8.950 -0.1703 -1.3664  1.1157
   52CHL1   C21 6306   5.121   6.645   9.011  0.0369 -0.0393  0.1472
   52CHL1  H21A 6307   5.117   6.709   8.920 -0.1854 -0.2496  0.0096
   52CHL1  H21B 6308   5.212   6.683   9.063  1.1790 -1.9942 -0.3891
   52CHL1  H21C 6309   5.028   6.659   9.070 -0.5097 -0.7914 -0.5264
   52CHL1   C22 6310   5.111   6.497   8.807 -0.5162 -0.0188 -0.3275
   52CHL1  H22A 6311   5.155   6.584   8.755 -0.8384  0.2628 -0.1353
   52CHL1  H22B 6312   5.163   6.407   8.768 -1.2018 -1.4824  1.9900
   52CHL1   C23 6313   4.960   6.495   8.790  0.6477  0.6446  0.0705
   52CHL1  H23A 6314   4.912   6.414   8.849 -0.5244  0.5570 -0.9795
   52CHL1  H23B 6315   4.923   6.589   8.835 -3.5354 -0.5437 -0.6050
   52CHL1   C24 6316   4.930   6.481   8.643  0.4099  0.1976  0.5778
   52CHL1  H24A 6317   4.983   6.554   8.577 -0.7595  1.0405  0.5634
   52CHL1  H24B 6318   4.965   6.380   8.612 -1.3247 -0.0569 -0.5842
   52CHL1   C25 6319   4.780   6.494   8.609  0.5769  0.6702  0.1250
   52CHL1   H25 6320   4.737   6.585   8.655  0.8658 -0.3164  2.3870
   52CHL1   C26 6321   4.755   6.477   8.460  0.0971  0.0753 -0.1732
   52CHL1  H26A 6322   4.648   6.480   8.430  0.0146  0.7288  0.1795
   52CHL1  H26B 6323   4.808   6.555   8.401  1.4334  2.1341  3.5850
   52CHL1  H26C 6324   4.780   6.375   8.424 -0.6080  0.0039 -0.4633
   52CHL1   C27 6325   4.697   6.393   8.691  0.5856  0.5421 -0.4295
   52CHL1  H27A 6326   4.741   6.291   8.683  1.8371  1.1428 -1.3727
   52CHL1  H27B 6327   4.676   6.423   8.795 -1.0685  1.3931 -0.9772
   52CHL1  H27C 6328   4.594   6.377   8.650 -1.0063  1.4484  3.0409
   53CHL1    C3 6329   6.076   5.339  10.003 -0.0445 -0.3184 -0.9996
   53CHL1    H3 6330   5.970   5.331   9.970 -0.8920  1.4731  1.1670
   53CHL1    O3 6331   6.079   5.346  10.143 -0.1233 -0.7038  0.0058
   53CHL1   H3' 6332   6.171   5.359  10.169 -0.5708  0.2799  1.1383
   53CHL1    C4 6333   6.154   5.217   9.958  0.5151 -0.0570  0.9037
   53CHL1   H4A 6334   6.258   5.229   9.996  0.9045  1.7543 -0.6649
   53CHL1   H4B 6335   6.115   5.124  10.004  0.4220  0.0337  1.0073
   53CHL1    C5 6336   6.150   5.210   9.803  0.1500  0.5477 -0.2788
   53CHL1    C6 6337   6.095   5.101   9.746 -1.0757 -0.2917 -0.5429
   53CHL1    H6 6338   6.065   5.015   9.808 -2.8068 -0.7394 -1.9800
   53CHL1    C7 6339   6.094   5.087   9.592 -0.1111 -0.3363  0.1461
   53CHL1   H7A 6340   6.107   4.984   9.553  0.8683 -0.3676  0.5555
   53CHL1   H7B 6341   5.988   5.110   9.565 -0.3747 -1.7968 -0.1294
   53CHL1    C8 6342   6.177   5.195   9.523 -0.5313 -0.3647  0.3074
   53CHL1    H8 6343   6.279   5.150   9.526 -0.8004 -0.9127  2.3654
   53CHL1   C14 6344   6.127   5.201   9.375 -0.2545  0.3071  0.4504
   53CHL1   H14 6345   6.020   5.230   9.388 -0.7894 -1.9865  1.3985
   53CHL1   C15 6346   6.120   5.073   9.279 -0.2360  0.7153  0.6262
   53CHL1  H15A 6347   6.212   5.011   9.286 -1.1458 -0.5514  1.7011
   53CHL1  H15B 6348   6.028   5.021   9.313  0.7411 -1.9849 -0.7359
   53CHL1   C16 6349   6.089   5.138   9.145  0.6288  0.6348  0.2371
   53CHL1  H16A 6350   6.137   5.082   9.062 -1.7214 -2.2024  0.6947
   53CHL1  H16B 6351   5.983   5.127   9.113  0.5962 -2.5468  1.2830
   53CHL1   C17 6352   6.138   5.288   9.152 -0.0943 -0.6240 -0.3142
   53CHL1   H17 6353   6.043   5.344   9.168 -0.8040 -1.6628 -0.8084
   53CHL1   C13 6354   6.203   5.300   9.291  0.5246 -0.3548  0.4157
   53CHL1   C18 6355   6.354   5.264   9.275  0.4944 -0.1777 -0.8803
   53CHL1  H18A 6356   6.400   5.259   9.376 -1.5661 -3.9600 -0.0279
   53CHL1  H18B 6357   6.381   5.171   9.222 -1.2524 -1.6335  0.7154
   53CHL1  H18C 6358   6.405   5.343   9.215  0.5159  1.7558  1.5840
   53CHL1   C12 6359   6.195   5.444   9.351 -0.0672 -0.2216  0.0901
   53CHL1  H12A 6360   6.267   5.509   9.296 -0.9832 -1.3798 -2.5168
   53CHL1  H12B 6361   6.094   5.482   9.326  0.4406  0.0590 -1.5905
   53CHL1   C11 6362   6.220   5.443   9.496 -0.8080 -0.7014 -0.3343
   53CHL1  H11A 6363   6.330   5.430   9.503 -0.7585  0.0680  0.3215
   53CHL1  H11B 6364   6.193   5.544   9.534 -0.9623 -0.9756  0.2799
   53CHL1    C9 6365   6.164   5.334   9.584  0.3000 -0.3145 -0.0033
   53CHL1    H9 6366   6.054   5.349   9.585  0.2781 -0.4818  1.1106
   53CHL1   C10 6367   6.206   5.330   9.733 -0.3093  0.0210 -0.1108
   53CHL1   C19 6368   6.361   5.332   9.740  0.1090  0.0508 -0.6695
   53CHL1  H19A 6369   6.406   5.314   9.840 -0.7740  3.5102  0.4414
   53CHL1  H19B 6370   6.407   5.253   9.677 -2.9495 -0.0304 -2.9111
   53CHL1  H19C 6371   6.402   5.427   9.698 -0.6090  0.8164  0.3205
   53CHL1    C1 6372   6.147   5.454   9.797 -0.7230 -0.9545  0.0256
   53CHL1   H1A 6373   6.203   5.543   9.760 -0.8625 -0.0814  1.8462
   53CHL1   H1B 6374   6.041   5.455   9.765  0.0170  2.8621 -2.6072
   53CHL1    C2 6375   6.147   5.463   9.949  0.2023  0.5156  1.1841
   53CHL1   H2A 6376   6.091   5.552   9.987 -0.5313 -0.3416  2.1290
   53CHL1   H2B 6377   6.253   5.463   9.981  1.7739 -0.2389 -3.6618
   53CHL1   C20 6378   6.192   5.333   9.020 -0.0777 -0.1218  0.6520
   53CHL1   H20 6379   6.264   5.257   8.984 -0.6646 -1.4397  2.2020
   53CHL1   C21 6380   6.246   5.475   9.009 -0.1946  0.3257 -0.2044
   53CHL1  H21A 6381   6.163   5.546   9.028  0.2686  0.8774 -0.2268
   53CHL1  H21B 6382   6.301   5.487   8.913 -0.5558 -0.6975 -0.5477
   53CHL1  H21C 6383   6.317   5.495   9.092 -1.0357  1.0634  0.3335
   53CHL1   C22 6384   6.091   5.321   8.901  0.3366  0.2894  0.0444
   53CHL1  H22A 6385   6.143   5.350   8.808  1.4101 -2.6458 -0.3144
   53CHL1  H22B 6386   6.077   5.212   8.886  2.5332 -0.3158  2.1274
   53CHL1   C23 6387   5.960   5.393   8.915 -0.0652 -0.0253 -0.0940
   53CHL1  H23A 6388   5.898   5.351   8.997  0.3919 -0.2124  0.1548
   53CHL1  H23B 6389   5.984   5.497   8.949 -0.8916  0.4412 -0.9156
   53CHL1   C24 6390   5.886   5.412   8.775 -0.1674  0.5710 -0.5841
   53CHL1  H24A 6391   5.955   5.476   8.716 -1.7799  1.4062 -1.5908
   53CHL1  H24B 6392   5.900   5.310   8.734 -0.5541 -0.9746  2.9525
   53CHL1   C25 6393   5.737   5.459   8.789 -0.3715 -0.0808  0.0973
   53CHL1   H25 6394   5.705   5.486   8.686 -1.0505  0.9575  0.5670
   53CHL1   C26 6395   5.631   5.356   8.838 -0.2272  0.1814 -0.3370
   53CHL1  H26A 6396   5.623   5.360   8.949  1.0315  0.5107 -0.2392
   53CHL1  H26B 6397   5.534   5.382   8.792 -0.2853  0.9382  0.2166
   53CHL1  H26C 6398   5.648   5.251   8.806  1.5411 -0.0666  1.2864
   53CHL1   C27 6399   5.724   5.587   8.876 -0.7662  0.1267 -0.1058
   53CHL1  H27A 6400   5.780   5.575   8.971 -2.1279 -1.7582  0.4834
   53CHL1  H27B 6401   5.772   5.672   8.824  1.8260 -0.4929  1.2259
   53CHL1  H27C 6402   5.617   5.611   8.897 -0.6050 -0.3924  1.3614
   54CHL1    C3 6403   5.863   6.165  10.207 -0.0482  0.7368  0.7653
   54CHL1    H3 6404   5.966   6.194  10.178  0.0475  1.6127  1.9640
   54CHL1    O3 6405   5.858   6.101  10.335 -0.4450  0.1409 -0.5028
   54CHL1   H3' 6406   5.940   6.056  10.357 -0.4779  0.3381  0.0223
   54CHL1    C4 6407   5.787   6.295  10.208  0.5188  0.3253  0.2555
   54CHL1   H4A 6408   5.682   6.293  10.245 -0.3235  0.5430 -2.0323
   54CHL1   H4B 6409   5.842   6.367  10.272  0.2071  0.8606 -0.0746
   54CHL1    C5 6410   5.799   6.351  10.062  0.5456  0.1662  0.8559
   54CHL1    C6 6411   5.864   6.466  10.035  0.5195  0.2606 -0.5971
   54CHL1    H6 6412   5.894   6.530  10.118 -0.2607  0.5167 -0.5129
   54CHL1    C7 6413   5.871   6.530   9.901  0.3419 -0.3341 -0.4173
   54CHL1   H7A 6414   5.855   6.640   9.904  3.4143  0.2170 -1.7341
   54CHL1   H7B 6415   5.972   6.516   9.855 -0.1911 -0.2676 -1.6269
   54CHL1    C8 6416   5.774   6.460   9.796  0.0886 -0.0221  0.0802
   54CHL1    H8 6417   5.669   6.479   9.827  0.4357  0.7986  0.7728
   54CHL1   C14 6418   5.815   6.508   9.657 -0.4299  0.1199 -0.6424
   54CHL1   H14 6419   5.915   6.461   9.648 -0.3398 -0.1209  1.2402
   54CHL1   C15 6420   5.830   6.658   9.631  0.4480  0.3907  0.4198
   54CHL1  H15A 6421   5.746   6.701   9.689 -0.0603  0.2179 -0.1807
   54CHL1  H15B 6422   5.928   6.696   9.666  1.4805 -0.0983 -1.8706
   54CHL1   C16 6423   5.815   6.663   9.480  0.1554 -0.1041 -0.5189
   54CHL1  H16A 6424   5.728   6.723   9.446 -0.5758 -1.0085 -0.2472
   54CHL1  H16B 6425   5.897   6.722   9.432 -0.5427  0.8970 -0.5009
   54CHL1   C17 6426   5.808   6.525   9.424  0.2293 -0.4024  0.0854
   54CHL1   H17 6427   5.913   6.489   9.415  0.8380  0.8331  1.9758
   54CHL1   C13 6428   5.741   6.444   9.545 -0.8117 -0.4810  0.4459
   54CHL1   C18 6429   5.592   6.475   9.555 -0.9571  0.3769  0.1049
   54CHL1  H18A 6430   5.565   6.443   9.658 -0.0213 -3.1583 -0.6499
   54CHL1  H18B 6431   5.579   6.584   9.538 -0.7737  0.5032  0.7468
   54CHL1  H18C 6432   5.534   6.423   9.475 -1.0089 -0.8730  0.9429
   54CHL1   C12 6433   5.777   6.293   9.546 -0.1764 -0.3767 -0.5175
   54CHL1  H12A 6434   5.732   6.228   9.468 -1.0048 -1.3202  0.7471
   54CHL1  H12B 6435   5.887   6.293   9.531 -0.0332 -0.7613  0.4811
   54CHL1   C11 6436   5.744   6.236   9.687  0.0683 -0.4413  0.2709
   54CHL1  H11A 6437   5.633   6.237   9.694  0.0626 -0.5717  0.1918
   54CHL1  H11B 6438   5.777   6.130   9.682 -1.7548 -0.9943 -0.4619
   54CHL1    C9 6439   5.800   6.314   9.808  0.1152  0.1068  0.3554
   54CHL1    H9 6440   5.910   6.299   9.800  0.0260 -1.7985  2.3800
   54CHL1   C10 6441   5.751   6.262   9.944  0.1775  0.0651  0.4691
   54CHL1   C19 6442   5.597   6.252   9.941  0.5948  0.3713 -0.5413
   54CHL1  H19A 6443   5.562   6.182   9.861 -0.9615 -1.0611  1.3325
   54CHL1  H19B 6444   5.556   6.214  10.037  1.2121 -0.7236 -0.7078
   54CHL1  H19C 6445   5.553   6.354   9.934  0.6689  0.4705  0.3522
   54CHL1    C1 6446   5.807   6.118   9.962  0.6102  0.2008  0.1568
   54CHL1   H1A 6447   5.734   6.051   9.911 -1.3674  0.2250  2.8635
   54CHL1   H1B 6448   5.910   6.111   9.920  0.0083 -3.0300 -0.8643
   54CHL1    C2 6449   5.810   6.063  10.107  0.1609 -0.2791  0.9074
   54CHL1   H2A 6450   5.873   5.972  10.101  1.0953  0.5087 -2.3020
   54CHL1   H2B 6451   5.704   6.036  10.123 -0.3003  0.1461 -1.2274
   54CHL1   C20 6452   5.733   6.520   9.290 -0.0044 -0.7885 -0.3635
   54CHL1   H20 6453   5.627   6.549   9.306  1.1389  2.6751  1.3888
   54CHL1   C21 6454   5.736   6.378   9.227  0.4781  0.2678  0.3531
   54CHL1  H21A 6455   5.660   6.317   9.279  1.9338  0.2186  2.5010
   54CHL1  H21B 6456   5.829   6.319   9.242  0.1513 -0.1973  0.5464
   54CHL1  H21C 6457   5.706   6.379   9.120  2.0541  1.6766 -0.1034
   54CHL1   C22 6458   5.770   6.633   9.184 -0.1075  0.3604  0.4534
   54CHL1  H22A 6459   5.777   6.733   9.232 -1.9639 -0.4143  2.4191
   54CHL1  H22B 6460   5.872   6.606   9.150  0.0575  0.0134  1.2063
   54CHL1   C23 6461   5.677   6.647   9.070 -0.3403  0.3441  0.1988
   54CHL1  H23A 6462   5.713   6.623   8.968  0.8344  3.1083 -0.0840
   54CHL1  H23B 6463   5.586   6.585   9.089 -0.4244  0.0759 -1.0218
   54CHL1   C24 6464   5.641   6.799   9.057 -0.4072 -0.0729  0.3575
   54CHL1  H24A 6465   5.555   6.810   8.987 -1.2981 -2.5281  1.0188
   54CHL1  H24B 6466   5.618   6.841   9.158 -2.0244 -1.2303  0.5033
   54CHL1   C25 6467   5.754   6.891   9.008 -0.0465 -0.0665 -0.4331
   54CHL1   H25 6468   5.842   6.896   9.075  0.5591  0.9722 -1.2922
   54CHL1   C26 6469   5.819   6.838   8.875  0.0107  0.6626 -0.0421
   54CHL1  H26A 6470   5.867   6.744   8.909 -2.2531  0.3824  2.6011
   54CHL1  H26B 6471   5.747   6.818   8.793 -0.7845  1.9641  0.3308
   54CHL1  H26C 6472   5.889   6.914   8.835 -0.8765  1.1796 -0.6196
   54CHL1   C27 6473   5.697   7.035   8.986  0.0490 -0.6938 -0.0175
   54CHL1  H27A 6474   5.755   7.087   8.907  1.3351  0.0702  1.4016
   54CHL1  H27B 6475   5.592   7.031   8.952  0.2519  0.7803 -0.8435
   54CHL1  H27C 6476   5.702   7.094   9.080 -0.8118 -0.6806  0.0196
   55CHL1    C3 6477   6.709   3.973   9.975  0.1077  0.1669 -0.8254
   55CHL1    H3 6478   6.737   3.866   9.959  0.4309  0.2803 -1.0157
   55CHL1    O3 6479   6.687   3.978  10.116  0.0820  0.1438  0.4737
   55CHL1   H3' 6480   6.658   4.067  10.138  0.5704  0.1359  1.1485
   55CHL1    C4 6481   6.833   4.059   9.946  0.3729 -0.0586  0.4373
   55CHL1   H4A 6482   6.813   4.155   9.999  0.2595  1.1303 -1.7146
   55CHL1   H4B 6483   6.919   4.012   9.999  1.1060  1.1752  0.3952
   55CHL1    C5 6484   6.865   4.075   9.802 -0.0740 -0.6118 -0.5974
   55CHL1    C6 6485   6.986   4.048   9.756  0.9406 -0.2731  0.2385
   55CHL1    H6 6486   7.067   4.020   9.825  0.2578 -1.6239  0.5066
   55CHL1    C7 6487   7.025   4.043   9.615  0.3707 -0.3797 -0.1661
   55CHL1   H7A 6488   7.121   4.094   9.593 -0.2504  0.4597 -0.9415
   55CHL1   H7B 6489   7.025   3.934   9.591 -1.3185  0.1386 -2.7568
   55CHL1    C8 6490   6.926   4.111   9.517 -0.3017  0.4469 -0.0620
   55CHL1    H8 6491   6.948   4.220   9.523 -0.4385  0.3600  3.1029
   55CHL1   C14 6492   6.955   4.069   9.375  0.2024 -0.5919 -1.5589
   55CHL1   H14 6493   6.932   3.960   9.371  0.5222 -0.7150 -0.1453
   55CHL1   C15 6494   7.098   4.084   9.318  0.5012 -0.1153  0.6312
   55CHL1  H15A 6495   7.161   4.164   9.362  0.2858  1.0977 -1.2272
   55CHL1  H15B 6496   7.159   3.995   9.344 -0.4514 -1.1937 -0.7658
   55CHL1   C16 6497   7.069   4.093   9.165 -0.2126 -0.4816 -0.6298
   55CHL1  H16A 6498   7.095   4.197   9.135 -2.0590 -0.0664 -0.8890
   55CHL1  H16B 6499   7.132   4.033   9.097  0.3779 -1.1361  0.4766
   55CHL1   C17 6500   6.916   4.083   9.143  0.6322  0.3577  0.0373
   55CHL1   H17 6501   6.891   3.974   9.139 -0.7829  0.7003 -0.8469
   55CHL1   C13 6502   6.851   4.135   9.272 -0.3343 -0.6083  0.2894
   55CHL1   C18 6503   6.881   4.295   9.273  0.0602 -0.2481 -0.3223
   55CHL1  H18A 6504   6.848   4.352   9.363  1.3416  0.8096 -0.5110
   55CHL1  H18B 6505   6.988   4.309   9.250 -0.4193 -1.0609 -3.2207
   55CHL1  H18C 6506   6.832   4.338   9.183  1.9366 -1.1602 -1.8075
   55CHL1   C12 6507   6.704   4.105   9.316  0.2888 -0.0012 -1.0213
   55CHL1  H12A 6508   6.630   4.149   9.246  1.9088  1.8841 -1.5985
   55CHL1  H12B 6509   6.680   3.997   9.322 -2.1372  0.5913  1.0251
   55CHL1   C11 6510   6.677   4.146   9.455  0.0043  0.6970  0.4443
   55CHL1  H11A 6511   6.685   4.256   9.473  1.9385  0.3754  1.6447
   55CHL1  H11B 6512   6.574   4.113   9.481  0.4281 -0.5995  0.4798
   55CHL1    C9 6513   6.771   4.081   9.562 -0.3607  0.5674 -0.1568
   55CHL1    H9 6514   6.769   3.970   9.551  0.2756  0.5276  0.1199
   55CHL1   C10 6515   6.744   4.111   9.706  0.8785  0.9583  0.0870
   55CHL1   C19 6516   6.730   4.263   9.732 -0.4685 -0.1109  0.0415
   55CHL1  H19A 6517   6.644   4.304   9.674  1.1546  1.6078 -1.2295
   55CHL1  H19B 6518   6.735   4.289   9.840 -0.0248 -4.9444  1.2780
   55CHL1  H19C 6519   6.819   4.313   9.688 -0.7675 -0.8444 -1.4143
   55CHL1    C1 6520   6.617   4.025   9.742  0.5165  0.1774  0.1425
   55CHL1   H1A 6521   6.529   4.067   9.690 -1.6508 -1.2613  2.5460
   55CHL1   H1B 6522   6.634   3.921   9.706  1.8696  0.9729 -1.5846
   55CHL1    C2 6523   6.590   4.024   9.892  0.0140 -0.3263 -0.0470
   55CHL1   H2A 6524   6.511   3.948   9.910  0.3854 -1.0533 -1.4166
   55CHL1   H2B 6525   6.546   4.118   9.932 -1.0477 -0.0484 -1.8008
   55CHL1   C20 6526   6.876   4.140   9.010  0.4247  0.3805  0.4091
   55CHL1   H20 6527   6.924   4.239   9.001  1.5307  0.0532  2.4516
   55CHL1   C21 6528   6.721   4.163   9.002  1.1408  0.7076  0.4704
   55CHL1  H21A 6529   6.691   4.201   8.902  0.7443  1.1928  0.7708
   55CHL1  H21B 6530   6.695   4.242   9.076  0.2588  0.2910  0.6169
   55CHL1  H21C 6531   6.673   4.064   9.018 -0.8883  1.8974  1.9357
   55CHL1   C22 6532   6.938   4.052   8.895 -0.0474 -0.2767  0.9331
   55CHL1  H22A 6533   7.048   4.057   8.908 -0.1747 -0.6474  2.2233
   55CHL1  H22B 6534   6.916   3.944   8.909 -1.1001 -0.1351  0.4206
   55CHL1   C23 6535   6.888   4.088   8.754  0.0367 -0.3201 -0.9545
   55CHL1  H23A 6536   6.782   4.056   8.744  0.4304 -2.5036  1.4178
   55CHL1  H23B 6537   6.895   4.199   8.749 -3.4030  0.2292  3.4585
   55CHL1   C24 6538   6.984   4.022   8.651 -0.9123 -0.1133  0.7113
   55CHL1  H24A 6539   7.079   4.080   8.655 -0.3038 -1.0993  0.5552
   55CHL1  H24B 6540   7.005   3.915   8.672  1.6892 -0.6946 -4.0947
   55CHL1   C25 6541   6.929   4.043   8.499 -0.1976 -0.3001 -0.1700
   55CHL1   H25 6542   6.833   3.988   8.489 -2.1392  2.3840  2.6996
   55CHL1   C26 6543   6.904   4.195   8.462  0.5766  0.0706  0.2961
   55CHL1  H26A 6544   6.861   4.214   8.362 -1.9979  0.6107  1.4750
   55CHL1  H26B 6545   6.842   4.247   8.539 -3.4976 -1.8081 -1.5699
   55CHL1  H26C 6546   6.999   4.252   8.467  1.2369 -0.9645 -0.3082
   55CHL1   C27 6547   7.024   3.982   8.394  0.1379 -0.0050 -0.1937
   55CHL1  H27A 6548   7.059   3.894   8.451  2.2583  0.0666 -1.3270
   55CHL1  H27B 6549   6.979   3.944   8.300  3.0001 -3.2904 -0.3131
   55CHL1  H27C 6550   7.109   4.049   8.368 -0.3602  0.2054 -1.3248
   56CHL1    C3 6551   4.352   3.050  10.102  0.0398 -0.6919 -0.3691
   56CHL1    H3 6552   4.452   3.002  10.095 -0.0543 -0.8658 -0.5135
   56CHL1    O3 6553   4.342   3.084  10.237 -0.0946  1.2482 -0.1686
   56CHL1   H3' 6554   4.246   3.080  10.241 -0.0774 -1.3420 -1.0372
   56CHL1    C4 6555   4.342   3.184  10.017 -1.2653  0.3341 -0.3981
   56CHL1   H4A 6556   4.248   3.236  10.043 -1.7396 -0.6692 -0.0920
   56CHL1   H4B 6557   4.427   3.244  10.056  0.5797 -2.1056 -0.5286
   56CHL1    C5 6558   4.350   3.146   9.866 -0.5402  0.1700  0.4720
   56CHL1    C6 6559   4.444   3.200   9.789  0.2367  0.0559 -1.1666
   56CHL1    H6 6560   4.516   3.277   9.821 -1.2073  1.0858 -0.3284
   56CHL1    C7 6561   4.462   3.171   9.644 -0.4292  1.1357 -0.4885
   56CHL1   H7A 6562   4.485   3.266   9.590  1.1354  1.8316  1.3328
   56CHL1   H7B 6563   4.542   3.095   9.638 -0.1553  1.3512  0.3980
   56CHL1    C8 6564   4.324   3.109   9.592  0.9267 -0.3556 -0.0644
   56CHL1    H8 6565   4.252   3.194   9.594  1.9316  0.4885  0.9101
   56CHL1   C14 6566   4.353   3.053   9.452  0.6993  0.0715  0.0836
   56CHL1   H14 6567   4.411   2.959   9.463 -0.9982 -1.0470 -0.3339
   56CHL1   C15 6568   4.440   3.134   9.346  0.4071  0.1926 -0.2566
   56CHL1  H15A 6569   4.417   3.242   9.354 -3.7279 -0.6035 -0.1937
   56CHL1  H15B 6570   4.549   3.120   9.359  0.1616  0.5170  2.4621
   56CHL1   C16 6571   4.394   3.084   9.206  0.4409 -0.3090  0.4755
   56CHL1  H16A 6572   4.351   3.171   9.152  0.2325 -1.8662 -1.9205
   56CHL1  H16B 6573   4.483   3.046   9.152  0.8993 -0.0648  1.0521
   56CHL1   C17 6574   4.289   2.973   9.241 -0.1806  0.1458 -0.3121
   56CHL1   H17 6575   4.337   2.876   9.264  1.3355  0.8882 -0.2878
   56CHL1   C13 6576   4.222   3.009   9.374 -0.0530 -0.2112  0.9517
   56CHL1   C18 6577   4.128   3.128   9.340  0.3560  0.4850 -0.6052
   56CHL1  H18A 6578   4.114   3.201   9.422 -0.4812  1.6246 -1.7454
   56CHL1  H18B 6579   4.157   3.196   9.258 -0.1356  2.8755  1.1620
   56CHL1  H18C 6580   4.026   3.091   9.314  1.0034 -0.5796 -1.7403
   56CHL1   C12 6581   4.157   2.905   9.461  0.6265 -0.5297 -0.8133
   56CHL1  H12A 6582   4.055   2.881   9.422 -0.5674  1.9226  0.6749
   56CHL1  H12B 6583   4.212   2.809   9.467  0.9076 -0.3883 -1.1089
   56CHL1   C11 6584   4.137   2.953   9.604 -0.4689 -0.3040  0.1081
   56CHL1  H11A 6585   4.065   3.037   9.595 -0.1229  0.2145  1.9173
   56CHL1  H11B 6586   4.096   2.868   9.662 -0.2841 -1.7846 -1.8933
   56CHL1    C9 6587   4.270   2.999   9.675 -0.9468  0.0118 -0.3011
   56CHL1    H9 6588   4.347   2.919   9.669 -0.8635  0.2198 -2.2987
   56CHL1   C10 6589   4.248   3.036   9.828  0.5695 -0.8817  0.3826
   56CHL1   C19 6590   4.109   3.100   9.844  0.5704  0.4950 -0.1423
   56CHL1  H19A 6591   4.076   3.129   9.946  3.3906 -0.6251  1.1458
   56CHL1  H19B 6592   4.091   3.187   9.778  0.4576  1.1694  0.7647
   56CHL1  H19C 6593   4.032   3.025   9.818  0.2091 -0.4239  3.3482
   56CHL1    C1 6594   4.262   2.914   9.916 -0.2823  0.5175 -0.1742
   56CHL1   H1A 6595   4.191   2.837   9.879  1.8614 -1.2555 -0.6740
   56CHL1   H1B 6596   4.365   2.879   9.894 -0.6183  0.5700 -1.9056
   56CHL1    C2 6597   4.247   2.949  10.063  0.1822 -0.5413 -0.6636
   56CHL1   H2A 6598   4.243   2.860  10.130 -2.0987  0.5234  0.6879
   56CHL1   H2B 6599   4.147   2.994  10.081 -0.6732 -2.8857  0.6203
   56CHL1   C20 6600   4.194   2.937   9.123 -0.1868 -0.6962 -0.0140
   56CHL1   H20 6601   4.147   3.035   9.101  1.5823 -0.4036 -2.6200
   56CHL1   C21 6602   4.087   2.836   9.149 -0.0231  1.0294  0.0969
   56CHL1  H21A 6603   4.026   2.811   9.059  0.7021 -1.5868  0.2943
   56CHL1  H21B 6604   4.013   2.882   9.218 -3.2159 -0.4527 -2.1529
   56CHL1  H21C 6605   4.129   2.738   9.181  1.9765  1.8057 -0.0911
   56CHL1   C22 6606   4.277   2.894   8.997 -0.3246  0.1941  0.2773
   56CHL1  H22A 6607   4.365   2.960   8.981  1.1349 -2.0567 -1.2765
   56CHL1  H22B 6608   4.303   2.787   9.013  1.1503  0.6652  1.0800
   56CHL1   C23 6609   4.193   2.906   8.866 -0.2786  0.3567 -0.6333
   56CHL1  H23A 6610   4.112   2.831   8.881  0.6956 -1.0522 -2.2546
   56CHL1  H23B 6611   4.164   3.012   8.849  1.7165  0.7288 -1.8704
   56CHL1   C24 6612   4.278   2.858   8.743  0.0967 -0.2823 -0.1037
   56CHL1  H24A 6613   4.355   2.937   8.724 -1.1289  1.5914  2.4210
   56CHL1  H24B 6614   4.339   2.773   8.780 -0.9514 -1.0716 -0.1864
   56CHL1   C25 6615   4.204   2.810   8.618 -0.5946  0.2119  0.0191
   56CHL1   H25 6616   4.142   2.722   8.646 -2.0037  1.0264 -0.5220
   56CHL1   C26 6617   4.119   2.925   8.549  0.3213  0.8616  0.3056
   56CHL1  H26A 6618   4.189   3.011   8.545 -0.2154  1.2644 -0.6070
   56CHL1  H26B 6619   4.073   2.892   8.454 -1.2868 -1.2990  1.7645
   56CHL1  H26C 6620   4.036   2.955   8.616 -3.1347 -0.8494 -3.0750
   56CHL1   C27 6621   4.300   2.756   8.510  0.2032  0.0345 -0.0997
   56CHL1  H27A 6622   4.254   2.689   8.433 -0.3543 -0.1334  0.3791
   56CHL1  H27B 6623   4.331   2.840   8.444 -0.2952  0.0264 -0.3491
   56CHL1  H27C 6624   4.385   2.706   8.561  0.2093 -0.0238 -0.1656
   57CHL1    C3 6625   0.143   5.328  10.224 -0.2383  0.0102 -0.2818
   57CHL1    H3 6626   0.249   5.356  10.207 -0.4971  0.0620 -1.9493
   57CHL1    O3 6627   0.114   5.336  10.364 -0.0922  0.4865 -0.1011
   57CHL1   H3' 6628   0.169   5.268  10.404 -1.6480 -0.4438  0.5257
   57CHL1    C4 6629   0.044   5.419  10.149  0.1634 -1.0563 -0.3839
   57CHL1   H4A 6630  -0.061   5.394  10.176 -0.9843  2.6218 -1.0583
   57CHL1   H4B 6631   0.071   5.520  10.186 -0.4905  0.1936 -3.1471
   57CHL1    C5 6632   0.061   5.410   9.997 -0.3053  0.4005 -0.0312
   57CHL1    C6 6633   0.067   5.508   9.914 -0.1496 -0.2135 -0.8677
   57CHL1    H6 6634   0.071   5.610   9.956  1.6433 -1.6406  2.5716
   57CHL1    C7 6635   0.077   5.492   9.766  0.4618 -0.2539  0.1617
   57CHL1   H7A 6636  -0.001   5.565   9.735  1.5767  2.1315  2.7987
   57CHL1   H7B 6637   0.175   5.521   9.722 -1.2959  0.0466 -3.7184
   57CHL1    C8 6638   0.036   5.356   9.711 -0.0517 -0.0024 -0.9706
   57CHL1    H8 6639  -0.074   5.365   9.699 -0.6355 -2.0492  2.3594
   57CHL1   C14 6640   0.085   5.343   9.570 -0.2920 -0.1021  0.5532
   57CHL1   H14 6641   0.196   5.341   9.573 -0.2406  0.8866 -0.5034
   57CHL1   C15 6642   0.055   5.455   9.472  0.1011  0.7966  0.9921
   57CHL1  H15A 6643  -0.048   5.497   9.484 -0.5720 -0.1346 -1.1977
   57CHL1  H15B 6644   0.120   5.544   9.486  1.4999  0.0708 -0.6511
   57CHL1   C16 6645   0.063   5.390   9.327  0.6618 -0.8135  0.0878
   57CHL1  H16A 6646  -0.024   5.415   9.261 -0.7359  1.1463  2.5674
   57CHL1  H16B 6647   0.145   5.438   9.270  0.0288  0.5733  0.3186
   57CHL1   C17 6648   0.098   5.242   9.354  0.6097 -0.6622  0.1246
   57CHL1   H17 6649   0.208   5.237   9.365  0.6611  2.2303  1.1670
   57CHL1   C13 6650   0.048   5.210   9.498  0.7459 -0.1072  0.2427
   57CHL1   C18 6651  -0.114   5.196   9.488 -1.0833  0.2027 -0.1270
   57CHL1  H18A 6652  -0.140   5.105   9.430  4.2952 -0.3791 -1.8677
   57CHL1  H18B 6653  -0.162   5.183   9.588 -0.0754  1.7594  0.5868
   57CHL1  H18C 6654  -0.167   5.282   9.444  0.7822  0.7964 -1.2619
   57CHL1   C12 6655   0.095   5.093   9.581 -0.0820 -0.4991 -0.5250
   57CHL1  H12A 6656   0.052   5.001   9.533  1.6142 -1.9793  0.7378
   57CHL1  H12B 6657   0.206   5.086   9.577 -0.1404 -2.3894  0.4286
   57CHL1   C11 6658   0.051   5.103   9.729  0.4370 -0.0767 -0.1609
   57CHL1  H11A 6659  -0.059   5.096   9.738  0.5326  0.3393  1.6730
   57CHL1  H11B 6660   0.087   5.021   9.795 -0.5820  0.2905  0.8733
   57CHL1    C9 6661   0.089   5.240   9.792  0.3527  0.2552 -0.4549
   57CHL1    H9 6662   0.198   5.260   9.795 -0.0186  2.1136  2.5367
   57CHL1   C10 6663   0.047   5.263   9.936 -0.7278  0.8427  0.0621
   57CHL1   C19 6664  -0.100   5.239   9.962 -0.2423  0.1983 -0.0331
   57CHL1  H19A 6665  -0.146   5.246  10.062  0.5725 -0.6291  0.4045
   57CHL1  H19B 6666  -0.161   5.307   9.898 -0.3007  0.5160  0.3627
   57CHL1  H19C 6667  -0.129   5.136   9.930 -2.2202  1.3335 -2.0622
   57CHL1    C1 6668   0.135   5.164  10.023 -0.1967  0.6639 -0.7067
   57CHL1   H1A 6669   0.106   5.060   9.996  0.8857  0.9819 -3.2206
   57CHL1   H1B 6670   0.242   5.178   9.999 -0.1054 -0.3163 -0.9284
   57CHL1    C2 6671   0.122   5.184  10.173 -0.9314  0.4082 -0.1154
   57CHL1   H2A 6672   0.195   5.109  10.211  0.0333  1.4296  0.0689
   57CHL1   H2B 6673   0.020   5.151  10.200 -2.6714  3.7055 -2.2983
   57CHL1   C20 6674   0.048   5.141   9.250  0.5309 -0.1418  0.1701
   57CHL1   H20 6675   0.002   5.051   9.297 -1.5897  2.4021  3.2475
   57CHL1   C21 6676   0.171   5.066   9.192  0.4530  0.1731  0.2112
   57CHL1  H21A 6677   0.153   4.980   9.124 -1.0418  0.9712 -0.4475
   57CHL1  H21B 6678   0.248   5.037   9.266  1.3844  0.4295 -0.6402
   57CHL1  H21C 6679   0.231   5.139   9.133  0.1140 -0.0456 -0.4150
   57CHL1   C22 6680  -0.064   5.182   9.160  0.0131  0.2656  0.6806
   57CHL1  H22A 6681  -0.116   5.090   9.124  1.4118  0.1380 -1.0658
   57CHL1  H22B 6682  -0.146   5.239   9.208  0.3123  1.7106 -0.4633
   57CHL1   C23 6683  -0.027   5.245   9.029 -0.4387  0.4746 -0.5095
   57CHL1  H23A 6684   0.019   5.346   9.040 -0.4895  0.3503  0.8868
   57CHL1  H23B 6685   0.060   5.194   8.982 -1.5849  0.1738 -2.3578
   57CHL1   C24 6686  -0.138   5.252   8.930  0.4323  0.3157  1.0894
   57CHL1  H24A 6687  -0.155   5.155   8.878  0.0274  1.1074 -0.2903
   57CHL1  H24B 6688  -0.228   5.290   8.983  0.6524  0.3256  1.4550
   57CHL1   C25 6689  -0.118   5.347   8.810 -0.4109  0.4730 -0.2209
   57CHL1   H25 6690  -0.112   5.445   8.863  0.9763  0.4487 -0.3328
   57CHL1   C26 6691   0.001   5.319   8.720  0.2099 -0.0118  0.1183
   57CHL1  H26A 6692  -0.011   5.216   8.681 -0.6200 -0.1179  0.6270
   57CHL1  H26B 6693  -0.004   5.379   8.627  3.1953  0.8081  0.4400
   57CHL1  H26C 6694   0.104   5.335   8.759 -0.1146 -0.5236  1.1943
   57CHL1   C27 6695  -0.247   5.348   8.726 -0.4732  0.1750 -0.4057
   57CHL1  H27A 6696  -0.262   5.247   8.683 -1.6945 -0.9307  2.4770
   57CHL1  H27B 6697  -0.337   5.367   8.788 -0.3932  0.2762 -0.3194
   57CHL1  H27C 6698  -0.231   5.421   8.644 -1.5303  0.3194 -0.4842
   58CHL1    C3 6699   2.746   4.097  10.096  0.1068 -0.0689  0.4047
   58CHL1    H3 6700   2.766   4.204  10.073 -2.2125  0.1055 -0.9445
   58CHL1    O3 6701   2.768   4.061  10.232 -0.3578  0.2093 -0.3344
   58CHL1   H3' 6702   2.862   4.073  10.240 -0.0959 -0.5220 -2.0887
   58CHL1    C4 6703   2.598   4.072  10.054 -0.1668 -0.2218 -0.6468
   58CHL1   H4A 6704   2.567   3.968  10.081 -1.6440  0.5258  0.5800
   58CHL1   H4B 6705   2.542   4.143  10.118  1.7732  1.5644 -0.8740
   58CHL1    C5 6706   2.574   4.092   9.906 -0.4671 -0.0221  0.0415
   58CHL1    C6 6707   2.485   4.180   9.863 -0.4693  0.2042 -0.3708
   58CHL1    H6 6708   2.413   4.227   9.933  1.7163  0.2685  1.9126
   58CHL1    C7 6709   2.455   4.189   9.718  0.1784  0.6975 -0.1208
   58CHL1   H7A 6710   2.346   4.197   9.693  0.4837  0.7019 -1.5072
   58CHL1   H7B 6711   2.493   4.288   9.685  0.4301  1.0215  1.1223
   58CHL1    C8 6712   2.510   4.084   9.624  0.0222 -0.1349  0.4507
   58CHL1    H8 6713   2.446   3.995   9.642 -0.4667 -0.0086 -0.6077
   58CHL1   C14 6714   2.502   4.125   9.483  0.3180 -0.5483  0.0076
   58CHL1   H14 6715   2.559   4.220   9.486 -4.3744  2.3500  1.2476
   58CHL1   C15 6716   2.369   4.158   9.416 -0.2592  0.0468  0.2116
   58CHL1  H15A 6717   2.296   4.081   9.448 -0.0276 -0.9123 -1.4605
   58CHL1  H15B 6718   2.338   4.257   9.455 -0.8324  0.5623 -1.4710
   58CHL1   C16 6719   2.398   4.168   9.265  0.6725 -0.4881  0.0570
   58CHL1  H16A 6720   2.323   4.109   9.208  1.1582 -0.7462 -0.3186
   58CHL1  H16B 6721   2.382   4.273   9.233 -1.5769 -0.0372  2.4680
   58CHL1   C17 6722   2.540   4.102   9.250 -0.3875 -0.6483 -0.5679
   58CHL1   H17 6723   2.597   4.196   9.242 -1.2484 -0.0940 -0.2812
   58CHL1   C13 6724   2.573   4.032   9.385  0.2984  0.2458  0.6724
   58CHL1   C18 6725   2.504   3.893   9.393  0.1677  0.4270  0.0933
   58CHL1  H18A 6726   2.397   3.897   9.363  0.1467  1.3742  0.3041
   58CHL1  H18B 6727   2.560   3.820   9.330 -2.1474 -0.8443 -0.5726
   58CHL1  H18C 6728   2.507   3.841   9.491  1.8234 -1.0944 -0.7195
   58CHL1   C12 6729   2.719   4.034   9.423 -0.4728  0.1275  0.3288
   58CHL1  H12A 6730   2.790   3.980   9.357  0.4832  1.1264  0.5238
   58CHL1  H12B 6731   2.753   4.139   9.408 -0.0412  0.0017  0.3985
   58CHL1   C11 6732   2.745   3.978   9.564 -0.2222  0.3908 -0.1960
   58CHL1  H11A 6733   2.714   3.871   9.559 -0.9240  0.5389  0.8861
   58CHL1  H11B 6734   2.851   3.995   9.592 -0.1718  0.5419 -0.4779
   58CHL1    C9 6735   2.654   4.057   9.663  0.1169  0.0370 -0.0404
   58CHL1    H9 6736   2.696   4.160   9.667 -1.6901  0.8094 -0.0184
   58CHL1   C10 6737   2.669   4.006   9.810  0.2114 -0.4959  0.1752
   58CHL1   C19 6738   2.630   3.856   9.815 -0.0213 -0.9890 -0.3744
   58CHL1  H19A 6739   2.614   3.821   9.919  2.8614 -4.0435 -0.8780
   58CHL1  H19B 6740   2.550   3.838   9.740  0.1003  1.9457 -1.2721
   58CHL1  H19C 6741   2.711   3.791   9.775  0.0433 -1.7887  1.0554
   58CHL1    C1 6742   2.818   4.031   9.857  0.3070  0.3383  0.2686
   58CHL1   H1A 6743   2.879   3.950   9.812 -2.2281 -1.3131 -0.2555
   58CHL1   H1B 6744   2.836   4.139   9.840 -0.2036  0.2808 -0.6306
   58CHL1    C2 6745   2.843   4.022  10.009 -0.0052  0.4074 -0.6102
   58CHL1   H2A 6746   2.948   4.052  10.026  0.2983 -0.5322 -0.7786
   58CHL1   H2B 6747   2.816   3.916  10.029  1.6219 -0.0698 -0.8901
   58CHL1   C20 6748   2.555   4.031   9.117 -0.0001  0.5732 -0.2515
   58CHL1   H20 6749   2.483   3.946   9.118 -1.5795  1.8326 -2.2507
   58CHL1   C21 6750   2.696   3.982   9.097 -0.7182  0.3172  0.2433
   58CHL1  H21A 6751   2.709   3.907   9.179  0.2030  0.5404  0.3039
   58CHL1  H21B 6752   2.775   4.056   9.121 -0.2643 -0.3118  0.7187
   58CHL1  H21C 6753   2.723   3.933   9.001 -0.5139  1.1071 -0.1052
   58CHL1   C22 6754   2.510   4.117   8.998  0.1050 -0.2403 -0.5103
   58CHL1  H22A 6755   2.418   4.177   9.015  1.0632  0.7013  1.5767
   58CHL1  H22B 6756   2.590   4.191   8.978 -1.4683  1.2228 -1.4981
   58CHL1   C23 6757   2.484   4.027   8.877 -0.5553  0.0161  0.2904
   58CHL1  H23A 6758   2.574   3.967   8.853 -1.0950 -1.4597  1.8697
   58CHL1  H23B 6759   2.419   3.944   8.912  0.2231  0.1152  2.0206
   58CHL1   C24 6760   2.421   4.105   8.762  0.0346 -0.3362  0.1612
   58CHL1  H24A 6761   2.312   4.112   8.785  0.1636 -1.5769  1.1795
   58CHL1  H24B 6762   2.456   4.208   8.742 -3.7738  0.7285 -1.6158
   58CHL1   C25 6763   2.419   4.028   8.629 -0.7599 -0.5709 -0.1091
   58CHL1   H25 6764   2.524   4.001   8.604 -0.1220  2.8930 -1.6299
   58CHL1   C26 6765   2.338   3.900   8.635 -0.6033  0.3512 -0.1039
   58CHL1  H26A 6766   2.229   3.916   8.647 -0.4912 -0.6673  2.4413
   58CHL1  H26B 6767   2.360   3.853   8.536  0.3993 -2.8592  1.5774
   58CHL1  H26C 6768   2.374   3.825   8.708 -2.2043  1.0489  1.4268
   58CHL1   C27 6769   2.366   4.110   8.509 -0.3481  0.8721 -0.4720
   58CHL1  H27A 6770   2.262   4.081   8.487 -0.4229 -0.2649  1.3086
   58CHL1  H27B 6771   2.372   4.221   8.516  0.4002  0.8452 -0.5565
   58CHL1  H27C 6772   2.415   4.082   8.413  2.3865 -0.2078  1.1584
   59CHL1    C3 6773   1.084   2.976  10.359  0.7782 -0.1308 -0.6009
   59CHL1    H3 6774   1.015   2.892  10.334 -1.3191  1.3908 -0.0925
   59CHL1    O3 6775   1.116   2.992  10.496  0.6242 -0.2227 -0.5264
   59CHL1   H3' 6776   1.050   3.049  10.537  0.7455 -1.5247  1.5533
   59CHL1    C4 6777   1.224   2.961  10.288 -0.6506 -0.2125 -0.4265
   59CHL1   H4A 6778   1.283   3.055  10.299  0.7032 -1.1740  0.7073
   59CHL1   H4B 6779   1.284   2.883  10.340 -0.6831  0.2123  0.2658
   59CHL1    C5 6780   1.204   2.941  10.142  0.2085  0.8282  0.8053
   59CHL1    C6 6781   1.244   2.832  10.081  0.2235 -1.0676  0.7163
   59CHL1    H6 6782   1.300   2.753  10.133  1.9310  0.4297  1.2084
   59CHL1    C7 6783   1.237   2.818   9.928  0.2763  0.0066 -0.3595
   59CHL1   H7A 6784   1.337   2.793   9.887  0.9929  1.4624  0.4826
   59CHL1   H7B 6785   1.158   2.744   9.900  0.8719 -0.5867 -0.4765
   59CHL1    C8 6786   1.203   2.949   9.858 -1.0751  0.1874  0.8328
   59CHL1    H8 6787   1.288   3.021   9.864 -0.8828  0.3049 -2.3453
   59CHL1   C14 6788   1.165   2.911   9.712 -0.0321 -0.5263 -0.6719
   59CHL1   H14 6789   1.084   2.835   9.715 -0.0453 -0.4739  2.9313
   59CHL1   C15 6790   1.271   2.838   9.640  0.5058  0.2102  0.7389
   59CHL1  H15A 6791   1.372   2.877   9.662  1.1058 -1.2431  0.6374
   59CHL1  H15B 6792   1.274   2.733   9.676  1.0856 -0.6283 -1.6666
   59CHL1   C16 6793   1.227   2.855   9.492  0.5521 -0.2732  0.0635
   59CHL1  H16A 6794   1.308   2.900   9.431 -0.0342  0.4466 -0.2005
   59CHL1  H16B 6795   1.197   2.755   9.454  1.3358 -1.1782  1.7720
   59CHL1   C17 6796   1.098   2.952   9.493 -0.2143 -0.6330  0.9064
   59CHL1   H17 6797   1.005   2.891   9.501 -1.5611  1.1384 -0.7296
   59CHL1   C13 6798   1.119   3.028   9.623  0.7965  0.1097 -0.1768
   59CHL1   C18 6799   1.223   3.139   9.609 -0.3820  0.7047 -0.2278
   59CHL1  H18A 6800   1.189   3.231   9.557 -0.0586  0.6343 -0.5646
   59CHL1  H18B 6801   1.253   3.167   9.712 -2.1486 -2.3296  1.1973
   59CHL1  H18C 6802   1.311   3.098   9.554 -1.0648  1.4509 -1.9155
   59CHL1   C12 6803   0.994   3.094   9.693 -0.3046  0.1565 -0.4471
   59CHL1  H12A 6804   0.973   3.191   9.643 -0.2792 -0.5271 -1.8024
   59CHL1  H12B 6805   0.903   3.033   9.702 -0.9480  1.0398 -0.8745
   59CHL1   C11 6806   1.026   3.135   9.838  0.6939  0.7700 -0.5309
   59CHL1  H11A 6807   1.097   3.221   9.839  1.1877  0.3572 -0.2172
   59CHL1  H11B 6808   0.935   3.182   9.881  0.6689  0.3546 -0.1360
   59CHL1    C9 6809   1.086   3.021   9.927 -0.2656 -0.0543 -0.4840
   59CHL1    H9 6810   1.009   2.941   9.927  1.1847 -1.5240  2.0152
   59CHL1   C10 6811   1.122   3.061  10.075  0.2633  0.9348 -0.5281
   59CHL1   C19 6812   1.212   3.188  10.073 -0.7107 -0.1996  0.3210
   59CHL1  H19A 6813   1.158   3.276  10.031  2.2564  0.9421 -1.2981
   59CHL1  H19B 6814   1.241   3.206  10.179 -0.2614  1.2484 -0.0314
   59CHL1  H19C 6815   1.306   3.180  10.014 -0.2093  0.7496  0.9784
   59CHL1    C1 6816   0.985   3.090  10.152  0.3470  0.0480  0.1133
   59CHL1   H1A 6817   0.949   3.185  10.109  2.5696  0.4387 -0.9791
   59CHL1   H1B 6818   0.913   3.009  10.127  0.6976  0.6960 -3.2370
   59CHL1    C2 6819   1.008   3.098  10.309  0.1516 -0.1491 -0.1550
   59CHL1   H2A 6820   0.908   3.102  10.357  0.1765  0.4760 -0.1518
   59CHL1   H2B 6821   1.065   3.189  10.337  0.2778 -0.1945 -0.2677
   59CHL1   C20 6822   1.085   3.037   9.358 -0.1274  0.3824 -0.1750
   59CHL1   H20 6823   1.168   3.109   9.342 -0.8408  1.5704  1.2773
   59CHL1   C21 6824   0.956   3.102   9.351  0.7388 -0.1568 -0.2710
   59CHL1  H21A 6825   0.955   3.152   9.252  1.1170  0.7064  0.1603
   59CHL1  H21B 6826   0.947   3.172   9.437 -2.0204 -1.0185  0.1749
   59CHL1  H21C 6827   0.866   3.038   9.340  0.8411 -0.5473  1.1117
   59CHL1   C22 6828   1.101   2.946   9.235 -0.1704 -0.2856 -0.1374
   59CHL1  H22A 6829   1.177   2.869   9.259  0.8246  0.9510  0.7173
   59CHL1  H22B 6830   1.002   2.898   9.217 -2.4146  3.9815  0.2834
   59CHL1   C23 6831   1.139   3.016   9.106  0.3568 -0.2961  0.0835
   59CHL1  H23A 6832   1.062   3.087   9.069  2.3942  0.1138 -3.6754
   59CHL1  H23B 6833   1.236   3.070   9.106  0.0234  0.3501 -2.0978
   59CHL1   C24 6834   1.142   2.927   8.975 -0.0408  0.9193 -0.0673
   59CHL1  H24A 6835   1.214   2.842   8.983 -1.3429  0.0706  3.3202
   59CHL1  H24B 6836   1.042   2.881   8.962  0.8643 -0.4593 -2.6473
   59CHL1   C25 6837   1.188   2.986   8.843 -0.2899 -0.2732  0.3666
   59CHL1   H25 6838   1.120   3.066   8.807 -2.2973 -1.7673  0.7088
   59CHL1   C26 6839   1.336   3.037   8.851  0.3692  0.1385  0.0522
   59CHL1  H26A 6840   1.399   2.946   8.860  0.5273  0.2215 -0.2011
   59CHL1  H26B 6841   1.352   3.087   8.753  0.8570  1.0844  0.6090
   59CHL1  H26C 6842   1.339   3.116   8.930 -1.3602  1.5884 -1.2777
   59CHL1   C27 6843   1.178   2.882   8.735  0.3598  0.4069  0.1363
   59CHL1  H27A 6844   1.073   2.854   8.712 -0.0450  0.7092  1.5505
   59CHL1  H27B 6845   1.220   2.926   8.642 -1.9341 -0.2068 -1.2330
   59CHL1  H27C 6846   1.240   2.792   8.758  1.7362  1.8143  2.0270
   60CHL1    C3 6847   1.688   1.518  10.168 -0.2066 -0.1635 -0.2311
   60CHL1    H3 6848   1.581   1.518  10.199  0.5300 -0.3320  2.4478
   60CHL1    O3 6849   1.777   1.493  10.274 -0.5534 -0.2851  0.0695
   60CHL1   H3' 6850   1.865   1.488  10.236 -1.7753 -1.1416 -2.8737
   60CHL1    C4 6851   1.696   1.396  10.066  0.6617  0.3361 -0.1481
   60CHL1   H4A 6852   1.806   1.379  10.058  0.9108  1.0477  1.4580
   60CHL1   H4B 6853   1.646   1.306  10.107 -1.3378  1.7215  0.5464
   60CHL1    C5 6854   1.647   1.429   9.926  0.3402 -0.0787 -0.1461
   60CHL1    C6 6855   1.562   1.344   9.875 -0.7701 -0.0005  0.5099
   60CHL1    H6 6856   1.525   1.261   9.936  1.0771  1.0895  3.1940
   60CHL1    C7 6857   1.497   1.360   9.743  1.1858 -0.2968  0.8560
   60CHL1   H7A 6858   1.482   1.266   9.686 -0.3165  0.1790  0.4342
   60CHL1   H7B 6859   1.399   1.407   9.764 -0.2058 -0.9222 -3.6847
   60CHL1    C8 6860   1.583   1.462   9.655 -0.4747 -0.5591  0.1586
   60CHL1    H8 6861   1.678   1.413   9.623 -0.0630  1.2323 -1.4717
   60CHL1   C14 6862   1.519   1.494   9.519  0.2971  0.1161 -0.2337
   60CHL1   H14 6863   1.424   1.542   9.552 -0.5205 -0.8996 -1.0778
   60CHL1   C15 6864   1.467   1.382   9.428 -0.7066  0.3135  0.5866
   60CHL1  H15A 6865   1.552   1.313   9.417 -1.1388  0.0932 -1.5741
   60CHL1  H15B 6866   1.376   1.329   9.464  0.0610 -1.1412  0.4245
   60CHL1   C16 6867   1.452   1.445   9.290  0.9076  0.1881 -0.8458
   60CHL1  H16A 6868   1.517   1.394   9.216  2.8082  2.0894 -0.5465
   60CHL1  H16B 6869   1.345   1.451   9.261 -0.6263 -3.1420  3.5492
   60CHL1   C17 6870   1.502   1.595   9.312 -0.0662 -0.4327 -0.0889
   60CHL1   H17 6871   1.413   1.655   9.340  0.6725  0.5957  0.0834
   60CHL1   C13 6872   1.596   1.595   9.433 -0.4482 -0.1043  0.8355
   60CHL1   C18 6873   1.737   1.532   9.394 -0.3245 -0.7328 -0.0177
   60CHL1  H18A 6874   1.724   1.461   9.310 -2.9731  0.9247 -1.0956
   60CHL1  H18B 6875   1.798   1.612   9.347 -0.0104  0.8959  3.0181
   60CHL1  H18C 6876   1.793   1.485   9.478  1.6474 -2.1911 -2.0955
   60CHL1   C12 6877   1.615   1.720   9.513  0.1047  0.6969  0.4119
   60CHL1  H12A 6878   1.673   1.797   9.458 -1.7308 -0.1150 -2.8030
   60CHL1  H12B 6879   1.512   1.758   9.531 -0.1745  0.1497 -0.0059
   60CHL1   C11 6880   1.685   1.705   9.644  0.5030  0.2931 -0.0007
   60CHL1  H11A 6881   1.791   1.688   9.615  0.2709  1.4276 -1.5379
   60CHL1  H11B 6882   1.680   1.801   9.699  0.6791  1.5812 -2.1843
   60CHL1    C9 6883   1.620   1.591   9.736 -0.5819 -0.3353 -1.0781
   60CHL1    H9 6884   1.529   1.647   9.767 -0.0145  0.1999 -0.3797
   60CHL1   C10 6885   1.686   1.561   9.867 -0.1758 -0.5009 -0.3626
   60CHL1   C19 6886   1.845   1.570   9.847  0.3895 -0.2874  0.0218
   60CHL1  H19A 6887   1.866   1.674   9.815  0.4506 -0.1908  0.3844
   60CHL1  H19B 6888   1.903   1.552   9.939 -0.0758  0.3707  0.4424
   60CHL1  H19C 6889   1.880   1.497   9.770  0.4277 -2.3285  1.9352
   60CHL1    C1 6890   1.652   1.672   9.973  0.1448  0.3942  0.2295
   60CHL1   H1A 6891   1.679   1.768   9.925 -0.3616 -0.5219 -1.9592
   60CHL1   H1B 6892   1.543   1.691   9.985  0.1584  1.6936 -1.4836
   60CHL1    C2 6893   1.718   1.657  10.110  0.2391 -0.0099  0.0121
   60CHL1   H2A 6894   1.688   1.723  10.194  0.5776 -1.3177  1.1828
   60CHL1   H2B 6895   1.825   1.684  10.099  0.1815  1.4948  2.5858
   60CHL1   C20 6896   1.551   1.671   9.185 -0.0821  0.4947  0.7663
   60CHL1   H20 6897   1.661   1.660   9.184  0.0096  1.4703 -0.4325
   60CHL1   C21 6898   1.510   1.815   9.199  0.4686  0.3776  0.1111
   60CHL1  H21A 6899   1.577   1.865   9.272 -0.8421  0.8057  1.0354
   60CHL1  H21B 6900   1.406   1.832   9.235 -0.6247 -0.2256 -2.6364
   60CHL1  H21C 6901   1.506   1.878   9.108 -0.6345  2.0099  1.2638
   60CHL1   C22 6902   1.504   1.618   9.053 -0.6671 -0.1955 -0.5351
   60CHL1  H22A 6903   1.399   1.582   9.060 -1.0583  1.1809  0.8603
   60CHL1  H22B 6904   1.514   1.700   8.979  1.3610  1.0891  1.0964
   60CHL1   C23 6905   1.577   1.506   8.986 -0.6469 -0.5602  1.0645
   60CHL1  H23A 6906   1.612   1.435   9.064  0.0300 -0.2056  1.0893
   60CHL1  H23B 6907   1.514   1.443   8.919 -1.3698  0.0080  1.2085
   60CHL1   C24 6908   1.700   1.554   8.907 -0.5501 -0.5051 -0.1892
   60CHL1  H24A 6909   1.650   1.591   8.815  0.3055  0.3193 -0.3355
   60CHL1  H24B 6910   1.755   1.633   8.964 -0.3672 -0.3689 -0.5462
   60CHL1   C25 6911   1.803   1.450   8.859  0.4466 -0.0935  0.3669
   60CHL1   H25 6912   1.844   1.403   8.951 -0.6025  1.3174  1.5733
   60CHL1   C26 6913   1.748   1.365   8.752 -0.1084 -0.2044 -0.2951
   60CHL1  H26A 6914   1.741   1.427   8.660  1.4542 -0.6882 -0.7595
   60CHL1  H26B 6915   1.826   1.287   8.737  0.4600  0.5619 -1.4734
   60CHL1  H26C 6916   1.651   1.318   8.778  0.2918  0.5415  2.6481
   60CHL1   C27 6917   1.939   1.514   8.815 -0.4970  0.5943  0.4507
   60CHL1  H27A 6918   1.996   1.559   8.899  1.0672  1.0090 -0.8124
   60CHL1  H27B 6919   2.006   1.432   8.780 -0.9709  1.5843 -2.9333
   60CHL1  H27C 6920   1.928   1.572   8.722  3.1335  0.9785  0.2027
   61CHL1    C3 6921   4.526   1.348  10.299  0.4249  0.3683 -0.0600
   61CHL1    H3 6922   4.568   1.247  10.279  0.5987  0.6435 -1.0733
   61CHL1    O3 6923   4.491   1.350  10.437 -0.0515 -0.2822  0.5136
   61CHL1   H3' 6924   4.507   1.440  10.469 -0.2435 -0.7757  2.0555
   61CHL1    C4 6925   4.635   1.447  10.265 -0.2538 -0.3157  0.0416
   61CHL1   H4A 6926   4.590   1.543  10.299  0.6198  0.7617 -1.7561
   61CHL1   H4B 6927   4.729   1.421  10.318 -0.7892  0.9268  1.6613
   61CHL1    C5 6928   4.655   1.452  10.112 -0.1112  0.0180  0.5005
   61CHL1    C6 6929   4.782   1.440  10.059  0.5196  0.0623  0.5273
   61CHL1    H6 6930   4.869   1.420  10.125  1.1557 -0.3735 -0.4352
   61CHL1    C7 6931   4.810   1.455   9.906 -0.3584 -0.2619 -0.2465
   61CHL1   H7A 6932   4.903   1.507   9.874 -0.8241  0.7627  0.0305
   61CHL1   H7B 6933   4.801   1.351   9.868 -0.3602 -0.5375  0.5045
   61CHL1    C8 6934   4.690   1.535   9.837  0.1454  0.8886 -0.4646
   61CHL1    H8 6935   4.708   1.643   9.855 -0.4234  1.1833 -1.5647
   61CHL1   C14 6936   4.696   1.514   9.690  0.2865 -0.5938 -0.6122
   61CHL1   H14 6937   4.682   1.406   9.665  1.6637 -0.2091 -3.1934
   61CHL1   C15 6938   4.833   1.535   9.628  0.2792  0.0747 -1.0135
   61CHL1  H15A 6939   4.871   1.625   9.680 -3.0908 -0.2698  2.2517
   61CHL1  H15B 6940   4.906   1.454   9.651  1.9181  2.2994  1.8920
   61CHL1   C16 6941   4.802   1.551   9.483 -0.0114  0.2189  0.3873
   61CHL1  H16A 6942   4.844   1.649   9.450 -0.4604 -0.8592 -3.5786
   61CHL1  H16B 6943   4.844   1.465   9.427 -0.3974 -1.0223  1.9816
   61CHL1   C17 6944   4.646   1.554   9.464  0.7225 -0.2617  0.2163
   61CHL1   H17 6945   4.613   1.448   9.453  0.1795  0.0245 -0.9523
   61CHL1   C13 6946   4.599   1.596   9.606  0.1793  0.2017  0.4957
   61CHL1   C18 6947   4.616   1.749   9.626 -0.1435 -0.1510 -0.2758
   61CHL1  H18A 6948   4.601   1.776   9.733  0.9585  0.8055 -0.3584
   61CHL1  H18B 6949   4.714   1.788   9.592  0.4381 -0.7149  0.7277
   61CHL1  H18C 6950   4.539   1.794   9.560 -2.1974  0.4046  2.3878
   61CHL1   C12 6951   4.458   1.542   9.648  0.0318  0.6774  1.0797
   61CHL1  H12A 6952   4.388   1.597   9.581  1.9477  0.8109 -0.8838
   61CHL1  H12B 6953   4.447   1.434   9.626 -0.6870  2.0192 -6.6606
   61CHL1   C11 6954   4.435   1.561   9.798 -0.5226  0.2163 -0.3341
   61CHL1  H11A 6955   4.448   1.670   9.815 -1.1367 -0.2833  4.1103
   61CHL1  H11B 6956   4.332   1.539   9.835 -0.8080 -1.7443 -2.2062
   61CHL1    C9 6957   4.554   1.488   9.878  0.4787  0.6158  0.5247
   61CHL1    H9 6958   4.540   1.379   9.867  1.3828  0.3072  2.2273
   61CHL1   C10 6959   4.525   1.486  10.033  0.4760  0.3840  0.4763
   61CHL1   C19 6960   4.493   1.632  10.076 -0.9427 -0.0591  0.1240
   61CHL1  H19A 6961   4.401   1.656  10.019 -1.8443 -0.3604  1.4379
   61CHL1  H19B 6962   4.476   1.641  10.185 -2.0991  1.5280 -0.1689
   61CHL1  H19C 6963   4.577   1.702  10.054 -2.0396  1.4337  0.5690
   61CHL1    C1 6964   4.417   1.380  10.075  0.4229 -0.3462 -0.2976
   61CHL1   H1A 6965   4.322   1.403  10.022  0.7084  1.9200  0.1292
   61CHL1   H1B 6966   4.465   1.284  10.047  1.4080  0.7245 -2.4509
   61CHL1    C2 6967   4.393   1.377  10.226  0.5683 -0.1052 -0.7944
   61CHL1   H2A 6968   4.311   1.306  10.251  1.5378 -0.6109  1.0367
   61CHL1   H2B 6969   4.343   1.468  10.265 -0.3237 -1.2243  0.7274
   61CHL1   C20 6970   4.602   1.626   9.330  0.0375 -0.3103 -0.0453
   61CHL1   H20 6971   4.613   1.736   9.326 -1.5551 -0.1746 -0.8883
   61CHL1   C21 6972   4.455   1.591   9.308  0.8695  0.5111  0.2948
   61CHL1  H21A 6973   4.447   1.486   9.342 -1.2382  0.2425 -0.9485
   61CHL1  H21B 6974   4.409   1.595   9.206  0.1331  0.8981  0.6389
   61CHL1  H21C 6975   4.387   1.657   9.366  0.7278 -0.3253  1.0789
   61CHL1   C22 6976   4.685   1.582   9.209 -0.7846  0.1265 -0.4523
   61CHL1  H22A 6977   4.792   1.602   9.232 -0.1698 -1.1153 -2.1227
   61CHL1  H22B 6978   4.674   1.472   9.200  0.4089  0.0443 -0.9220
   61CHL1   C23 6979   4.642   1.647   9.078  0.4483 -0.0054  0.4964
   61CHL1  H23A 6980   4.548   1.596   9.047  0.7325  0.2870 -0.8813
   61CHL1  H23B 6981   4.616   1.752   9.103  1.8361  0.4380  0.1262
   61CHL1   C24 6982   4.739   1.648   8.964  0.7302 -0.2746  0.3139
   61CHL1  H24A 6983   4.696   1.714   8.886  0.2972  0.6307  1.3078
   61CHL1  H24B 6984   4.836   1.694   8.991  0.3736  0.0589  1.0452
   61CHL1   C25 6985   4.768   1.511   8.893  0.3509 -0.3043 -0.1278
   61CHL1   H25 6986   4.784   1.445   8.980 -0.7095  0.0544  0.3534
   61CHL1   C26 6987   4.647   1.464   8.806  0.4083  0.0724 -0.1934
   61CHL1  H26A 6988   4.556   1.461   8.871 -0.4225  0.4044 -1.3352
   61CHL1  H26B 6989   4.624   1.537   8.726 -0.5458 -0.3020 -0.2741
   61CHL1  H26C 6990   4.647   1.362   8.761 -1.1162 -0.6669  1.4256
   61CHL1   C27 6991   4.895   1.522   8.810  0.4844 -0.5823  0.0678
   61CHL1  H27A 6992   4.887   1.611   8.745 -0.4221 -1.1286 -0.5835
   61CHL1  H27B 6993   4.982   1.532   8.879  1.6115  1.8389 -1.6288
   61CHL1  H27C 6994   4.933   1.427   8.764 -1.1384  0.0022 -2.5488
   62CHL1    C3 6995   6.601   4.859  10.174 -0.6439 -0.0641  0.0194
   62CHL1    H3 6996   6.639   4.963  10.164 -1.8832  0.4551  0.5750
   62CHL1    O3 6997   6.561   4.857  10.304 -0.3947  0.3827 -0.4424
   62CHL1   H3' 6998   6.499   4.784  10.297  1.3453 -1.0210 -1.6869
   62CHL1    C4 6999   6.476   4.833  10.093  0.1100 -0.1380  0.4350
   62CHL1   H4A 7000   6.427   4.740  10.129 -1.6696  1.0791  1.2609
   62CHL1   H4B 7001   6.403   4.917  10.105 -0.8419 -0.9628  0.4708
   62CHL1    C5 7002   6.500   4.834   9.945  0.5447  0.0424 -0.3052
   62CHL1    C6 7003   6.443   4.923   9.857 -0.1651 -0.7205  0.1895
   62CHL1    H6 7004   6.373   4.996   9.899  0.2640  0.2506 -0.7534
   62CHL1    C7 7005   6.468   4.929   9.707 -0.4290  0.2448  0.3192
   62CHL1   H7A 7006   6.369   4.945   9.660 -0.8992  1.2521  1.6306
   62CHL1   H7B 7007   6.523   5.021   9.679  0.0073  0.3896  1.6295
   62CHL1    C8 7008   6.540   4.804   9.658  0.3567  0.0505  0.0559
   62CHL1    H8 7009   6.469   4.718   9.663  1.0314 -0.4950  0.3702
   62CHL1   C14 7010   6.588   4.828   9.520  0.0762 -0.0361  0.2450
   62CHL1   H14 7011   6.659   4.913   9.510  1.7260 -1.5124 -1.0692
   62CHL1   C15 7012   6.476   4.873   9.419 -0.5148  0.2016 -0.3579
   62CHL1  H15A 7013   6.380   4.823   9.445 -0.1806  0.6047  1.7129
   62CHL1  H15B 7014   6.460   4.982   9.428 -0.2718  0.1077  1.5242
   62CHL1   C16 7015   6.523   4.828   9.280 -0.2843 -1.1357  0.1042
   62CHL1  H16A 7016   6.462   4.743   9.244 -0.0749 -1.6680  0.9708
   62CHL1  H16B 7017   6.536   4.906   9.202  1.1894  0.1381  1.5835
   62CHL1   C17 7018   6.671   4.766   9.308 -0.3349 -0.2624 -0.0321
   62CHL1   H17 7019   6.734   4.856   9.323  0.5945 -0.6705 -1.3229
   62CHL1   C13 7020   6.664   4.708   9.458  0.3341  0.1853  0.6220
   62CHL1   C18 7021   6.568   4.583   9.449 -0.3881 -0.2689 -0.5851
   62CHL1  H18A 7022   6.573   4.505   9.527  0.6302 -0.4110 -0.7774
   62CHL1  H18B 7023   6.462   4.610   9.433  0.1488  0.9174 -2.3249
   62CHL1  H18C 7024   6.603   4.521   9.364 -1.4581 -1.1910 -0.3531
   62CHL1   C12 7025   6.795   4.684   9.536 -0.0931 -0.2464  0.3263
   62CHL1  H12A 7026   6.846   4.595   9.495 -1.3353 -0.7269 -0.2039
   62CHL1  H12B 7027   6.858   4.775   9.540  0.7159 -0.8311  0.8314
   62CHL1   C11 7028   6.766   4.658   9.689  0.0011  0.0638  0.2021
   62CHL1  H11A 7029   6.715   4.560   9.698 -0.3365  0.1084 -1.0547
   62CHL1  H11B 7030   6.859   4.656   9.748 -0.5545 -2.0332  1.0724
   62CHL1    C9 7031   6.664   4.770   9.750 -0.0831  0.4698 -0.4846
   62CHL1    H9 7032   6.720   4.865   9.745 -1.1342  1.1730  0.8491
   62CHL1   C10 7033   6.609   4.739   9.896  0.3831  0.0496 -0.4899
   62CHL1   C19 7034   6.544   4.597   9.896  0.5889 -0.7894  0.0618
   62CHL1  H19A 7035   6.450   4.600   9.837  1.2166 -0.2304 -0.9250
   62CHL1  H19B 7036   6.612   4.522   9.851 -0.5098 -1.0312 -1.2381
   62CHL1  H19C 7037   6.517   4.564   9.999 -2.4454 -0.0524 -0.4481
   62CHL1    C1 7038   6.736   4.762   9.985  0.2501  0.2631 -0.4962
   62CHL1   H1A 7039   6.816   4.690   9.960  0.0704 -1.3094  3.0975
   62CHL1   H1B 7040   6.772   4.866   9.967  0.0693  0.5552  0.7729
   62CHL1    C2 7041   6.708   4.763  10.140  0.0551 -0.6869  0.9505
   62CHL1   H2A 7042   6.803   4.784  10.194 -0.4561  1.8394  0.9353
   62CHL1   H2B 7043   6.678   4.660  10.169 -0.7648 -0.9083 -0.6885
   62CHL1   C20 7044   6.745   4.696   9.200 -0.3569  0.3285 -0.5151
   62CHL1   H20 7045   6.711   4.590   9.207  1.1534 -0.0594  1.5464
   62CHL1   C21 7046   6.904   4.693   9.216  0.1460 -0.6921 -0.4394
   62CHL1  H21A 7047   6.941   4.797   9.210  1.1308 -0.9970  0.3064
   62CHL1  H21B 7048   6.948   4.630   9.136  1.6901 -1.1714  0.7892
   62CHL1  H21C 7049   6.929   4.657   9.318 -2.3611  0.4998  0.6440
   62CHL1   C22 7050   6.702   4.744   9.062 -0.0065  0.5402  0.2785
   62CHL1  H22A 7051   6.593   4.729   9.047 -0.1338 -1.8033  3.1953
   62CHL1  H22B 7052   6.722   4.853   9.059 -1.6161  0.8165 -0.9378
   62CHL1   C23 7053   6.777   4.683   8.933 -0.4116 -0.6160  0.3589
   62CHL1  H23A 7054   6.881   4.722   8.937 -0.5168 -0.3076  0.1159
   62CHL1  H23B 7055   6.783   4.574   8.952  0.2067 -0.5492  0.5615
   62CHL1   C24 7056   6.713   4.722   8.796  0.1214 -0.3202 -0.0428
   62CHL1  H24A 7057   6.603   4.706   8.802 -0.0066 -0.3387 -2.0219
   62CHL1  H24B 7058   6.727   4.830   8.774 -0.4113 -0.4506 -1.0433
   62CHL1   C25 7059   6.767   4.637   8.687  1.0325  0.2999 -0.3155
   62CHL1   H25 7060   6.877   4.628   8.705  0.9875  2.4613  1.2295
   62CHL1   C26 7061   6.699   4.499   8.704  0.1373 -0.3365  0.6038
   62CHL1  H26A 7062   6.735   4.436   8.620 -1.9481 -1.6815  0.7016
   62CHL1  H26B 7063   6.735   4.448   8.796 -0.6918 -1.3861  0.3509
   62CHL1  H26C 7064   6.589   4.512   8.714  0.0933  2.3245 -2.4895
   62CHL1   C27 7065   6.738   4.709   8.556  0.3259  0.4682  0.2800
   62CHL1  H27A 7066   6.628   4.719   8.546  0.3778  0.6608 -0.1220
   62CHL1  H27B 7067   6.791   4.807   8.561  2.7335 -0.8355  1.0385
   62CHL1  H27C 7068   6.771   4.647   8.470 -1.6870  3.0234 -2.4480
   63CHL1    C3 7069   1.203   6.424  10.241  0.3536  0.6437 -0.7611
   63CHL1    H3 7070   1.102   6.471  10.251 -0.2961 -1.0499  1.0103
   63CHL1    O3 7071   1.249   6.373  10.362  0.1741  0.3854  0.1821
   63CHL1   H3' 7072   1.307   6.300  10.339 -1.2730 -0.9323  0.6225
   63CHL1    C4 7073   1.185   6.314  10.132 -0.0201  0.0722 -0.6080
   63CHL1   H4A 7074   1.280   6.257  10.128  0.7539  1.3891 -1.3695
   63CHL1   H4B 7075   1.095   6.254  10.158 -1.0240  1.6978 -0.2807
   63CHL1    C5 7076   1.161   6.360   9.990 -0.4436 -0.1602 -0.0796
   63CHL1    C6 7077   1.059   6.321   9.909  0.1177 -0.6196 -0.5262
   63CHL1    H6 7078   0.989   6.245   9.946  0.4132 -0.8344 -0.4007
   63CHL1    C7 7079   1.049   6.355   9.761  0.1054 -0.0615  0.0030
   63CHL1   H7A 7080   1.024   6.258   9.714  0.3623  0.3117 -0.9120
   63CHL1   H7B 7081   0.967   6.428   9.746 -0.4807 -0.9285 -1.0765
   63CHL1    C8 7082   1.183   6.412   9.718 -0.5086 -0.6154 -0.0755
   63CHL1    H8 7083   1.255   6.329   9.712 -0.2205 -0.2254 -2.8732
   63CHL1   C14 7084   1.175   6.476   9.576  0.5274  0.0843 -0.2471
   63CHL1   H14 7085   1.098   6.555   9.586 -1.4438 -1.6049 -1.4950
   63CHL1   C15 7086   1.102   6.394   9.467 -0.2422  0.7306  0.7230
   63CHL1  H15A 7087   1.135   6.288   9.471  2.4063  1.4793 -0.6115
   63CHL1  H15B 7088   0.991   6.401   9.474 -0.2227  1.5444  0.2430
   63CHL1   C16 7089   1.160   6.443   9.332 -0.7115 -0.2041 -0.4002
   63CHL1  H16A 7090   1.213   6.369   9.268 -0.0530 -0.3505  0.3036
   63CHL1  H16B 7091   1.075   6.481   9.272 -0.3608  0.1232 -0.6927
   63CHL1   C17 7092   1.264   6.561   9.376  0.0427 -0.4637 -0.0043
   63CHL1   H17 7093   1.204   6.653   9.396 -4.1103 -2.9193 -0.5488
   63CHL1   C13 7094   1.306   6.516   9.515 -0.2123  0.3225 -0.1165
   63CHL1   C18 7095   1.409   6.407   9.504 -0.4702  0.8786 -0.3071
   63CHL1  H18A 7096   1.492   6.454   9.447 -0.6027  1.8000  0.2538
   63CHL1  H18B 7097   1.457   6.375   9.600 -0.8983 -4.3522 -1.6739
   63CHL1  H18C 7098   1.364   6.324   9.447 -0.5093 -0.3040  1.3863
   63CHL1   C12 7099   1.353   6.633   9.596 -0.2396 -0.3844 -0.3096
   63CHL1  H12A 7100   1.457   6.667   9.574  0.1334 -0.0779  1.7437
   63CHL1  H12B 7101   1.283   6.719   9.594  1.5705  1.1305 -0.0246
   63CHL1   C11 7102   1.363   6.590   9.745  0.0951  0.6258  0.2196
   63CHL1  H11A 7103   1.462   6.541   9.743  0.0608  0.5786 -0.2830
   63CHL1  H11B 7104   1.373   6.675   9.817  1.0783  1.1040 -0.4674
   63CHL1    C9 7105   1.237   6.518   9.811 -0.5260  0.3840 -0.7207
   63CHL1    H9 7106   1.157   6.594   9.823 -0.5689  0.5305 -1.8889
   63CHL1   C10 7107   1.271   6.460   9.952  0.4517  0.1530 -0.5268
   63CHL1   C19 7108   1.407   6.384   9.941 -0.3028 -0.2503 -0.2403
   63CHL1  H19A 7109   1.492   6.455   9.930 -1.1460  0.9921  0.9664
   63CHL1  H19B 7110   1.429   6.329  10.035 -1.2725 -1.2267 -0.5725
   63CHL1  H19C 7111   1.404   6.300   9.869 -0.6083 -1.6732  1.3927
   63CHL1    C1 7112   1.283   6.570  10.053 -0.1284 -0.1531  0.5793
   63CHL1   H1A 7113   1.369   6.633  10.024  1.7877 -2.9989 -0.2005
   63CHL1   H1B 7114   1.193   6.635  10.052  0.3774  0.5588  0.8772
   63CHL1    C2 7115   1.303   6.527  10.205 -0.0864  0.6761 -0.8731
   63CHL1   H2A 7116   1.289   6.620  10.264 -0.6553  0.6021 -0.8923
   63CHL1   H2B 7117   1.410   6.501  10.218 -0.1576  0.9347  0.3293
   63CHL1   C20 7118   1.372   6.603   9.278 -0.5028  0.3206 -0.2384
   63CHL1   H20 7119   1.458   6.644   9.336 -0.4372  1.4377 -1.1069
   63CHL1   C21 7120   1.314   6.722   9.199 -0.3966 -0.0857  0.1216
   63CHL1  H21A 7121   1.379   6.765   9.120 -1.8597 -0.5801 -1.3724
   63CHL1  H21B 7122   1.291   6.806   9.267 -0.7043  1.6205 -2.0362
   63CHL1  H21C 7123   1.218   6.697   9.150 -0.1121 -1.6563  0.3172
   63CHL1   C22 7124   1.424   6.490   9.182  0.0951  0.4866  0.6336
   63CHL1  H22A 7125   1.427   6.387   9.222  1.7829  0.0014 -0.6787
   63CHL1  H22B 7126   1.335   6.489   9.115 -0.1260  0.3079  0.9293
   63CHL1   C23 7127   1.539   6.524   9.091 -0.3055  0.4177 -0.0771
   63CHL1  H23A 7128   1.527   6.629   9.059  0.5379  1.4068  2.7266
   63CHL1  H23B 7129   1.633   6.508   9.148 -1.2884  1.2911  1.8238
   63CHL1   C24 7130   1.535   6.442   8.961 -0.6219  0.8208 -0.7413
   63CHL1  H24A 7131   1.581   6.345   8.990  0.5931  0.9064 -2.3163
   63CHL1  H24B 7132   1.428   6.417   8.944 -0.8415 -0.9166  2.6998
   63CHL1   C25 7133   1.602   6.502   8.831  0.3304  0.0330 -0.3543
   63CHL1   H25 7134   1.582   6.611   8.829  2.0365  0.3270 -2.3671
   63CHL1   C26 7135   1.753   6.478   8.851 -0.1585 -0.5343 -0.0353
   63CHL1  H26A 7136   1.771   6.512   8.956 -1.1632 -0.9725  0.2844
   63CHL1  H26B 7137   1.789   6.374   8.838 -1.8906 -1.0169 -1.0832
   63CHL1  H26C 7138   1.802   6.548   8.780  0.6128 -1.1427 -0.1107
   63CHL1   C27 7139   1.558   6.438   8.696  0.0037 -0.0625 -0.7892
   63CHL1  H27A 7140   1.623   6.487   8.620  0.1326  2.4634  0.8777
   63CHL1  H27B 7141   1.569   6.328   8.709 -1.1211  0.2200  3.1992
   63CHL1  H27C 7142   1.450   6.458   8.680 -0.5555 -0.5069  2.1254
   64CHL1    C3 7143   0.305   5.963  10.130  0.6013  0.3685 -0.9522
   64CHL1    H3 7144   0.405   6.007  10.108  1.5119 -1.0524  0.2915
   64CHL1    O3 7145   0.310   5.902  10.259  0.1012 -0.3439 -0.0805
   64CHL1   H3' 7146   0.387   5.848  10.239  1.5858  2.3886 -2.2559
   64CHL1    C4 7147   0.197   6.076  10.136  0.0924  0.0497 -0.5243
   64CHL1   H4A 7148   0.101   6.035  10.175 -0.8342  0.1628 -2.6247
   64CHL1   H4B 7149   0.243   6.149  10.205  4.4186 -1.9533 -1.1296
   64CHL1    C5 7150   0.168   6.127   9.993  0.3882  0.6740 -0.8652
   64CHL1    C6 7151   0.170   6.256   9.965  0.2396  0.0221 -1.3096
   64CHL1    H6 7152   0.207   6.317  10.048 -1.9128 -1.7638  1.0519
   64CHL1    C7 7153   0.125   6.315   9.833 -0.0393  0.2354  0.4578
   64CHL1   H7A 7154   0.065   6.406   9.854 -0.0707 -0.0238  1.4931
   64CHL1   H7B 7155   0.218   6.358   9.790  0.9303  0.8749  3.0909
   64CHL1    C8 7156   0.062   6.213   9.738  0.7359  0.9002 -0.1977
   64CHL1    H8 7157  -0.043   6.195   9.769  0.8939  2.0550  1.0418
   64CHL1   C14 7158   0.050   6.256   9.593  0.3224 -0.2187 -0.6404
   64CHL1   H14 7159   0.154   6.271   9.557  0.6163 -1.9888 -0.5693
   64CHL1   C15 7160  -0.023   6.390   9.571 -0.1416  0.3794 -0.5522
   64CHL1  H15A 7161  -0.124   6.380   9.615  0.5959 -3.8415  0.3456
   64CHL1  H15B 7162   0.034   6.474   9.617 -1.9811  0.8658  0.8601
   64CHL1   C16 7163  -0.017   6.403   9.417 -0.3248 -0.4153  0.0700
   64CHL1  H16A 7164  -0.117   6.442   9.387  0.5974  1.9898  0.0429
   64CHL1  H16B 7165   0.055   6.478   9.377  1.3345 -1.7562  0.4692
   64CHL1   C17 7166   0.005   6.259   9.365 -0.1944  0.4872  0.5171
   64CHL1   H17 7167   0.112   6.253   9.336 -0.3989 -1.5334  0.1152
   64CHL1   C13 7168  -0.015   6.168   9.485  0.2455 -0.2127  0.3905
   64CHL1   C18 7169  -0.166   6.150   9.511  0.2372 -0.1578 -0.1270
   64CHL1  H18A 7170  -0.198   6.093   9.422  1.1013  1.7674 -1.6895
   64CHL1  H18B 7171  -0.205   6.097   9.601 -2.2040 -0.1750 -1.1604
   64CHL1  H18C 7172  -0.223   6.245   9.499 -0.6238 -0.6211  0.2483
   64CHL1   C12 7173   0.074   6.035   9.491  0.1979  0.2897 -0.5846
   64CHL1  H12A 7174   0.021   5.967   9.420  0.9422 -1.0944  0.1540
   64CHL1  H12B 7175   0.180   6.046   9.460  0.0255  2.9249 -0.3142
   64CHL1   C11 7176   0.062   5.978   9.635 -0.0278 -0.4957 -0.1567
   64CHL1  H11A 7177  -0.043   5.953   9.657  0.0796 -2.0975 -1.4053
   64CHL1  H11B 7178   0.122   5.886   9.623  0.4568 -0.1874 -0.1326
   64CHL1    C9 7179   0.127   6.078   9.739  0.3280  0.3982 -0.1881
   64CHL1    H9 7180   0.234   6.088   9.709  0.6853 -0.3541  0.7957
   64CHL1   C10 7181   0.136   6.018   9.887 -0.1311  0.7939 -0.2823
   64CHL1   C19 7182  -0.003   5.955   9.919 -0.2819 -0.0349 -0.0060
   64CHL1  H19A 7183  -0.079   6.035   9.905  0.8103  1.3115  1.4621
   64CHL1  H19B 7184  -0.017   5.870   9.849  2.4387  0.9382 -1.8373
   64CHL1  H19C 7185  -0.008   5.916  10.022 -0.9181 -1.2873 -0.5124
   64CHL1    C1 7186   0.249   5.908   9.887  0.0926 -0.6554 -0.4549
   64CHL1   H1A 7187   0.225   5.820   9.823 -0.6936  0.5077 -1.7719
   64CHL1   H1B 7188   0.345   5.947   9.847  0.4976 -0.2064  0.9436
   64CHL1    C2 7189   0.276   5.850  10.033 -0.3804  0.4262  0.0071
   64CHL1   H2A 7190   0.355   5.772  10.035 -0.0376  0.7295 -1.2075
   64CHL1   H2B 7191   0.180   5.797  10.050 -0.5193 -0.2900 -2.7289
   64CHL1   C20 7192  -0.075   6.237   9.235  0.3753  0.4217 -0.0455
   64CHL1   H20 7193  -0.184   6.239   9.258  0.2479  0.3292 -0.6481
   64CHL1   C21 7194  -0.065   6.084   9.179 -0.6863  0.1047  0.8295
   64CHL1  H21A 7195   0.042   6.064   9.158 -0.3573  3.0305 -0.5172
   64CHL1  H21B 7196  -0.123   6.065   9.087  0.8032 -1.0860  0.1105
   64CHL1  H21C 7197  -0.104   6.020   9.261  0.3665 -0.5592  0.8191
   64CHL1   C22 7198  -0.044   6.333   9.120 -0.3082 -0.4287  0.4301
   64CHL1  H22A 7199  -0.023   6.431   9.168 -0.9517  0.4696 -1.0785
   64CHL1  H22B 7200   0.045   6.303   9.061  0.9529 -0.8832  2.5291
   64CHL1   C23 7201  -0.168   6.351   9.025  0.9914 -0.0150  0.8022
   64CHL1  H23A 7202  -0.183   6.257   8.968  1.5631 -0.5359  1.5000
   64CHL1  H23B 7203  -0.251   6.364   9.097  1.1812  0.0584  1.0060
   64CHL1   C24 7204  -0.149   6.466   8.922  0.1150 -0.0897  0.3979
   64CHL1  H24A 7205  -0.071   6.534   8.962  0.7968 -0.8445  0.3670
   64CHL1  H24B 7206  -0.094   6.426   8.834 -0.2020  0.3958 -0.0254
   64CHL1   C25 7207  -0.285   6.526   8.877 -0.2396  0.1835  0.5173
   64CHL1   H25 7208  -0.351   6.445   8.842  1.2265 -0.1132 -1.6675
   64CHL1   C26 7209  -0.342   6.615   8.992  0.3420  0.1227 -0.9274
   64CHL1  H26A 7210  -0.373   6.557   9.082  1.6921  0.9609  0.1039
   64CHL1  H26B 7211  -0.263   6.682   9.032  0.7153 -1.1732  0.5813
   64CHL1  H26C 7212  -0.436   6.663   8.959  1.2766  2.3345 -0.4409
   64CHL1   C27 7213  -0.273   6.627   8.756 -0.6126  0.0988 -0.2761
   64CHL1  H27A 7214  -0.224   6.717   8.799 -0.3992 -0.7573  1.3352
   64CHL1  H27B 7215  -0.225   6.580   8.668  0.2853  0.7173 -0.1229
   64CHL1  H27C 7216  -0.368   6.650   8.704 -1.8221  0.3048  1.9411
   65CHL1    C3 7217   2.536   2.893  10.221  0.5222 -0.3751 -0.7746
   65CHL1    H3 7218   2.645   2.869  10.212  0.0263 -2.9529 -0.3971
   65CHL1    O3 7219   2.485   2.821  10.334 -0.3774 -0.0519  0.5330
   65CHL1   H3' 7220   2.410   2.880  10.347 -0.0375  0.9310 -1.6710
   65CHL1    C4 7221   2.513   3.043  10.253 -0.0912 -0.0011  0.3312
   65CHL1   H4A 7222   2.403   3.056  10.250 -0.2062 -1.2003 -0.9980
   65CHL1   H4B 7223   2.555   3.057  10.355 -0.8941  0.5722  0.5884
   65CHL1    C5 7224   2.581   3.119  10.142  0.7587  0.4569 -0.0947
   65CHL1    C6 7225   2.678   3.211  10.169 -0.8916  0.5169  0.2246
   65CHL1    H6 7226   2.713   3.220  10.273 -0.7991 -1.4800  0.3843
   65CHL1    C7 7227   2.739   3.295  10.067  0.2837 -0.0870 -0.1188
   65CHL1   H7A 7228   2.754   3.401  10.096 -0.2806 -0.0142 -0.0856
   65CHL1   H7B 7229   2.841   3.253  10.051  1.4260  1.7249  2.0622
   65CHL1    C8 7230   2.667   3.300   9.936 -0.0877 -0.2158 -0.0588
   65CHL1    H8 7231   2.578   3.365   9.944 -0.1917 -0.5786  1.7944
   65CHL1   C14 7232   2.757   3.342   9.828 -0.2714 -0.1957 -0.0692
   65CHL1   H14 7233   2.846   3.276   9.822 -0.1661 -0.3668  2.6087
   65CHL1   C15 7234   2.814   3.485   9.843 -0.6259 -0.0008 -1.0140
   65CHL1  H15A 7235   2.729   3.550   9.873 -0.1903 -0.2915  0.9010
   65CHL1  H15B 7236   2.889   3.497   9.923 -0.2904 -0.8992 -1.1820
   65CHL1   C16 7237   2.872   3.522   9.710 -1.1170  0.4487 -0.6263
   65CHL1  H16A 7238   2.838   3.623   9.678 -1.7099  0.5032  0.1730
   65CHL1  H16B 7239   2.983   3.525   9.704 -1.0309 -2.5693 -1.2439
   65CHL1   C17 7240   2.817   3.416   9.608  0.3811  0.4733  0.1131
   65CHL1   H17 7241   2.897   3.338   9.601  0.9416  1.2179 -2.2898
   65CHL1   C13 7242   2.703   3.345   9.683 -0.2283 -0.5955  0.5035
   65CHL1   C18 7243   2.578   3.439   9.671 -0.4536 -0.4923 -0.2383
   65CHL1  H18A 7244   2.509   3.400   9.748 -0.9143  1.0040  0.1355
   65CHL1  H18B 7245   2.596   3.549   9.681  2.5093 -0.9556  0.0970
   65CHL1  H18C 7246   2.526   3.419   9.575 -2.0677 -2.1758  0.9634
   65CHL1   C12 7247   2.670   3.194   9.650  0.8869 -0.0809 -0.2785
   65CHL1  H12A 7248   2.617   3.179   9.553 -0.5722 -2.6105  0.8562
   65CHL1  H12B 7249   2.766   3.140   9.658  0.7359 -0.3838 -0.5042
   65CHL1   C11 7250   2.577   3.137   9.760  0.2133  0.2883  0.3831
   65CHL1  H11A 7251   2.479   3.186   9.738  0.9511  2.6105  2.1253
   65CHL1  H11B 7252   2.561   3.028   9.741  0.4160  0.3615 -0.1979
   65CHL1    C9 7253   2.622   3.157   9.901  0.2204 -0.2521  0.4988
   65CHL1    H9 7254   2.715   3.095   9.905  0.5546  0.1773 -0.6779
   65CHL1   C10 7255   2.528   3.088   9.998 -0.0460  1.3246  0.6037
   65CHL1   C19 7256   2.399   3.157   9.993  0.2846  0.0221 -0.4136
   65CHL1  H19A 7257   2.400   3.266  10.012  2.9811 -0.1127  0.3965
   65CHL1  H19B 7258   2.356   3.156   9.891 -1.0385 -0.0332  0.1298
   65CHL1  H19C 7259   2.325   3.124  10.069  0.3147  1.5398  0.2947
   65CHL1    C1 7260   2.512   2.936   9.977  0.8929 -0.2355 -0.4289
   65CHL1   H1A 7261   2.435   2.923   9.897  1.0084 -0.7833 -0.4507
   65CHL1   H1B 7262   2.605   2.886   9.944 -0.9514 -4.4154  0.3576
   65CHL1    C2 7263   2.454   2.860  10.098  0.3856  0.0557 -0.7556
   65CHL1   H2A 7264   2.449   2.752  10.071  1.0691 -0.2131  0.1714
   65CHL1   H2B 7265   2.348   2.887  10.118 -0.1737 -2.2722 -0.3577
   65CHL1   C20 7266   2.786   3.466   9.468 -0.3940  0.0952  0.6364
   65CHL1   H20 7267   2.721   3.556   9.468  0.2020  0.5440  2.6906
   65CHL1   C21 7268   2.715   3.371   9.370  0.3512 -0.2992 -0.3653
   65CHL1  H21A 7269   2.772   3.276   9.361  1.0636 -0.0766  1.5952
   65CHL1  H21B 7270   2.707   3.417   9.269  1.3147  2.6102  0.8523
   65CHL1  H21C 7271   2.611   3.340   9.395  0.5783 -2.6213 -2.0677
   65CHL1   C22 7272   2.922   3.519   9.411 -0.2147  0.0693 -0.6067
   65CHL1  H22A 7273   2.982   3.565   9.493  0.0728  0.0490 -0.8058
   65CHL1  H22B 7274   2.988   3.440   9.370  0.1772  0.3871 -0.5918
   65CHL1   C23 7275   2.912   3.618   9.296 -0.2130 -0.5098  0.6289
   65CHL1  H23A 7276   2.844   3.573   9.221  0.3835  1.6229 -1.2105
   65CHL1  H23B 7277   2.869   3.712   9.336 -0.9714 -0.5870  0.0102
   65CHL1   C24 7278   3.050   3.654   9.240  0.1369 -0.1152  0.6449
   65CHL1  H24A 7279   3.113   3.704   9.317 -1.2966 -1.2539  2.5942
   65CHL1  H24B 7280   3.099   3.558   9.214  1.4092  1.4183 -2.9082
   65CHL1   C25 7281   3.034   3.739   9.108  0.6525 -0.0672  0.1371
   65CHL1   H25 7282   2.933   3.713   9.070  1.7980 -1.7433 -1.8682
   65CHL1   C26 7283   3.035   3.888   9.141  0.1493  0.1846 -0.6111
   65CHL1  H26A 7284   3.016   3.952   9.053 -1.0833  0.3852 -0.1955
   65CHL1  H26B 7285   2.955   3.907   9.216  1.2648  1.4741  0.2846
   65CHL1  H26C 7286   3.130   3.916   9.192  0.2589  1.0350 -1.2851
   65CHL1   C27 7287   3.153   3.700   9.024 -0.2699 -0.5697  0.4416
   65CHL1  H27A 7288   3.140   3.602   8.974  1.7763 -0.6528  0.0183
   65CHL1  H27B 7289   3.173   3.769   8.939  2.2341 -2.5007 -0.5768
   65CHL1  H27C 7290   3.241   3.687   9.091  0.6944  0.5981 -0.5681
   66CHL1    C3 7291   0.613   0.905  10.678 -0.4393 -0.2880 -0.0341
   66CHL1    H3 7292   0.505   0.932  10.672 -0.4352 -0.1409  0.4858
   66CHL1    O3 7293   0.644   0.868  10.813 -0.1604  0.4037  0.1669
   66CHL1   H3' 7294   0.588   0.792  10.825 -1.0023  1.2588  1.8051
   66CHL1    C4 7295   0.648   0.796  10.578 -0.2283 -0.4783 -0.2972
   66CHL1   H4A 7296   0.747   0.752  10.603  0.5054  0.0624 -2.1670
   66CHL1   H4B 7297   0.577   0.710  10.581 -1.1656  0.2318 -1.6750
   66CHL1    C5 7298   0.645   0.843  10.430 -0.5809  0.3226 -0.1902
   66CHL1    C6 7299   0.577   0.772  10.340  0.9760 -0.3778  0.0056
   66CHL1    H6 7300   0.523   0.681  10.370 -0.3461 -0.2152 -1.8063
   66CHL1    C7 7301   0.568   0.802  10.194  0.4064 -0.0535  0.1418
   66CHL1   H7A 7302   0.580   0.712  10.130 -0.3462 -0.9487  1.2325
   66CHL1   H7B 7303   0.460   0.827  10.181 -0.6210 -3.2899  1.8849
   66CHL1    C8 7304   0.664   0.920  10.152 -0.4205  0.4761  0.4039
   66CHL1    H8 7305   0.764   0.874  10.140 -0.8123  0.1980 -2.2651
   66CHL1   C14 7306   0.617   0.982  10.014  0.3509  0.6455  0.1887
   66CHL1   H14 7307   0.521   1.032  10.040 -0.0506  0.2755 -0.5576
   66CHL1   C15 7308   0.589   0.892   9.889 -0.1087  0.8572 -0.7430
   66CHL1  H15A 7309   0.674   0.821   9.893 -0.6975  0.2596  2.1761
   66CHL1  H15B 7310   0.489   0.849   9.905  0.4249  0.5390  2.0869
   66CHL1   C16 7311   0.584   0.980   9.771  0.7843  1.1480 -1.0844
   66CHL1  H16A 7312   0.646   0.925   9.697  0.2359 -1.4108  0.3060
   66CHL1  H16B 7313   0.482   0.994   9.731 -0.7743  0.8336  2.6347
   66CHL1   C17 7314   0.636   1.121   9.821 -0.3071 -0.7749 -0.1880
   66CHL1   H17 7315   0.541   1.177   9.837 -0.4797 -0.4918 -2.1627
   66CHL1   C13 7316   0.700   1.102   9.960  0.4065  0.3704 -0.2728
   66CHL1   C18 7317   0.842   1.041   9.947  0.8945 -0.9934  0.4063
   66CHL1  H18A 7318   0.836   0.947   9.888 -3.1057  0.6245 -1.9713
   66CHL1  H18B 7319   0.917   1.108   9.901  0.3380  0.2190  1.2606
   66CHL1  H18C 7320   0.878   1.005  10.046  1.2110 -1.7068  0.0378
   66CHL1   C12 7321   0.683   1.207  10.074  0.4427 -0.1500 -0.0276
   66CHL1  H12A 7322   0.739   1.297  10.039  1.1504 -1.3144 -2.0064
   66CHL1  H12B 7323   0.578   1.238  10.091 -0.2208 -0.7507 -2.8606
   66CHL1   C11 7324   0.734   1.162  10.214 -1.0904  0.7663 -0.4079
   66CHL1  H11A 7325   0.844   1.149  10.209 -1.5250 -3.3286 -1.1094
   66CHL1  H11B 7326   0.708   1.245  10.283 -2.1315 -0.1117  0.2759
   66CHL1    C9 7327   0.668   1.031  10.259 -0.2081  0.0554  0.7367
   66CHL1    H9 7328   0.559   1.052  10.268  0.1053  2.3019 -0.3736
   66CHL1   C10 7329   0.708   0.982  10.395 -0.4184  0.7048 -0.1929
   66CHL1   C19 7330   0.859   0.956  10.399  0.3022  0.1474 -0.2875
   66CHL1  H19A 7331   0.895   0.899  10.488 -1.3223 -0.4465  0.0005
   66CHL1  H19B 7332   0.892   0.896  10.312  2.8341  2.8140 -1.2702
   66CHL1  H19C 7333   0.912   1.053  10.387 -1.7423  1.3994  0.4877
   66CHL1    C1 7334   0.664   1.089  10.502  0.5225 -0.2597  0.1223
   66CHL1   H1A 7335   0.729   1.176  10.474 -2.2692  1.7322 -0.4099
   66CHL1   H1B 7336   0.558   1.120  10.490  1.1246  1.4895 -0.9766
   66CHL1    C2 7337   0.695   1.036  10.645 -0.0155  0.8071  0.3365
   66CHL1   H2A 7338   0.653   1.116  10.711  0.6165  0.8879  0.6402
   66CHL1   H2B 7339   0.803   1.019  10.664 -0.2596  0.9095  1.8846
   66CHL1   C20 7340   0.725   1.197   9.713  0.1982  0.2543  0.3627
   66CHL1   H20 7341   0.814   1.135   9.692 -0.2392 -0.7382  1.3535
   66CHL1   C21 7342   0.757   1.338   9.759 -0.4777  0.1860 -0.2173
   66CHL1  H21A 7343   0.665   1.376   9.808 -0.2783 -0.3212  0.5561
   66CHL1  H21B 7344   0.794   1.397   9.673  1.7567 -0.9811 -0.0856
   66CHL1  H21C 7345   0.838   1.341   9.835 -0.8358  2.6756  0.1243
   66CHL1   C22 7346   0.655   1.205   9.571 -0.2994 -0.3745  0.2405
   66CHL1  H22A 7347   0.735   1.254   9.511  0.1600 -0.0466  1.1004
   66CHL1  H22B 7348   0.632   1.105   9.529  1.3552 -0.9965  0.7651
   66CHL1   C23 7349   0.517   1.267   9.573  0.3791 -0.1006 -1.0489
   66CHL1  H23A 7350   0.451   1.209   9.640 -0.4493  1.1053 -0.8007
   66CHL1  H23B 7351   0.529   1.370   9.613 -0.2931  0.7583 -3.0326
   66CHL1   C24 7352   0.456   1.272   9.431  0.4761 -0.0002 -0.0900
   66CHL1  H24A 7353   0.531   1.309   9.358 -0.1587 -0.9687 -1.2598
   66CHL1  H24B 7354   0.429   1.171   9.394 -3.5825  0.5985  1.0036
   66CHL1   C25 7355   0.334   1.363   9.425  0.0791 -0.3144 -0.0301
   66CHL1   H25 7356   0.256   1.313   9.487  0.6941 -0.6630  0.4711
   66CHL1   C26 7357   0.348   1.508   9.474 -0.2205 -0.2600 -0.3236
   66CHL1  H26A 7358   0.256   1.558   9.437  1.0134  2.1748 -0.2024
   66CHL1  H26B 7359   0.355   1.520   9.584 -1.1382  0.6244 -0.3529
   66CHL1  H26C 7360   0.439   1.542   9.421  0.9627  0.0596  1.8911
   66CHL1   C27 7361   0.290   1.368   9.274  0.0220 -0.2324 -0.1936
   66CHL1  H27A 7362   0.364   1.412   9.204  1.5970 -1.9330  0.3671
   66CHL1  H27B 7363   0.259   1.266   9.243 -2.4234  0.5749 -0.5546
   66CHL1  H27C 7364   0.199   1.431   9.260 -0.1173  0.2990  2.8151
   67CHL1    C3 7365   4.198   1.832  10.365 -0.2256 -0.3704 -0.5193
   67CHL1    H3 7366   4.286   1.767  10.344 -0.9137 -1.5039  0.0406
   67CHL1    O3 7367   4.176   1.834  10.505 -0.0155  0.5301 -0.7426
   67CHL1   H3' 7368   4.213   1.917  10.536  0.3258 -0.1259  0.6734
   67CHL1    C4 7369   4.212   1.974  10.312  0.2828 -1.2105  0.4885
   67CHL1   H4A 7370   4.116   2.027  10.328  0.0743 -0.6902 -2.2656
   67CHL1   H4B 7371   4.289   2.032  10.367 -0.9168  1.1685 -0.2916
   67CHL1    C5 7372   4.235   1.968  10.161 -0.0200  0.6132  0.0681
   67CHL1    C6 7373   4.354   2.008  10.111 -0.0417 -0.3801  0.1586
   67CHL1    H6 7374   4.425   2.051  10.183  0.6199 -2.9959  1.1593
   67CHL1    C7 7375   4.394   2.012   9.966 -0.3682 -0.9802 -0.7147
   67CHL1   H7A 7376   4.433   2.112   9.937  1.0822 -0.3512  3.0890
   67CHL1   H7B 7377   4.468   1.932   9.941  0.7742 -0.2952  0.3891
   67CHL1    C8 7378   4.268   1.987   9.875 -0.0433 -0.3849 -0.1895
   67CHL1    H8 7379   4.211   2.078   9.903  1.9016  0.7803  0.0277
   67CHL1   C14 7380   4.304   1.958   9.737 -0.6042 -0.6282  0.1976
   67CHL1   H14 7381   4.344   1.854   9.737 -2.1019 -1.2182 -0.0710
   67CHL1   C15 7382   4.412   2.046   9.669  0.1117  0.2090 -0.4157
   67CHL1  H15A 7383   4.401   2.151   9.702  0.4102 -0.3223  1.4972
   67CHL1  H15B 7384   4.515   2.019   9.702  0.0412 -0.4232 -0.7030
   67CHL1   C16 7385   4.397   2.038   9.518  0.5520 -0.0883 -0.5822
   67CHL1  H16A 7386   4.371   2.135   9.470  0.9402  0.3257  0.0310
   67CHL1  H16B 7387   4.478   1.990   9.460  1.5448 -0.1483  0.8106
   67CHL1   C17 7388   4.261   1.946   9.506  0.1509 -0.0933  0.4794
   67CHL1   H17 7389   4.296   1.841   9.501  0.4332  0.0634 -1.5666
   67CHL1   C13 7390   4.190   1.952   9.640  0.2761  0.3298 -0.3776
   67CHL1   C18 7391   4.103   2.083   9.646  0.1009  1.0205  0.2705
   67CHL1  H18A 7392   4.043   2.078   9.740 -2.0652 -0.7114 -1.1576
   67CHL1  H18B 7393   4.178   2.164   9.634 -2.0282  2.8550 -0.9420
   67CHL1  H18C 7394   4.030   2.090   9.563  1.4667  1.1159 -0.9290
   67CHL1   C12 7395   4.103   1.833   9.681 -0.3279  0.2853 -0.0538
   67CHL1  H12A 7396   4.012   1.827   9.618  1.2248 -2.5378 -2.1736
   67CHL1  H12B 7397   4.151   1.733   9.675  1.1956  1.1681 -4.4317
   67CHL1   C11 7398   4.059   1.839   9.834  0.4978 -0.3492 -1.3747
   67CHL1  H11A 7399   3.976   1.913   9.840 -0.0153 -1.0180  0.1453
   67CHL1  H11B 7400   4.013   1.741   9.861 -2.1459  0.7654 -1.6817
   67CHL1    C9 7401   4.178   1.873   9.929 -0.3964 -0.6736  0.2736
   67CHL1    H9 7402   4.249   1.788   9.933  0.7976  0.3285  0.7214
   67CHL1   C10 7403   4.128   1.892  10.078 -0.3308 -0.1761 -0.1219
   67CHL1   C19 7404   3.998   1.981  10.084 -0.2053 -0.1580  0.0917
   67CHL1  H19A 7405   3.955   2.012  10.182  0.1815  0.2333  0.1386
   67CHL1  H19B 7406   4.012   2.070  10.019  1.6277 -1.2650 -1.0356
   67CHL1  H19C 7407   3.913   1.928  10.036 -0.5057 -0.2863  0.7550
   67CHL1    C1 7408   4.103   1.755  10.147 -0.1068  0.1734 -0.3143
   67CHL1   H1A 7409   4.011   1.714  10.101  0.3245 -3.3927  1.8700
   67CHL1   H1B 7410   4.188   1.687  10.127 -0.9384 -0.4979 -1.6128
   67CHL1    C2 7411   4.087   1.751  10.304 -0.2775  0.3788  0.4534
   67CHL1   H2A 7412   4.091   1.645  10.335  0.8892  0.7362  1.5634
   67CHL1   H2B 7413   3.985   1.793  10.320 -1.0966 -1.5646  0.4162
   67CHL1   C20 7414   4.181   1.967   9.373 -0.2206  0.5066 -1.0022
   67CHL1   H20 7415   4.147   2.072   9.387 -0.5636  0.0279  2.0548
   67CHL1   C21 7416   4.068   1.868   9.366 -0.0831 -0.0489  0.2869
   67CHL1  H21A 7417   4.020   1.869   9.266 -1.8480  1.9568  1.1112
   67CHL1  H21B 7418   3.985   1.902   9.431  0.3320  1.6422 -0.0610
   67CHL1  H21C 7419   4.096   1.763   9.393  0.7547  0.1801  0.3300
   67CHL1   C22 7420   4.273   1.956   9.243 -0.8071  0.4440 -0.3320
   67CHL1  H22A 7421   4.347   2.038   9.254  0.4056 -0.0765 -3.9030
   67CHL1  H22B 7422   4.322   1.857   9.243 -2.1412 -0.2272  1.4682
   67CHL1   C23 7423   4.192   1.975   9.115 -0.0589 -0.1799 -0.2462
   67CHL1  H23A 7424   4.128   1.888   9.089  0.2461 -1.1821  2.2253
   67CHL1  H23B 7425   4.122   2.061   9.118 -0.1585 -0.3166  1.5330
   67CHL1   C24 7426   4.280   1.997   8.986 -0.2090 -1.0270  0.0413
   67CHL1  H24A 7427   4.214   2.006   8.896  1.6995  1.9990 -1.1554
   67CHL1  H24B 7428   4.338   2.090   9.004  0.0320 -1.1361 -0.1651
   67CHL1   C25 7429   4.376   1.877   8.949 -1.0205  0.0691  0.6387
   67CHL1   H25 7430   4.431   1.842   9.039 -0.9333  0.0370  0.5741
   67CHL1   C26 7431   4.307   1.748   8.892  0.2622 -0.1385  0.0457
   67CHL1  H26A 7432   4.246   1.698   8.971  0.0058 -1.0005 -0.6784
   67CHL1  H26B 7433   4.235   1.775   8.812  2.1222  0.6386 -1.3990
   67CHL1  H26C 7434   4.377   1.669   8.855  1.4145  0.4253  0.9942
   67CHL1   C27 7435   4.478   1.934   8.845  0.6345  0.0007 -0.4554
   67CHL1  H27A 7436   4.436   1.965   8.747  0.2883  0.5264 -0.1489
   67CHL1  H27B 7437   4.515   2.032   8.885 -1.8221  1.5044 -1.7411
   67CHL1  H27C 7438   4.562   1.863   8.828 -0.0576 -0.3506 -2.5859
   68CHL1    C3 7439   1.674   2.840  10.416  0.9222 -0.3638 -0.0039
   68CHL1    H3 7440   1.737   2.750  10.401 -0.7247 -1.8750  1.9023
   68CHL1    O3 7441   1.615   2.833  10.547  0.1875 -0.3722 -0.0672
   68CHL1   H3' 7442   1.540   2.893  10.545 -0.2450 -0.9254 -0.5672
   68CHL1    C4 7443   1.764   2.962  10.396 -0.4008  0.1750 -0.0924
   68CHL1   H4A 7444   1.707   3.045  10.443 -2.2517 -3.0086  3.5970
   68CHL1   H4B 7445   1.849   2.949  10.466  0.0222  0.1279 -0.6088
   68CHL1    C5 7446   1.800   2.993  10.256 -0.3542 -0.3480 -0.2193
   68CHL1    C6 7447   1.928   3.013  10.215 -0.4988 -0.0877  0.6378
   68CHL1    H6 7448   2.007   3.006  10.291 -0.3478  0.6708  0.5472
   68CHL1    C7 7449   1.963   3.046  10.069  0.2295  0.1480  0.2202
   68CHL1   H7A 7450   2.040   3.126  10.063  0.3176 -0.1272 -2.8820
   68CHL1   H7B 7451   2.008   2.958  10.019 -2.4089 -0.0365 -1.9254
   68CHL1    C8 7452   1.845   3.083   9.981 -0.5593  0.0208 -0.4656
   68CHL1    H8 7453   1.810   3.184  10.011  0.8575  0.9480 -1.8574
   68CHL1   C14 7454   1.873   3.093   9.828 -0.3864 -0.4304 -0.0423
   68CHL1   H14 7455   1.914   2.996   9.794 -0.2969 -0.4142  0.0196
   68CHL1   C15 7456   1.985   3.197   9.792 -0.4527 -0.4370  0.2692
   68CHL1  H15A 7457   1.982   3.284   9.862 -1.5677 -1.3862  1.4412
   68CHL1  H15B 7458   2.080   3.139   9.793  0.5034  1.0551 -1.6918
   68CHL1   C16 7459   1.951   3.235   9.644  0.0449  0.9013  0.6280
   68CHL1  H16A 7460   1.941   3.345   9.630  0.6689  1.1085  1.7349
   68CHL1  H16B 7461   2.038   3.203   9.582  0.0334 -0.1488  1.1367
   68CHL1   C17 7462   1.820   3.162   9.604  0.0631 -0.6505 -0.5639
   68CHL1   H17 7463   1.850   3.061   9.569 -0.8959 -2.0802  2.4679
   68CHL1   C13 7464   1.752   3.135   9.739  0.3183 -0.1005 -0.3810
   68CHL1   C18 7465   1.684   3.263   9.789 -0.1321 -0.2562  0.3617
   68CHL1  H18A 7466   1.757   3.347   9.790  0.3332 -0.6609  1.4207
   68CHL1  H18B 7467   1.590   3.288   9.736  0.4268 -0.7294 -0.8701
   68CHL1  H18C 7468   1.652   3.251   9.895 -0.0168  2.7596  0.7731
   68CHL1   C12 7469   1.661   3.020   9.748  0.4241 -0.2088  0.2487
   68CHL1  H12A 7470   1.564   3.053   9.704  0.7591  0.5128  0.0633
   68CHL1  H12B 7471   1.704   2.933   9.695 -2.0056 -0.6545 -1.0881
   68CHL1   C11 7472   1.626   2.989   9.903  0.1599  0.1113  0.5095
   68CHL1  H11A 7473   1.542   3.060   9.924  2.0565  1.6182  3.3952
   68CHL1  H11B 7474   1.577   2.889   9.899 -0.7242  0.5142  0.9691
   68CHL1    C9 7475   1.737   2.984  10.008 -0.2391  0.5639  0.2938
   68CHL1    H9 7476   1.785   2.884  10.005 -2.0925 -0.4052  2.0320
   68CHL1   C10 7477   1.685   2.986  10.151  0.7464  0.0448 -0.2087
   68CHL1   C19 7478   1.591   3.099  10.180  0.0692 -0.4561  0.0376
   68CHL1  H19A 7479   1.625   3.201  10.150 -3.5171  1.3626  1.8563
   68CHL1  H19B 7480   1.500   3.083  10.118  0.0388  1.1007 -0.3541
   68CHL1  H19C 7481   1.559   3.114  10.285  3.1683  1.2852  0.8136
   68CHL1    C1 7482   1.610   2.850  10.172  0.1184 -0.3184 -0.3338
   68CHL1   H1A 7483   1.514   2.846  10.116 -0.5379  0.5644  0.7156
   68CHL1   H1B 7484   1.672   2.762  10.143  0.9972  0.7439 -1.7372
   68CHL1    C2 7485   1.567   2.827  10.317  0.1667 -0.1094 -0.1101
   68CHL1   H2A 7486   1.513   2.729  10.312  1.0843 -0.5765 -1.0716
   68CHL1   H2B 7487   1.487   2.900  10.341  0.4337 -0.4036  1.7561
   68CHL1   C20 7488   1.736   3.229   9.486 -0.3551 -0.2547  0.0725
   68CHL1   H20 7489   1.704   3.330   9.522  4.1762  1.1289  0.5551
   68CHL1   C21 7490   1.630   3.136   9.434  0.3021  0.4439  0.6470
   68CHL1  H21A 7491   1.590   3.179   9.340 -0.8477 -1.1333  0.3975
   68CHL1  H21B 7492   1.554   3.126   9.515  1.2214 -2.1147  1.2321
   68CHL1  H21C 7493   1.682   3.042   9.406 -1.6151 -0.0404 -1.4257
   68CHL1   C22 7494   1.836   3.248   9.368  0.8990 -0.2637 -0.3009
   68CHL1  H22A 7495   1.903   3.333   9.389 -1.0031  1.4452 -0.9265
   68CHL1  H22B 7496   1.889   3.153   9.344  1.1661 -0.6598  1.7922
   68CHL1   C23 7497   1.780   3.296   9.229 -0.0364 -0.2417  0.5990
   68CHL1  H23A 7498   1.715   3.217   9.186  2.3536 -1.7560 -0.3350
   68CHL1  H23B 7499   1.707   3.380   9.241  0.5799  0.2092  1.2250
   68CHL1   C24 7500   1.888   3.336   9.126 -0.0143 -0.0416 -0.2512
   68CHL1  H24A 7501   1.940   3.426   9.166  0.5248 -1.3391  2.0900
   68CHL1  H24B 7502   1.973   3.265   9.128 -0.8028 -0.9884  0.8490
   68CHL1   C25 7503   1.830   3.360   8.984  0.0892 -0.3226 -0.1856
   68CHL1   H25 7504   1.780   3.264   8.958 -1.7964  0.2498  1.1543
   68CHL1   C26 7505   1.716   3.462   8.967  0.3220 -0.2030 -0.7909
   68CHL1  H26A 7506   1.639   3.443   9.045  1.4318  0.6055  0.5447
   68CHL1  H26B 7507   1.745   3.565   8.998 -0.6757 -0.0362 -0.3816
   68CHL1  H26C 7508   1.679   3.457   8.862 -0.4058  1.8696 -0.6503
   68CHL1   C27 7509   1.949   3.389   8.885  0.4309 -0.1676 -0.1948
   68CHL1  H27A 7510   1.899   3.393   8.785 -0.9616 -0.8113  0.4619
   68CHL1  H27B 7511   1.990   3.488   8.916  2.5129 -0.4201 -2.0015
   68CHL1  H27C 7512   2.024   3.308   8.886  1.6221  0.7685 -3.6710
   69CHL1    C3 7513   2.182   6.802   6.796 -0.5666  0.1739  0.3754
   69CHL1    H3 7514   2.287   6.827   6.818  0.0201 -1.6867 -0.1638
   69CHL1    O3 7515   2.160   6.770   6.662  0.0350  0.7512  0.3537
   69CHL1   H3' 7516   2.069   6.741   6.657  1.1527 -2.8318 -1.1180
   69CHL1    C4 7517   2.132   6.680   6.873 -0.3852 -0.4249  0.0480
   69CHL1   H4A 7518   2.023   6.662   6.864 -0.0420 -1.6428 -1.8257
   69CHL1   H4B 7519   2.191   6.594   6.835  0.1737  0.2894 -0.7419
   69CHL1    C5 7520   2.150   6.702   7.014  0.1305  0.1455 -0.9981
   69CHL1    C6 7521   2.221   6.614   7.088 -0.8149 -0.0876 -0.2100
   69CHL1    H6 7522   2.268   6.527   7.040 -2.2831 -1.3307  0.5554
   69CHL1    C7 7523   2.239   6.632   7.242  0.2695 -0.1087  0.6212
   69CHL1   H7A 7524   2.223   6.532   7.288 -1.4549 -0.3285 -0.4166
   69CHL1   H7B 7525   2.342   6.662   7.271 -0.4802  1.6918  1.5357
   69CHL1    C8 7526   2.139   6.729   7.304  0.2351 -0.6125  0.4748
   69CHL1    H8 7527   2.040   6.679   7.302  0.4551 -1.1639  2.2765
   69CHL1   C14 7528   2.184   6.760   7.442 -0.9021 -0.0715  0.3283
   69CHL1   H14 7529   2.276   6.820   7.427 -1.2193  0.4829  0.5915
   69CHL1   C15 7530   2.229   6.643   7.528  0.1470 -0.8460  0.1095
   69CHL1  H15A 7531   2.156   6.561   7.513 -1.4093  0.8002 -1.4810
   69CHL1  H15B 7532   2.330   6.610   7.496 -0.4537 -2.6969  0.0381
   69CHL1   C16 7533   2.227   6.699   7.667  0.3555 -0.4534  0.0711
   69CHL1  H16A 7534   2.155   6.641   7.728  0.5500 -0.9608 -0.1808
   69CHL1  H16B 7535   2.320   6.703   7.727  1.6771 -0.7398 -1.8984
   69CHL1   C17 7536   2.172   6.846   7.657  0.1866 -0.0611 -0.6026
   69CHL1   H17 7537   2.256   6.917   7.641  1.1475 -0.0202  3.9558
   69CHL1   C13 7538   2.091   6.843   7.528  0.4762  0.2745 -0.3424
   69CHL1   C18 7539   1.955   6.772   7.540 -0.2142  0.3752 -0.2124
   69CHL1  H18A 7540   1.884   6.838   7.593  0.7354  1.4728 -0.3075
   69CHL1  H18B 7541   1.904   6.772   7.441 -1.5941  2.3912  0.4872
   69CHL1  H18C 7542   1.949   6.673   7.592 -1.1084  0.3663 -0.3294
   69CHL1   C12 7543   2.085   6.979   7.448 -0.3537  0.0278  0.1335
   69CHL1  H12A 7544   2.003   7.030   7.503 -2.0137  0.4446 -2.6103
   69CHL1  H12B 7545   2.175   7.041   7.465 -0.6148  0.1476  1.1535
   69CHL1   C11 7546   2.039   6.970   7.301  0.7749 -0.0271 -0.1128
   69CHL1  H11A 7547   1.929   6.953   7.292  0.9354 -1.4347  0.5142
   69CHL1  H11B 7548   2.067   7.068   7.257  1.9714 -0.3630 -0.1097
   69CHL1    C9 7549   2.125   6.859   7.218  0.2625  0.6508 -0.2075
   69CHL1    H9 7550   2.227   6.903   7.209  0.6900 -0.3801 -0.5687
   69CHL1   C10 7551   2.080   6.834   7.076  0.7068 -0.2025 -0.9094
   69CHL1   C19 7552   1.925   6.814   7.075 -1.0346 -0.3522  0.1151
   69CHL1  H19A 7553   1.876   6.910   7.100  1.1461  1.3480 -1.9206
   69CHL1  H19B 7554   1.893   6.791   6.971  0.8729 -0.0515 -0.5588
   69CHL1  H19C 7555   1.891   6.728   7.137  2.4474 -0.7875  1.5638
   69CHL1    C1 7556   2.126   6.948   6.982  0.1479 -0.3525 -0.3576
   69CHL1   H1A 7557   2.063   7.036   7.007  1.5801  0.5089  0.2958
   69CHL1   H1B 7558   2.234   6.970   7.002  0.4991  0.0647 -2.5657
   69CHL1    C2 7559   2.103   6.920   6.833  0.0212 -0.0354 -0.2065
   69CHL1   H2A 7560   2.127   7.016   6.781 -2.9366 -0.3526 -2.2951
   69CHL1   H2B 7561   1.994   6.911   6.816  0.1280  0.4327 -1.2062
   69CHL1   C20 7562   2.104   6.888   7.784 -0.1931  0.0506 -0.2797
   69CHL1   H20 7563   1.994   6.877   7.775 -0.0052 -2.2036 -0.1348
   69CHL1   C21 7564   2.115   7.047   7.787  0.0203  0.2781  0.4820
   69CHL1  H21A 7565   2.211   7.078   7.835  0.2360 -0.6186  0.6395
   69CHL1  H21B 7566   2.037   7.097   7.847 -0.8557 -0.2011 -0.2511
   69CHL1  H21C 7567   2.114   7.092   7.686 -1.7111  3.9930  2.0838
   69CHL1   C22 7568   2.147   6.811   7.909  0.3949 -0.2563 -0.3637
   69CHL1  H22A 7569   2.089   6.716   7.908 -2.4285  1.4013  1.1791
   69CHL1  H22B 7570   2.258   6.800   7.916  0.5599 -1.0972 -3.6032
   69CHL1   C23 7571   2.103   6.863   8.053 -0.0057 -0.6058  0.3385
   69CHL1  H23A 7572   2.159   6.798   8.124  1.3635 -0.0733 -0.2423
   69CHL1  H23B 7573   2.142   6.967   8.045  0.9924 -1.1313 -2.2970
   69CHL1   C24 7574   1.950   6.878   8.075 -0.1743 -0.8418  0.4538
   69CHL1  H24A 7575   1.899   6.900   7.979 -1.1341 -0.0293  1.1310
   69CHL1  H24B 7576   1.910   6.780   8.109 -0.9895  0.2083  2.6699
   69CHL1   C25 7577   1.912   6.992   8.164 -0.3982 -0.4453  0.5459
   69CHL1   H25 7578   1.952   7.090   8.130  0.9423 -0.9826  0.5540
   69CHL1   C26 7579   1.760   7.014   8.154 -0.3201  0.0374 -0.1250
   69CHL1  H26A 7580   1.730   7.029   8.049 -1.5349  1.5330  0.4237
   69CHL1  H26B 7581   1.706   6.922   8.185  0.3447 -0.9171 -1.7400
   69CHL1  H26C 7582   1.718   7.101   8.209  0.2803  0.0052  0.3938
   69CHL1   C27 7583   1.958   6.963   8.306 -0.4572 -0.1944  0.0780
   69CHL1  H27A 7584   1.917   7.048   8.365  4.0481  2.6719 -0.6608
   69CHL1  H27B 7585   1.922   6.862   8.334  0.1686 -0.3365  0.3792
   69CHL1  H27C 7586   2.068   6.974   8.316 -0.7049  3.5112 -0.5519
   70CHL1    C3 7587   1.260   3.840   7.163 -0.1697 -0.4963  0.1434
   70CHL1    H3 7588   1.170   3.895   7.197  0.0843  0.0068  0.0042
   70CHL1    O3 7589   1.260   3.838   7.021 -0.2869 -0.5648  0.0167
   70CHL1   H3' 7590   1.340   3.793   6.993  0.0998 -1.4433  2.3710
   70CHL1    C4 7591   1.391   3.903   7.203  0.4015  0.2802  0.4933
   70CHL1   H4A 7592   1.473   3.857   7.144  0.9412  1.5616  0.2327
   70CHL1   H4B 7593   1.397   4.007   7.163  1.4529  0.6706  1.6109
   70CHL1    C5 7594   1.419   3.896   7.350  0.0334 -0.1027  0.6796
   70CHL1    C6 7595   1.445   4.002   7.424 -0.1196 -0.0150 -0.5936
   70CHL1    H6 7596   1.425   4.101   7.381 -1.0904  0.1129  0.1340
   70CHL1    C7 7597   1.489   4.000   7.565  0.2350  0.4387  0.7889
   70CHL1   H7A 7598   1.573   4.071   7.577  3.1977 -2.6446 -0.8685
   70CHL1   H7B 7599   1.396   4.035   7.615  1.0499  1.8875  1.2974
   70CHL1    C8 7600   1.525   3.867   7.620 -0.0406 -0.7615  0.1200
   70CHL1    H8 7601   1.630   3.845   7.590 -0.4893 -0.7444 -1.5160
   70CHL1   C14 7602   1.515   3.877   7.768 -0.6005  0.3480 -0.2978
   70CHL1   H14 7603   1.407   3.894   7.789 -0.5972  0.0486 -0.0369
   70CHL1   C15 7604   1.580   3.989   7.837  0.2820 -0.5546 -0.0539
   70CHL1  H15A 7605   1.683   3.997   7.797  1.2377 -2.2955  2.0026
   70CHL1  H15B 7606   1.535   4.091   7.831  0.2270 -0.6308 -1.1443
   70CHL1   C16 7607   1.574   3.942   7.978  0.3854 -0.0448  0.1726
   70CHL1  H16A 7608   1.682   3.939   8.006  0.9892 -0.2335 -2.0517
   70CHL1  H16B 7609   1.531   4.019   8.045 -0.8932  0.7908 -1.5628
   70CHL1   C17 7610   1.523   3.795   7.985  0.5766  0.3728  0.4236
   70CHL1   H17 7611   1.413   3.806   8.000  0.3088 -1.5719  0.0396
   70CHL1   C13 7612   1.540   3.746   7.839  0.2362  0.5762 -0.5198
   70CHL1   C18 7613   1.683   3.700   7.813 -0.2125  0.5847  0.2358
   70CHL1  H18A 7614   1.707   3.612   7.876 -1.1089 -0.3584 -0.7237
   70CHL1  H18B 7615   1.701   3.673   7.707  0.8954  2.3493 -0.0359
   70CHL1  H18C 7616   1.750   3.786   7.835  0.0694  0.0282  1.5733
   70CHL1   C12 7617   1.435   3.639   7.789  0.3381 -0.1786  0.7294
   70CHL1  H12A 7618   1.450   3.542   7.840 -2.1816 -0.4925  0.9385
   70CHL1  H12B 7619   1.332   3.675   7.807 -0.2760 -2.2197  1.3968
   70CHL1   C11 7620   1.436   3.621   7.639 -0.0186 -0.1089 -0.3174
   70CHL1  H11A 7621   1.537   3.584   7.611 -0.3622 -1.5180  0.2322
   70CHL1  H11B 7622   1.354   3.550   7.616  0.3286 -0.1018 -1.6187
   70CHL1    C9 7623   1.425   3.760   7.567 -0.3954  0.4323  0.3342
   70CHL1    H9 7624   1.326   3.797   7.599 -0.3466  1.6672 -0.8980
   70CHL1   C10 7625   1.418   3.758   7.413 -0.2430  0.7924  0.3930
   70CHL1   C19 7626   1.539   3.678   7.352  0.4051  0.8351  0.2555
   70CHL1  H19A 7627   1.533   3.569   7.371 -1.7098  1.0883  1.1144
   70CHL1  H19B 7628   1.547   3.695   7.243 -0.1612 -1.1183 -0.1143
   70CHL1  H19C 7629   1.626   3.723   7.406  2.7080 -0.1572 -2.4861
   70CHL1    C1 7630   1.291   3.686   7.369  0.7690  0.2136 -0.0899
   70CHL1   H1A 7631   1.273   3.580   7.395  0.4298 -0.3099 -2.3649
   70CHL1   H1B 7632   1.211   3.739   7.425  0.8848 -0.2653  0.5341
   70CHL1    C2 7633   1.260   3.701   7.216 -0.1944  0.1463 -0.0887
   70CHL1   H2A 7634   1.163   3.652   7.193 -0.5535  1.2473 -0.9353
   70CHL1   H2B 7635   1.345   3.651   7.165  0.0622  1.2074 -0.7073
   70CHL1   C20 7636   1.586   3.715   8.092  0.7832  0.2797 -0.7592
   70CHL1   H20 7637   1.695   3.711   8.074  1.1919 -1.5289  1.8491
   70CHL1   C21 7638   1.519   3.572   8.098 -0.0447  0.5091  0.2115
   70CHL1  H21A 7639   1.543   3.502   8.016 -2.3108 -1.6437  1.3038
   70CHL1  H21B 7640   1.410   3.595   8.093 -0.1321  1.1133  3.4855
   70CHL1  H21C 7641   1.546   3.521   8.193  0.5298 -0.2554 -0.3675
   70CHL1   C22 7642   1.578   3.784   8.230 -0.2722  0.2851  0.4525
   70CHL1  H22A 7643   1.614   3.888   8.215  3.0103 -0.2283  3.9259
   70CHL1  H22B 7644   1.469   3.776   8.252 -0.0802 -1.8161  0.7933
   70CHL1   C23 7645   1.652   3.721   8.347  0.5988  0.2352  0.7107
   70CHL1  H23A 7646   1.633   3.618   8.382 -1.1444  0.4511  0.4590
   70CHL1  H23B 7647   1.757   3.722   8.309  0.0195  0.6947 -0.9192
   70CHL1   C24 7648   1.637   3.810   8.473  0.5744 -0.7108 -0.5133
   70CHL1  H24A 7649   1.647   3.915   8.438 -0.4289 -0.4397 -0.0417
   70CHL1  H24B 7650   1.532   3.807   8.511  0.4624 -1.4804 -0.8743
   70CHL1   C25 7651   1.734   3.790   8.589  0.8617  0.0823 -0.3616
   70CHL1   H25 7652   1.704   3.852   8.677  0.3650  0.1846 -0.6017
   70CHL1   C26 7653   1.741   3.640   8.629 -0.1310 -0.3450  0.4675
   70CHL1  H26A 7654   1.776   3.583   8.540 -1.4138  1.5799 -1.3247
   70CHL1  H26B 7655   1.819   3.638   8.708 -0.7228  2.1612  1.1679
   70CHL1  H26C 7656   1.648   3.604   8.678  0.2050 -4.4039 -1.6439
   70CHL1   C27 7657   1.875   3.840   8.554 -0.5837 -0.2260 -0.4816
   70CHL1  H27A 7658   1.928   3.775   8.482  2.0797  0.7803  0.4774
   70CHL1  H27B 7659   1.863   3.943   8.515  0.1789 -0.1388 -0.5063
   70CHL1  H27C 7660   1.941   3.841   8.644 -1.6773 -2.4249  0.3713
   71CHL1    C3 7661   0.637   5.968   6.786 -0.1601 -0.4097 -0.3070
   71CHL1    H3 7662   0.737   5.962   6.834 -0.2500 -3.1955 -0.3299
   71CHL1    O3 7663   0.665   5.965   6.650 -0.4046  0.1815  0.1782
   71CHL1   H3' 7664   0.580   5.977   6.607 -0.2882  0.4675  0.0302
   71CHL1    C4 7665   0.540   5.859   6.836  0.0833 -0.2815  0.2169
   71CHL1   H4A 7666   0.439   5.880   6.795 -0.8961 -1.2731  2.0450
   71CHL1   H4B 7667   0.561   5.759   6.794 -1.6208 -0.8979  0.7699
   71CHL1    C5 7668   0.555   5.872   6.987  0.0956  0.0305  0.3280
   71CHL1    C6 7669   0.609   5.766   7.060  1.0864  0.1450 -0.7955
   71CHL1    H6 7670   0.636   5.670   7.014  0.4421  0.5763 -2.1136
   71CHL1    C7 7671   0.626   5.767   7.209  0.0064 -0.4944  0.1264
   71CHL1   H7A 7672   0.608   5.665   7.248  1.3043  0.2944  2.9279
   71CHL1   H7B 7673   0.733   5.786   7.231 -0.0701  0.4043 -0.2539
   71CHL1    C8 7674   0.538   5.877   7.279 -0.8129  0.5279 -0.3538
   71CHL1    H8 7675   0.435   5.837   7.275 -0.5260 -0.5799  2.2804
   71CHL1   C14 7676   0.578   5.904   7.428 -0.0775  0.1679  0.5130
   71CHL1   H14 7677   0.679   5.951   7.422  1.1648 -2.5523 -0.7860
   71CHL1   C15 7678   0.588   5.778   7.513 -0.3083  0.3777 -0.5092
   71CHL1  H15A 7679   0.496   5.717   7.504 -0.7671  0.9662  0.1223
   71CHL1  H15B 7680   0.678   5.716   7.491 -1.4225 -1.4741 -0.0178
   71CHL1   C16 7681   0.599   5.830   7.657 -0.2086 -0.1573  0.2470
   71CHL1  H16A 7682   0.550   5.765   7.732  0.2340 -0.0042  0.6731
   71CHL1  H16B 7683   0.708   5.833   7.679 -0.3369 -1.6668  1.0702
   71CHL1   C17 7684   0.542   5.975   7.652  0.3105  0.4046  0.0236
   71CHL1   H17 7685   0.632   6.040   7.646  1.6570 -1.2592  1.8701
   71CHL1   C13 7686   0.479   5.998   7.505 -0.0812 -0.7002 -0.3911
   71CHL1   C18 7687   0.343   5.938   7.500  0.4265  0.0897  0.5844
   71CHL1  H18A 7688   0.276   5.997   7.567  0.8032  0.3406  0.7418
   71CHL1  H18B 7689   0.301   5.928   7.397  0.1286  0.5805  0.6549
   71CHL1  H18C 7690   0.347   5.835   7.541 -1.4278 -0.3584 -0.2881
   71CHL1   C12 7691   0.495   6.134   7.432  0.1400 -0.0448 -0.4631
   71CHL1  H12A 7692   0.442   6.224   7.471  0.7743 -0.1909  0.7515
   71CHL1  H12B 7693   0.605   6.147   7.436  0.0692  0.1751  1.4331
   71CHL1   C11 7694   0.466   6.130   7.278 -0.3131 -0.1582  0.4065
   71CHL1  H11A 7695   0.358   6.108   7.276 -0.3609  0.1661 -0.5822
   71CHL1  H11B 7696   0.498   6.229   7.238  1.6302 -0.2360  1.6788
   71CHL1    C9 7697   0.542   6.011   7.203 -0.7706  0.3500 -0.9720
   71CHL1    H9 7698   0.646   6.049   7.210 -0.9223  0.3357  2.4040
   71CHL1   C10 7699   0.504   6.005   7.054 -0.4374 -0.5143 -0.1121
   71CHL1   C19 7700   0.349   6.002   7.037 -0.1933  0.1631  0.2462
   71CHL1  H19A 7701   0.304   5.930   7.109  0.8729 -0.0990  0.6575
   71CHL1  H19B 7702   0.307   6.101   7.062 -2.1465 -0.9503  1.5306
   71CHL1  H19C 7703   0.313   5.966   6.939 -2.3985 -2.2333  1.8715
   71CHL1    C1 7704   0.574   6.124   6.972 -0.0903 -1.2161  0.0736
   71CHL1   H1A 7705   0.523   6.218   7.000  0.4660 -0.3741 -1.7157
   71CHL1   H1B 7706   0.675   6.109   7.016 -0.8393 -5.1050  0.6744
   71CHL1    C2 7707   0.577   6.104   6.818 -1.3451 -0.0169  0.2019
   71CHL1   H2A 7708   0.630   6.191   6.772 -0.1403 -0.7574  0.1525
   71CHL1   H2B 7709   0.474   6.105   6.778 -1.4666  2.2709  0.4816
   71CHL1   C20 7710   0.456   6.009   7.774 -0.4753 -0.2423  0.1111
   71CHL1   H20 7711   0.370   5.938   7.769  0.9953 -1.9368 -2.3857
   71CHL1   C21 7712   0.403   6.153   7.763  0.0016  0.6903  0.9789
   71CHL1  H21A 7713   0.487   6.226   7.760  0.2364  0.3842 -1.1617
   71CHL1  H21B 7714   0.335   6.173   7.848 -2.2408  0.8413 -0.7763
   71CHL1  H21C 7715   0.339   6.180   7.676  0.4711 -0.3604  0.3062
   71CHL1   C22 7716   0.537   5.991   7.905 -0.1068 -0.4609 -0.6489
   71CHL1  H22A 7717   0.592   5.894   7.909  0.0051 -0.3530  0.6262
   71CHL1  H22B 7718   0.602   6.080   7.917  1.0053 -1.2987 -0.3462
   71CHL1   C23 7719   0.448   5.983   8.027 -0.5272  0.0329  0.0441
   71CHL1  H23A 7720   0.355   6.042   8.025 -2.8458 -3.4215  1.4779
   71CHL1  H23B 7721   0.408   5.881   8.044  0.7792 -0.1546  2.2500
   71CHL1   C24 7722   0.525   6.010   8.160  0.1882  0.4988 -0.6096
   71CHL1  H24A 7723   0.595   5.924   8.171  0.7585  1.1165  0.6109
   71CHL1  H24B 7724   0.588   6.102   8.157 -0.6577  1.1691  1.5756
   71CHL1   C25 7725   0.423   6.014   8.276 -0.5559  0.3520  0.6103
   71CHL1   H25 7726   0.345   5.942   8.246 -0.5177  0.8420 -0.6943
   71CHL1   C26 7727   0.478   5.976   8.414  0.4120 -0.6064  1.1932
   71CHL1  H26A 7728   0.393   5.976   8.486 -2.7159 -1.1316 -2.3328
   71CHL1  H26B 7729   0.530   5.878   8.408  3.3206  1.0005 -1.4389
   71CHL1  H26C 7730   0.551   6.052   8.448  1.1918 -1.0620  0.5430
   71CHL1   C27 7731   0.358   6.147   8.282  0.3102  0.6872 -0.0653
   71CHL1  H27A 7732   0.293   6.163   8.194  2.1855  1.2445 -1.3787
   71CHL1  H27B 7733   0.293   6.153   8.372 -0.6525  1.3699 -0.7856
   71CHL1  H27C 7734   0.436   6.226   8.291  2.3871 -1.4466  1.2271
   72CHL1    C3 7735   0.682   4.281   7.244 -0.0822 -0.5689 -0.6129
   72CHL1    H3 7736   0.778   4.319   7.204 -0.6554  0.2266 -1.2437
   72CHL1    O3 7737   0.592   4.273   7.135 -0.6114  0.1613  0.3413
   72CHL1   H3' 7738   0.506   4.274   7.177 -0.4311  4.3564  0.8357
   72CHL1    C4 7739   0.701   4.136   7.297  0.5809  0.9277 -0.2498
   72CHL1   H4A 7740   0.599   4.103   7.324  0.8130  0.2824 -0.1553
   72CHL1   H4B 7741   0.740   4.062   7.223  2.1530  1.3758  0.0987
   72CHL1    C5 7742   0.795   4.135   7.423  0.1193 -0.0520  0.0011
   72CHL1    C6 7743   0.902   4.051   7.431  0.2383  0.2327  0.3525
   72CHL1    H6 7744   0.925   3.990   7.343  0.8425  0.6327  0.2317
   72CHL1    C7 7745   0.999   4.046   7.542 -0.1132  0.0010 -0.1205
   72CHL1   H7A 7746   1.020   3.940   7.566  1.7172  0.5217  0.6391
   72CHL1   H7B 7747   1.092   4.094   7.506  0.0801  1.0688  1.7179
   72CHL1    C8 7748   0.946   4.124   7.664  0.9565  0.2318 -0.1600
   72CHL1    H8 7749   0.872   4.059   7.716  0.6586  0.6570 -0.0483
   72CHL1   C14 7750   1.060   4.152   7.762 -0.9834 -0.4643 -0.0127
   72CHL1   H14 7751   1.131   4.221   7.711 -1.1834  0.1821  0.5798
   72CHL1   C15 7752   1.151   4.040   7.812  1.1497 -0.5595  0.2702
   72CHL1  H15A 7753   1.104   3.944   7.844  1.8401 -1.3802 -1.1455
   72CHL1  H15B 7754   1.222   4.014   7.731  0.6914 -0.9682 -0.0036
   72CHL1   C16 7755   1.226   4.089   7.929 -0.5297 -0.6396  0.1617
   72CHL1  H16A 7756   1.205   4.025   8.017  1.4205 -1.5732 -0.0419
   72CHL1  H16B 7757   1.336   4.099   7.919 -0.4704 -0.6102  0.8355
   72CHL1   C17 7758   1.160   4.231   7.965 -0.0403 -0.9099  0.1032
   72CHL1   H17 7759   1.220   4.309   7.915  1.1389 -2.0263 -0.2532
   72CHL1   C13 7760   1.020   4.229   7.889 -0.6593  0.8092  0.5873
   72CHL1   C18 7761   0.919   4.143   7.978  0.1454  0.0088 -0.0908
   72CHL1  H18A 7762   0.893   4.201   8.069 -0.2921  0.3882 -0.4592
   72CHL1  H18B 7763   0.835   4.106   7.916  0.6214 -0.0021 -0.7488
   72CHL1  H18C 7764   0.968   4.048   8.007 -1.6173 -0.6400  0.8062
   72CHL1   C12 7765   0.952   4.365   7.857 -0.1241  0.4969  0.4005
   72CHL1  H12A 7766   0.918   4.423   7.945 -0.3181  1.3893 -0.2500
   72CHL1  H12B 7767   1.032   4.426   7.810 -0.7967  0.0341 -1.3880
   72CHL1   C11 7768   0.844   4.350   7.748  0.2771 -0.3654  0.3007
   72CHL1  H11A 7769   0.754   4.306   7.797  0.7584 -2.8708 -0.9680
   72CHL1  H11B 7770   0.825   4.452   7.707 -1.1336 -0.1977  1.3278
   72CHL1    C9 7771   0.880   4.261   7.626  0.1995  0.7449  0.2301
   72CHL1    H9 7772   0.953   4.322   7.569  2.6279 -0.1831  2.1997
   72CHL1   C10 7773   0.757   4.233   7.534 -1.1218 -0.3622  0.7359
   72CHL1   C19 7774   0.628   4.182   7.604 -0.6163 -0.0624 -0.9580
   72CHL1  H19A 7775   0.533   4.184   7.545 -1.2799  0.5098  0.1269
   72CHL1  H19B 7776   0.636   4.077   7.639 -0.3711  0.2509 -0.0841
   72CHL1  H19C 7777   0.599   4.254   7.683  1.4510 -0.9382  0.6350
   72CHL1    C1 7778   0.726   4.377   7.470  1.1046 -1.0637 -0.3643
   72CHL1   H1A 7779   0.695   4.438   7.558  0.9214  0.0095 -1.1639
   72CHL1   H1B 7780   0.824   4.415   7.436  1.1270 -3.1276 -2.7802
   72CHL1    C2 7781   0.623   4.368   7.354  0.3876  0.9706 -0.6548
   72CHL1   H2A 7782   0.602   4.465   7.303 -2.1405  2.2772  2.7140
   72CHL1   H2B 7783   0.529   4.320   7.389  1.1053  0.4882  0.6583
   72CHL1   C20 7784   1.163   4.269   8.114  0.0960 -0.2965 -0.5226
   72CHL1   H20 7785   1.077   4.218   8.163 -2.1578  0.5060 -3.5046
   72CHL1   C21 7786   1.129   4.420   8.133  0.2504 -0.2410  0.0189
   72CHL1  H21A 7787   1.020   4.441   8.146  0.5911  0.9977  1.0271
   72CHL1  H21B 7788   1.154   4.474   8.040  2.4847 -1.5544 -0.1717
   72CHL1  H21C 7789   1.191   4.463   8.215 -0.4227 -2.1278  1.5797
   72CHL1   C22 7790   1.293   4.235   8.183 -0.1968  0.1486 -0.4588
   72CHL1  H22A 7791   1.320   4.128   8.170 -2.1366 -0.5389  0.9562
   72CHL1  H22B 7792   1.379   4.291   8.139 -1.2500  0.9098 -1.5805
   72CHL1   C23 7793   1.296   4.260   8.332  0.6471 -0.5000  0.3799
   72CHL1  H23A 7794   1.307   4.367   8.357 -0.8126 -0.9719  3.3084
   72CHL1  H23B 7795   1.196   4.228   8.370  1.1454  0.0265  2.1505
   72CHL1   C24 7796   1.397   4.173   8.411  0.5814 -0.3362  0.3918
   72CHL1  H24A 7797   1.387   4.067   8.382 -1.5327 -1.0236  3.4127
   72CHL1  H24B 7798   1.496   4.191   8.364 -0.9554  3.4017 -1.7185
   72CHL1   C25 7799   1.397   4.190   8.563 -0.0437 -0.0417 -0.2595
   72CHL1   H25 7800   1.299   4.151   8.600  0.8326 -1.3976  0.6400
   72CHL1   C26 7801   1.510   4.106   8.628 -0.8004  0.6183  0.2275
   72CHL1  H26A 7802   1.479   3.999   8.631 -0.6463  0.6208  1.9143
   72CHL1  H26B 7803   1.608   4.122   8.577 -1.0383 -2.8334 -1.5049
   72CHL1  H26C 7804   1.538   4.124   8.734  0.9486  0.8369 -0.2537
   72CHL1   C27 7805   1.419   4.337   8.608 -0.0415 -0.0136 -0.1670
   72CHL1  H27A 7806   1.397   4.351   8.716  1.1547 -2.9156  0.5042
   72CHL1  H27B 7807   1.525   4.358   8.581  0.1174 -0.0105  0.4433
   72CHL1  H27C 7808   1.341   4.398   8.558 -1.4125 -1.7744 -0.2112
   73CHL1    C3 7809   1.361   0.350   6.945  1.1826 -1.2027  0.5161
   73CHL1    H3 7810   1.401   0.442   6.897 -0.9071 -0.6333 -0.1722
   73CHL1    O3 7811   1.292   0.286   6.834 -0.2373 -0.3247 -0.0922
   73CHL1   H3' 7812   1.276   0.196   6.862  0.6164 -1.2839 -2.5865
   73CHL1    C4 7813   1.468   0.252   6.993  0.2068 -0.4649  0.1009
   73CHL1   H4A 7814   1.415   0.160   7.023 -1.9044  0.7585  0.1785
   73CHL1   H4B 7815   1.533   0.214   6.911 -1.2498 -2.8946  0.0404
   73CHL1    C5 7816   1.536   0.314   7.111 -0.0772 -0.5664  0.0827
   73CHL1    C6 7817   1.672   0.324   7.115  0.2677 -0.6634  0.7281
   73CHL1    H6 7818   1.732   0.283   7.032  1.1549  1.8164  0.1215
   73CHL1    C7 7819   1.752   0.385   7.232 -0.3857  0.2355  0.9936
   73CHL1   H7A 7820   1.841   0.322   7.251  0.0340  0.1812 -1.0088
   73CHL1   H7B 7821   1.782   0.485   7.193 -3.4544  1.0109  0.4286
   73CHL1    C8 7822   1.668   0.421   7.355  0.2910 -0.4467  0.1460
   73CHL1    H8 7823   1.651   0.322   7.403 -3.1379 -1.2666 -2.5121
   73CHL1   C14 7824   1.737   0.518   7.445  0.3313  0.3776 -0.7506
   73CHL1   H14 7825   1.741   0.613   7.386 -3.1159 -0.4950 -2.5123
   73CHL1   C15 7826   1.879   0.482   7.490  0.2985  0.2564  0.3407
   73CHL1  H15A 7827   1.882   0.379   7.530  0.0759  0.2823  0.4264
   73CHL1  H15B 7828   1.952   0.493   7.407 -0.5845  0.7503 -0.3908
   73CHL1   C16 7829   1.902   0.578   7.609 -0.9116  0.6552 -0.2040
   73CHL1  H16A 7830   1.957   0.523   7.689 -2.1964 -2.0470 -1.0959
   73CHL1  H16B 7831   1.960   0.666   7.576  0.4182  0.5015  1.6301
   73CHL1   C17 7832   1.770   0.635   7.647 -0.6056  0.7525 -0.1496
   73CHL1   H17 7833   1.768   0.727   7.586 -3.1454  0.1625 -1.0042
   73CHL1   C13 7834   1.666   0.545   7.578  0.4411 -0.3500  0.4887
   73CHL1   C18 7835   1.649   0.421   7.659 -0.4175 -0.0422  0.0268
   73CHL1  H18A 7836   1.599   0.337   7.607 -1.1117  0.8823 -0.8169
   73CHL1  H18B 7837   1.734   0.372   7.712  0.9285  1.1875 -0.9492
   73CHL1  H18C 7838   1.574   0.453   7.735 -1.4874 -4.0121  0.7171
   73CHL1   C12 7839   1.528   0.605   7.536  0.0298  0.0241  0.6484
   73CHL1  H12A 7840   1.464   0.641   7.619  0.5042  0.7218  0.7167
   73CHL1  H12B 7841   1.548   0.693   7.471  1.8400 -0.8762 -0.0609
   73CHL1   C11 7842   1.451   0.511   7.450  0.5800  0.3281 -0.4059
   73CHL1  H11A 7843   1.423   0.423   7.511  1.1243  1.8992  2.1992
   73CHL1  H11B 7844   1.366   0.570   7.412 -1.2142 -1.0812  1.2957
   73CHL1    C9 7845   1.532   0.469   7.322 -0.2403  0.6365 -0.0566
   73CHL1    H9 7846   1.550   0.562   7.264 -1.6352  0.8141 -0.2376
   73CHL1   C10 7847   1.451   0.369   7.226 -0.0518  0.3003  0.3988
   73CHL1   C19 7848   1.397   0.250   7.311 -0.0519  0.3477 -0.0061
   73CHL1  H19A 7849   1.346   0.172   7.251  0.9760  0.3915 -0.9421
   73CHL1  H19B 7850   1.464   0.204   7.387  0.4746  1.6158  0.3066
   73CHL1  H19C 7851   1.320   0.292   7.379 -1.0066  0.2743 -1.0266
   73CHL1    C1 7852   1.329   0.442   7.172  0.1122 -0.5367  0.3859
   73CHL1   H1A 7853   1.253   0.470   7.248 -0.7964 -1.3922 -0.2044
   73CHL1   H1B 7854   1.372   0.539   7.139  0.3836 -1.4793 -2.1826
   73CHL1    C2 7855   1.257   0.384   7.055 -0.6502 -0.2301 -0.3607
   73CHL1   H2A 7856   1.182   0.460   7.023  0.3537  1.3561  0.9569
   73CHL1   H2B 7857   1.199   0.297   7.092  0.0226 -0.0819  1.0722
   73CHL1   C20 7858   1.745   0.668   7.796 -0.4084 -0.6070  0.3069
   73CHL1   H20 7859   1.751   0.577   7.858 -1.0669 -1.3351 -0.6740
   73CHL1   C21 7860   1.604   0.729   7.819  0.3379  0.9277 -0.0980
   73CHL1  H21A 7861   1.516   0.662   7.812  0.9519 -0.4919  4.3595
   73CHL1  H21B 7862   1.592   0.807   7.741 -3.2859 -1.5792 -2.2215
   73CHL1  H21C 7863   1.582   0.780   7.915 -2.1269 -0.1966 -0.0256
   73CHL1   C22 7864   1.865   0.756   7.844 -0.0991  0.2526  0.3830
   73CHL1  H22A 7865   1.965   0.713   7.823  1.3252  1.4608  4.2579
   73CHL1  H22B 7866   1.863   0.851   7.785  0.6815 -1.2350 -2.0953
   73CHL1   C23 7867   1.867   0.781   7.995  0.6196  0.3765  0.1907
   73CHL1  H23A 7868   1.952   0.851   8.013 -0.4241  1.1712  2.2056
   73CHL1  H23B 7869   1.770   0.827   8.022  0.6653 -0.4807  1.9706
   73CHL1   C24 7870   1.900   0.664   8.087  0.3577 -0.7550  0.0704
   73CHL1  H24A 7871   1.812   0.599   8.105 -0.3662  0.0401 -0.5328
   73CHL1  H24B 7872   1.976   0.596   8.044  1.8733 -0.9401  2.9665
   73CHL1   C25 7873   1.971   0.702   8.219 -0.5479  0.3518 -0.6200
   73CHL1   H25 7874   2.061   0.759   8.187 -0.6704  0.4300 -0.8266
   73CHL1   C26 7875   1.888   0.790   8.311 -0.1008 -0.0080  0.4384
   73CHL1  H26A 7876   1.801   0.724   8.333 -1.0775  1.0563 -0.1978
   73CHL1  H26B 7877   1.949   0.830   8.394  1.5043  1.5179 -1.4219
   73CHL1  H26C 7878   1.857   0.878   8.251  0.2528  0.0978  0.4070
   73CHL1   C27 7879   2.017   0.584   8.308 -0.2622  0.3309  0.2210
   73CHL1  H27A 7880   2.086   0.521   8.247  1.0235 -1.6756  3.6092
   73CHL1  H27B 7881   2.076   0.627   8.392  0.2152 -1.2006  0.6758
   73CHL1  H27C 7882   1.944   0.521   8.363 -0.8168  1.8671  1.2814
   74CHL1    C3 7883   0.518   6.543   6.869 -0.5753  0.0819  0.1299
   74CHL1    H3 7884   0.447   6.459   6.885 -0.7744  0.2915  0.3512
   74CHL1    O3 7885   0.553   6.537   6.734 -0.3020  0.0422 -0.5738
   74CHL1   H3' 7886   0.610   6.610   6.712  1.5025 -1.5847 -1.4166
   74CHL1    C4 7887   0.447   6.676   6.912 -0.2063  1.1045 -0.2732
   74CHL1   H4A 7888   0.504   6.768   6.886  0.9756  1.1830  2.4107
   74CHL1   H4B 7889   0.354   6.689   6.852 -0.8331 -1.0808  0.1769
   74CHL1    C5 7890   0.418   6.676   7.060  0.3518 -0.5726  0.0363
   74CHL1    C6 7891   0.295   6.698   7.100 -0.0410 -0.0868 -0.6928
   74CHL1    H6 7892   0.211   6.727   7.035 -1.7524 -4.4104 -0.5739
   74CHL1    C7 7893   0.251   6.701   7.247  0.1376  0.3000 -0.0322
   74CHL1   H7A 7894   0.189   6.787   7.279 -1.3303 -0.7083 -0.1026
   74CHL1   H7B 7895   0.200   6.603   7.257 -0.0017  0.0133 -3.0570
   74CHL1    C8 7896   0.377   6.706   7.341 -0.1174 -0.6843  0.6252
   74CHL1    H8 7897   0.403   6.814   7.346  1.8205 -1.0960 -0.2104
   74CHL1   C14 7898   0.331   6.658   7.478 -0.1664 -0.2520  0.0441
   74CHL1   H14 7899   0.301   6.551   7.471 -0.6234 -0.0357 -1.4128
   74CHL1   C15 7900   0.209   6.727   7.549 -0.5770  0.2808 -0.4464
   74CHL1  H15A 7901   0.220   6.836   7.528 -0.9934  0.5677  0.7527
   74CHL1  H15B 7902   0.118   6.682   7.503 -2.4223  1.3168  2.0050
   74CHL1   C16 7903   0.228   6.683   7.696  0.1077  0.6523  1.0395
   74CHL1  H16A 7904   0.208   6.775   7.755 -0.4837  1.3862 -0.2935
   74CHL1  H16B 7905   0.144   6.613   7.719  1.0596 -1.0056 -0.3807
   74CHL1   C17 7906   0.368   6.624   7.709 -0.5655  0.1556 -0.3034
   74CHL1   H17 7907   0.346   6.515   7.696 -0.6143 -0.2350  2.7533
   74CHL1   C13 7908   0.438   6.661   7.580  0.5169  0.3164 -0.3921
   74CHL1   C18 7909   0.499   6.799   7.603  0.1898  0.1399 -0.0404
   74CHL1  H18A 7910   0.578   6.804   7.680  0.3425  0.3822 -0.2124
   74CHL1  H18B 7911   0.552   6.840   7.515 -2.2667  3.7451  0.0409
   74CHL1  H18C 7912   0.421   6.876   7.623 -1.0459 -1.2312  0.5481
   74CHL1   C12 7913   0.551   6.565   7.539  0.5551 -0.3817 -0.3229
   74CHL1  H12A 7914   0.635   6.579   7.611 -0.5522 -4.2941  1.8898
   74CHL1  H12B 7915   0.519   6.458   7.544 -2.5308  0.5681  1.2955
   74CHL1   C11 7916   0.604   6.595   7.396 -0.6908 -1.0325 -0.2083
   74CHL1  H11A 7917   0.667   6.687   7.396 -0.4634 -1.1669  1.2044
   74CHL1  H11B 7918   0.674   6.512   7.369 -1.2717 -2.3169  2.1261
   74CHL1    C9 7919   0.490   6.618   7.294 -0.4422 -0.2566 -0.3258
   74CHL1    H9 7920   0.438   6.521   7.282  0.9461 -0.7733 -2.5043
   74CHL1   C10 7921   0.540   6.648   7.150  0.2213  0.8754  0.3277
   74CHL1   C19 7922   0.639   6.768   7.145  0.5131 -0.1651 -0.1846
   74CHL1  H19A 7923   0.611   6.864   7.192 -3.2394 -0.7797 -1.0445
   74CHL1  H19B 7924   0.733   6.738   7.196 -0.1202 -1.5843  0.1533
   74CHL1  H19C 7925   0.658   6.795   7.039 -0.9988 -1.2469 -0.7464
   74CHL1    C1 7926   0.617   6.517   7.094 -0.2913 -1.2302 -0.1875
   74CHL1   H1A 7927   0.709   6.501   7.154  0.3418  0.4479 -0.6784
   74CHL1   H1B 7928   0.554   6.429   7.119 -0.0274 -1.9255 -1.9181
   74CHL1    C2 7929   0.648   6.519   6.946  0.3012  0.1928 -0.2755
   74CHL1   H2A 7930   0.689   6.421   6.914  3.1625  0.6729  1.7898
   74CHL1   H2B 7931   0.723   6.599   6.928  3.7506 -3.1471 -1.1499
   74CHL1   C20 7932   0.426   6.629   7.849 -0.2822  0.1895 -0.0194
   74CHL1   H20 7933   0.535   6.609   7.837  0.0607  1.7072  0.4251
   74CHL1   C21 7934   0.369   6.523   7.942 -0.0480 -0.2719 -0.1271
   74CHL1  H21A 7935   0.360   6.426   7.888  1.8834 -0.5279 -0.0270
   74CHL1  H21B 7936   0.264   6.542   7.974 -0.6683  0.3838 -2.4901
   74CHL1  H21C 7937   0.426   6.505   8.036  3.0472  0.4728 -1.8176
   74CHL1   C22 7938   0.415   6.766   7.927 -0.2339 -0.4314 -0.1468
   74CHL1  H22A 7939   0.442   6.846   7.855  2.1560 -1.4721 -0.4243
   74CHL1  H22B 7940   0.317   6.787   7.976  0.7131 -1.2996  2.1859
   74CHL1   C23 7941   0.510   6.786   8.039  0.1472  0.1797  0.9864
   74CHL1  H23A 7942   0.530   6.691   8.093 -1.1599  0.6541  2.3548
   74CHL1  H23B 7943   0.605   6.821   7.995  0.8204 -1.3547  1.1862
   74CHL1   C24 7944   0.455   6.891   8.141 -0.3147 -0.1161 -0.0391
   74CHL1  H24A 7945   0.431   6.993   8.104  2.2864  0.6145  0.2320
   74CHL1  H24B 7946   0.372   6.846   8.200  2.1361 -2.1001  2.0419
   74CHL1   C25 7947   0.559   6.908   8.258  0.1617 -0.0981  0.6959
   74CHL1   H25 7948   0.508   6.980   8.325  0.7607  2.0380 -1.0642
   74CHL1   C26 7949   0.579   6.778   8.337 -1.1481 -0.7717 -0.4757
   74CHL1  H26A 7950   0.653   6.791   8.419 -1.2338 -0.7287 -0.4053
   74CHL1  H26B 7951   0.480   6.744   8.374 -0.4103 -0.8192  1.4899
   74CHL1  H26C 7952   0.613   6.695   8.271  0.9306 -1.5416  1.5190
   74CHL1   C27 7953   0.691   6.977   8.221  0.8566 -0.9169  0.3041
   74CHL1  H27A 7954   0.754   6.905   8.164  1.8353 -0.2738  0.5704
   74CHL1  H27B 7955   0.673   7.059   8.148  2.0338 -1.1711 -0.2837
   74CHL1  H27C 7956   0.744   7.018   8.309 -0.0716 -2.6210  1.6743
   75CHL1    C3 7957   3.461   0.795   6.773  0.2954  0.6400 -0.7659
   75CHL1    H3 7958   3.415   0.696   6.795  0.7054  0.5871 -0.1344
   75CHL1    O3 7959   3.482   0.798   6.634  0.3101 -0.2906 -0.3701
   75CHL1   H3' 7960   3.513   0.887   6.614  1.6002  0.1430  3.1049
   75CHL1    C4 7961   3.368   0.909   6.816 -0.3647 -0.3870 -0.0824
   75CHL1   H4A 7962   3.423   1.004   6.799 -0.8509 -0.2839 -1.1479
   75CHL1   H4B 7963   3.275   0.898   6.757 -1.0218 -1.0768  1.0493
   75CHL1    C5 7964   3.340   0.894   6.966 -0.1980 -0.2012  0.4009
   75CHL1    C6 7965   3.211   0.878   7.014 -0.5337  0.4935  0.6818
   75CHL1    H6 7966   3.132   0.877   6.937 -1.1258 -2.4552  1.2432
   75CHL1    C7 7967   3.171   0.862   7.154 -0.5810  0.4175 -0.2822
   75CHL1   H7A 7968   3.084   0.929   7.169 -0.2927  0.9626 -0.9984
   75CHL1   H7B 7969   3.129   0.760   7.168  1.4568 -0.6521 -1.5999
   75CHL1    C8 7970   3.289   0.875   7.256  0.6600 -0.0412  0.4843
   75CHL1    H8 7971   3.310   0.982   7.279  1.1504 -0.1753  0.6800
   75CHL1   C14 7972   3.258   0.806   7.390 -0.1860 -0.1313  0.2977
   75CHL1   H14 7973   3.258   0.698   7.368  2.7524 -0.0550 -0.1878
   75CHL1   C15 7974   3.125   0.832   7.457  0.8502  0.5495  0.0221
   75CHL1  H15A 7975   3.105   0.941   7.444 -0.0704  0.4055  0.2083
   75CHL1  H15B 7976   3.040   0.776   7.412 -0.2472  1.0112  1.4862
   75CHL1   C16 7977   3.147   0.785   7.601  0.6013  0.3736 -0.0336
   75CHL1  H16A 7978   3.123   0.878   7.658 -0.2261 -0.7622  1.4922
   75CHL1  H16B 7979   3.079   0.704   7.635 -0.8169  0.5419 -2.3469
   75CHL1   C17 7980   3.304   0.748   7.613  0.4258 -0.2148 -0.2194
   75CHL1   H17 7981   3.314   0.640   7.589 -1.7594 -0.7821  1.2749
   75CHL1   C13 7982   3.369   0.822   7.498  0.1358 -0.1257 -0.6870
   75CHL1   C18 7983   3.394   0.968   7.535  0.5058  0.5051 -0.7436
   75CHL1  H18A 7984   3.418   1.030   7.445 -1.8956 -0.6350 -2.2075
   75CHL1  H18B 7985   3.307   1.018   7.582  0.8899 -1.2086  1.8983
   75CHL1  H18C 7986   3.470   0.973   7.616 -1.0116 -1.7907  0.8954
   75CHL1   C12 7987   3.488   0.748   7.442 -0.0920  0.3159  0.0916
   75CHL1  H12A 7988   3.573   0.762   7.512 -2.0561  0.7707  2.4767
   75CHL1  H12B 7989   3.458   0.641   7.432 -1.6470  0.7863 -0.4123
   75CHL1   C11 7990   3.531   0.808   7.310  0.0690 -0.8251  0.6811
   75CHL1  H11A 7991   3.548   0.915   7.333 -1.6592  0.1370 -2.2486
   75CHL1  H11B 7992   3.628   0.765   7.277  0.9290  1.9378 -0.5320
   75CHL1    C9 7993   3.416   0.808   7.199  0.3942 -0.7781 -0.2463
   75CHL1    H9 7994   3.395   0.700   7.186  1.4265 -1.4594  3.1968
   75CHL1   C10 7995   3.461   0.872   7.061 -0.9525 -0.2599  0.6712
   75CHL1   C19 7996   3.526   1.014   7.069  0.1387 -1.0952  0.0669
   75CHL1  H19A 7997   3.627   1.020   7.116  1.4172 -1.4914 -2.5268
   75CHL1  H19B 7998   3.537   1.052   6.965 -0.3809  0.7412  0.6581
   75CHL1  H19C 7999   3.455   1.086   7.115  0.0083  0.4796 -2.5503
   75CHL1    C1 8000   3.561   0.775   6.993  0.2817 -0.4376  0.0995
   75CHL1   H1A 8001   3.656   0.785   7.050 -0.5667  0.0038  1.4660
   75CHL1   H1B 8002   3.539   0.667   7.006  1.6238 -0.7140  0.1450
   75CHL1    C2 8003   3.593   0.804   6.841  0.5918 -0.7081 -0.3831
   75CHL1   H2A 8004   3.663   0.721   6.819 -0.3173 -1.7286  0.4874
   75CHL1   H2B 8005   3.649   0.899   6.831  0.4622 -0.6740 -0.8019
   75CHL1   C20 8006   3.355   0.778   7.756 -0.0384 -0.0789 -0.0258
   75CHL1   H20 8007   3.350   0.889   7.766 -0.0269  0.0032 -0.9234
   75CHL1   C21 8008   3.504   0.742   7.762  0.2218  0.3076 -0.3449
   75CHL1  H21A 8009   3.545   0.733   7.865  0.7532 -0.3632 -0.6082
   75CHL1  H21B 8010   3.553   0.820   7.701 -1.1340  1.3654 -0.1048
   75CHL1  H21C 8011   3.528   0.646   7.712  2.6261  2.1704 -2.9379
   75CHL1   C22 8012   3.269   0.708   7.868 -0.1719 -0.2799  0.1346
   75CHL1  H22A 8013   3.166   0.747   7.852  0.1548  0.2483 -0.7218
   75CHL1  H22B 8014   3.264   0.597   7.864 -1.9829 -0.2287  0.5820
   75CHL1   C23 8015   3.299   0.765   8.008 -0.2335 -0.0520 -0.4243
   75CHL1  H23A 8016   3.408   0.768   8.030 -0.3028  0.6894 -0.1799
   75CHL1  H23B 8017   3.264   0.869   7.995 -0.6235  0.0812  1.5360
   75CHL1   C24 8018   3.226   0.699   8.122  0.2525  0.1276 -0.4946
   75CHL1  H24A 8019   3.118   0.686   8.103  0.4075  0.3831 -1.5967
   75CHL1  H24B 8020   3.260   0.593   8.123 -1.6241 -0.5449 -3.0251
   75CHL1   C25 8021   3.245   0.764   8.257  0.2335  0.4847  0.5066
   75CHL1   H25 8022   3.230   0.873   8.243 -0.9153  0.1899 -0.7042
   75CHL1   C26 8023   3.142   0.707   8.358  0.7121  0.8525 -0.4239
   75CHL1  H26A 8024   3.169   0.754   8.455 -1.1900  1.1176 -0.0120
   75CHL1  H26B 8025   3.035   0.737   8.348  0.4243 -0.1564 -0.3831
   75CHL1  H26C 8026   3.154   0.600   8.383 -0.1511  0.7766 -0.3314
   75CHL1   C27 8027   3.391   0.754   8.311  0.4035  1.0233  0.2350
   75CHL1  H27A 8028   3.415   0.648   8.334  2.5324  1.2215 -0.9253
   75CHL1  H27B 8029   3.456   0.804   8.236  0.3334  1.5338  0.5161
   75CHL1  H27C 8030   3.398   0.825   8.396  0.4333  0.3030  0.8332
   76CHL1    C3 8031   6.485   2.746   7.226 -0.2100 -0.6308  0.4517
   76CHL1    H3 8032   6.586   2.711   7.254 -0.1517 -0.2695  0.6932
   76CHL1    O3 8033   6.480   2.768   7.084 -1.1160  0.0903 -0.3612
   76CHL1   H3' 8034   6.392   2.800   7.063 -0.8630  0.3966 -0.9693
   76CHL1    C4 8035   6.369   2.659   7.269 -0.2418  0.1333  0.6653
   76CHL1   H4A 8036   6.281   2.702   7.217 -0.0459 -1.3627 -0.9726
   76CHL1   H4B 8037   6.396   2.562   7.221  0.0409 -0.8207  2.6802
   76CHL1    C5 8038   6.352   2.644   7.419 -0.1822 -0.5788  0.3283
   76CHL1    C6 8039   6.345   2.525   7.485  0.3984  0.0989 -0.2671
   76CHL1    H6 8040   6.350   2.432   7.427  0.9773 -1.4429  2.2033
   76CHL1    C7 8041   6.333   2.513   7.639  0.3748  0.0390 -0.7088
   76CHL1   H7A 8042   6.260   2.433   7.663 -0.1661  0.8467  0.3732
   76CHL1   H7B 8043   6.427   2.476   7.686  2.6286  1.4168 -3.9498
   76CHL1    C8 8044   6.294   2.645   7.715  0.7800  0.2997 -0.1163
   76CHL1    H8 8045   6.184   2.647   7.699  0.6290 -0.8944  0.6582
   76CHL1   C14 8046   6.319   2.630   7.860  0.3023  0.0935 -0.2879
   76CHL1   H14 8047   6.428   2.614   7.878 -0.0880 -0.8205  1.3799
   76CHL1   C15 8048   6.257   2.519   7.948 -0.0828 -0.1386  0.3525
   76CHL1  H15A 8049   6.159   2.479   7.915  0.0099  0.7440 -1.0412
   76CHL1  H15B 8050   6.336   2.441   7.944 -0.2366 -0.2617 -0.3297
   76CHL1   C16 8051   6.250   2.576   8.089 -0.1619  0.3075  0.3805
   76CHL1  H16A 8052   6.141   2.579   8.106  0.2781  2.3110  3.2747
   76CHL1  H16B 8053   6.291   2.502   8.161 -1.8918 -0.8389  0.1944
   76CHL1   C17 8054   6.320   2.713   8.085  0.4436 -0.1453 -0.0680
   76CHL1   H17 8055   6.430   2.706   8.080  0.5762  1.5129  0.2144
   76CHL1   C13 8056   6.300   2.758   7.933  0.1725 -0.2793  0.1496
   76CHL1   C18 8057   6.150   2.795   7.906 -0.3337  0.3846 -0.1690
   76CHL1  H18A 8058   6.132   2.893   7.957  0.5433 -1.2487  3.4605
   76CHL1  H18B 8059   6.125   2.814   7.799 -3.7005 -0.2363  0.4313
   76CHL1  H18C 8060   6.079   2.717   7.939 -0.2512  0.9982  1.5046
   76CHL1   C12 8061   6.392   2.874   7.880 -0.5709  0.4580  0.0421
   76CHL1  H12A 8062   6.379   2.970   7.934  2.6535  0.4570  0.9333
   76CHL1  H12B 8063   6.499   2.849   7.892 -0.3358  0.4017 -2.0002
   76CHL1   C11 8064   6.378   2.899   7.727 -0.5815 -0.8878 -0.0885
   76CHL1  H11A 8065   6.290   2.962   7.704 -0.3678  0.3732  2.4090
   76CHL1  H11B 8066   6.462   2.964   7.694 -0.8219 -1.3326 -1.6303
   76CHL1    C9 8067   6.379   2.763   7.649 -0.0821 -0.0081 -0.8503
   76CHL1    H9 8068   6.486   2.735   7.660  0.2906  2.0777  1.2003
   76CHL1   C10 8069   6.344   2.775   7.493 -1.3510 -0.1594 -0.0290
   76CHL1   C19 8070   6.203   2.841   7.473 -0.1717 -0.6408 -0.7786
   76CHL1  H19A 8071   6.118   2.810   7.537  0.2081 -1.4340 -0.6459
   76CHL1  H19B 8072   6.222   2.949   7.490  1.0143 -0.9188 -0.3015
   76CHL1  H19C 8073   6.179   2.837   7.365 -2.4793 -0.1200 -0.3134
   76CHL1    C1 8074   6.456   2.867   7.437 -0.2616 -0.1239  0.3569
   76CHL1   H1A 8075   6.446   2.969   7.480  1.9543 -0.5613  2.0701
   76CHL1   H1B 8076   6.551   2.816   7.465 -1.4269 -2.2543  0.5517
   76CHL1    C2 8077   6.474   2.875   7.294  0.3171 -0.5273  0.2288
   76CHL1   H2A 8078   6.567   2.933   7.276  0.1202 -0.2533  0.0780
   76CHL1   H2B 8079   6.382   2.928   7.260  1.5371  0.1898 -2.0452
   76CHL1   C20 8080   6.282   2.811   8.191  0.1451 -0.6486 -0.5256
   76CHL1   H20 8081   6.271   2.912   8.146  2.0829  0.0836  0.5905
   76CHL1   C21 8082   6.392   2.812   8.298  0.0528  0.3235 -0.0746
   76CHL1  H21A 8083   6.493   2.807   8.251  0.6845  1.9159  1.0737
   76CHL1  H21B 8084   6.389   2.719   8.359  1.3771  0.9764  1.0160
   76CHL1  H21C 8085   6.389   2.906   8.358 -0.8359  1.0168 -1.1792
   76CHL1   C22 8086   6.137   2.790   8.254 -0.7517  0.1985 -0.2714
   76CHL1  H22A 8087   6.057   2.776   8.179 -0.4110 -0.3800 -0.5256
   76CHL1  H22B 8088   6.136   2.697   8.314 -0.7941  1.4578  1.7293
   76CHL1   C23 8089   6.094   2.910   8.333 -0.1271 -0.0822 -0.7437
   76CHL1  H23A 8090   6.160   2.919   8.422 -1.0996 -0.3926  0.0264
   76CHL1  H23B 8091   6.117   3.002   8.276  0.0833  0.3927  0.0957
   76CHL1   C24 8092   5.945   2.899   8.380 -0.3058 -0.0191 -0.5038
   76CHL1  H24A 8093   5.893   2.939   8.290 -1.6530  0.0481  0.2898
   76CHL1  H24B 8094   5.918   2.801   8.425  2.2734  0.1163  1.4369
   76CHL1   C25 8095   5.913   3.004   8.486  0.2233 -0.3418 -0.0469
   76CHL1   H25 8096   5.963   2.982   8.582  0.1130 -1.8572 -0.3307
   76CHL1   C26 8097   5.950   3.142   8.432 -0.5818 -0.0402 -0.5816
   76CHL1  H26A 8098   5.920   3.227   8.497 -0.5634 -1.1470  0.9097
   76CHL1  H26B 8099   6.061   3.149   8.442 -0.7733  3.4675 -0.1313
   76CHL1  H26C 8100   5.903   3.158   8.332 -1.8413  1.2295  0.1974
   76CHL1   C27 8101   5.764   2.995   8.524  0.1749 -0.1702 -0.3029
   76CHL1  H27A 8102   5.689   3.010   8.443  0.3015 -1.1539 -0.6025
   76CHL1  H27B 8103   5.749   2.896   8.572 -0.7487 -0.1405 -0.5162
   76CHL1  H27C 8104   5.752   3.082   8.592  0.5601  1.4057 -2.1816
   77CHL1    C3 8105   0.985   0.818   6.802 -0.3109 -0.6513 -0.6439
   77CHL1    H3 8106   0.877   0.837   6.817  0.2721  1.4613  1.1552
   77CHL1    O3 8107   1.019   0.807   6.662 -0.1628  0.6442  0.0657
   77CHL1   H3' 8108   0.984   0.718   6.652 -0.5797  0.8913 -0.6598
   77CHL1    C4 8109   1.058   0.943   6.858  0.3381 -0.0072  0.6276
   77CHL1   H4A 8110   1.168   0.946   6.843  0.2523 -1.9442 -0.5386
   77CHL1   H4B 8111   1.022   1.034   6.804  0.6781 -0.3074 -0.1191
   77CHL1    C5 8112   1.027   0.961   7.000  0.1097  0.2156  0.0494
   77CHL1    C6 8113   0.969   1.069   7.054 -0.0353 -0.9881 -0.3289
   77CHL1    H6 8114   0.931   1.145   6.985 -0.3256 -0.1057  0.7771
   77CHL1    C7 8115   0.966   1.095   7.202 -0.5350  0.2381  0.3137
   77CHL1   H7A 8116   0.992   1.200   7.228  1.2560 -0.0519 -0.2762
   77CHL1   H7B 8117   0.861   1.087   7.239 -0.0781 -1.4889  1.2907
   77CHL1    C8 8118   1.059   1.000   7.283  0.4417  0.9041  0.6148
   77CHL1    H8 8119   1.162   1.040   7.271  0.4245  0.9787  0.7133
   77CHL1   C14 8120   1.021   1.001   7.433 -0.5628 -0.0102  0.2033
   77CHL1   H14 8121   0.923   0.949   7.425 -1.1435  1.0887  0.0809
   77CHL1   C15 8122   1.003   1.135   7.502 -0.2458 -0.4442  0.0360
   77CHL1  H15A 8123   1.101   1.188   7.503 -0.5266  0.1253 -1.7342
   77CHL1  H15B 8124   0.930   1.204   7.456  0.2662 -0.7511 -1.2407
   77CHL1   C16 8125   0.974   1.089   7.648 -0.5151  0.1512 -1.1097
   77CHL1  H16A 8126   1.015   1.157   7.725 -1.5222 -0.8822  0.3954
   77CHL1  H16B 8127   0.864   1.081   7.663  0.0012 -0.0981  3.1846
   77CHL1   C17 8128   1.027   0.937   7.671 -0.0772 -0.3105  0.4230
   77CHL1   H17 8129   0.927   0.889   7.675 -0.4471  0.4367  0.2805
   77CHL1   C13 8130   1.097   0.908   7.534 -0.0570 -0.3291 -0.5672
   77CHL1   C18 8131   1.249   0.944   7.535  0.3419 -0.3348  0.0395
   77CHL1  H18A 8132   1.314   0.887   7.605  1.4783  0.1114 -0.6256
   77CHL1  H18B 8133   1.295   0.948   7.434  0.1155 -0.9267 -0.0849
   77CHL1  H18C 8134   1.274   1.049   7.563 -0.6323 -0.2778  0.6964
   77CHL1   C12 8135   1.079   0.771   7.474  1.2400  0.8224 -0.5554
   77CHL1  H12A 8136   1.125   0.701   7.547 -1.0141  0.0825  0.2092
   77CHL1  H12B 8137   0.970   0.750   7.482  1.1066  1.4141 -0.7932
   77CHL1   C11 8138   1.126   0.752   7.326  0.0020  0.4112 -1.0369
   77CHL1  H11A 8139   1.236   0.754   7.312 -0.1355  1.0241 -2.1159
   77CHL1  H11B 8140   1.090   0.648   7.309  0.3382  0.0664  0.3113
   77CHL1    C9 8141   1.054   0.856   7.234 -0.4919  0.7948  0.2685
   77CHL1    H9 8142   0.946   0.832   7.236 -0.9718  2.7935  0.0970
   77CHL1   C10 8143   1.089   0.844   7.082 -0.5527 -0.9733 -0.0801
   77CHL1   C19 8144   1.244   0.836   7.072  0.5517 -0.2421 -1.0056
   77CHL1  H19A 8145   1.261   0.729   7.098 -2.1308 -0.7545 -1.2293
   77CHL1  H19B 8146   1.284   0.861   6.971  1.9144  1.4865 -0.0527
   77CHL1  H19C 8147   1.286   0.903   7.150 -0.2130 -2.0483  1.0017
   77CHL1    C1 8148   1.013   0.713   7.031 -0.5389 -0.0160  0.5199
   77CHL1   H1A 8149   1.071   0.632   7.082 -1.0770 -0.4918  0.3774
   77CHL1   H1B 8150   0.910   0.705   7.070 -1.1135 -0.7182 -1.1110
   77CHL1    C2 8151   1.026   0.691   6.879 -0.3463 -0.1932  0.0938
   77CHL1   H2A 8152   0.955   0.606   6.871  0.4211 -1.0336  1.8747
   77CHL1   H2B 8153   1.131   0.661   6.860 -0.3934 -1.0955  1.2072
   77CHL1   C20 8154   1.117   0.920   7.797 -0.2326  0.8033  0.5300
   77CHL1   H20 8155   1.209   0.982   7.791  0.1338  0.1712 -0.5475
   77CHL1   C21 8156   1.166   0.778   7.805  0.4506  0.1770  0.5122
   77CHL1  H21A 8157   1.228   0.748   7.718  1.0652  1.0865  0.6265
   77CHL1  H21B 8158   1.078   0.712   7.824  0.0046  0.4228 -0.6259
   77CHL1  H21C 8159   1.232   0.775   7.895 -1.9996 -0.5086  2.3405
   77CHL1   C22 8160   1.034   0.981   7.918  0.3665 -0.0210 -0.1995
   77CHL1  H22A 8161   1.018   1.090   7.914  0.3851 -0.0416 -0.8070
   77CHL1  H22B 8162   0.931   0.939   7.924  0.4004  0.0251  0.8846
   77CHL1   C23 8163   1.080   0.932   8.055 -0.2186 -0.3610  0.1144
   77CHL1  H23A 8164   1.077   0.822   8.071  0.9503 -0.3617  0.4370
   77CHL1  H23B 8165   1.185   0.969   8.069  0.1617 -0.9117 -1.2546
   77CHL1   C24 8166   0.997   1.002   8.161 -0.3613  0.1297 -0.0945
   77CHL1  H24A 8167   0.987   1.111   8.141 -2.1030  0.5646  2.9661
   77CHL1  H24B 8168   0.896   0.957   8.170 -0.1843 -0.0852  0.8884
   77CHL1   C25 8169   1.062   0.990   8.301 -0.8118  0.5043  0.1304
   77CHL1   H25 8170   1.161   1.039   8.295  0.1703 -1.3720  0.5794
   77CHL1   C26 8171   0.977   1.078   8.397 -1.0032 -0.1272 -0.2909
   77CHL1  H26A 8172   0.873   1.038   8.401 -0.5125 -1.5125 -0.9341
   77CHL1  H26B 8173   1.034   1.081   8.493  0.3398 -1.2789 -1.0326
   77CHL1  H26C 8174   0.975   1.178   8.350  0.8973  0.0564 -0.0341
   77CHL1   C27 8175   1.081   0.842   8.350  0.0183  0.2171 -0.1924
   77CHL1  H27A 8176   1.174   0.795   8.313  0.1952  1.2010 -0.9988
   77CHL1  H27B 8177   1.086   0.848   8.461  0.6602  1.6386 -0.2948
   77CHL1  H27C 8178   0.993   0.779   8.323 -1.6666  0.7596  3.6586
   78CHL1    C3 8179   2.554   2.455   6.763 -0.2365  0.3638 -0.6947
   78CHL1    H3 8180   2.463   2.517   6.780  0.4683  1.5174 -1.0698
   78CHL1    O3 8181   2.600   2.454   6.627 -0.0295  0.4072  0.0520
   78CHL1   H3' 8182   2.681   2.404   6.636 -0.6807 -0.3549  1.9188
   78CHL1    C4 8183   2.664   2.539   6.840  0.4044 -0.1806 -0.7751
   78CHL1   H4A 8184   2.768   2.507   6.819  0.4067 -1.6961  1.3391
   78CHL1   H4B 8185   2.644   2.644   6.809 -0.3534 -0.1707 -0.2895
   78CHL1    C5 8186   2.662   2.521   6.991  0.0642 -0.6988 -0.0055
   78CHL1    C6 8187   2.649   2.631   7.068 -0.4867  0.4467 -0.0299
   78CHL1    H6 8188   2.664   2.726   7.016  1.2830 -0.7182 -1.7187
   78CHL1    C7 8189   2.662   2.637   7.218  0.8494  0.5923  0.2184
   78CHL1   H7A 8190   2.742   2.710   7.246  2.7756 -0.3307 -2.6644
   78CHL1   H7B 8191   2.568   2.676   7.262 -0.6700  0.0114 -2.4308
   78CHL1    C8 8192   2.709   2.497   7.265  0.8656  0.7621 -0.2489
   78CHL1    H8 8193   2.810   2.486   7.220  1.6106  1.1111  1.3018
   78CHL1   C14 8194   2.704   2.492   7.417  0.0616  0.6625  0.3276
   78CHL1   H14 8195   2.600   2.515   7.449  1.0272  1.7426  2.7854
   78CHL1   C15 8196   2.775   2.605   7.496 -0.0799 -0.0065  0.4250
   78CHL1  H15A 8197   2.867   2.637   7.443 -1.8989 -0.3230 -3.0677
   78CHL1  H15B 8198   2.701   2.687   7.511  2.1743  2.1020  0.3541
   78CHL1   C16 8199   2.791   2.539   7.632  0.1629  0.1287 -0.4612
   78CHL1  H16A 8200   2.899   2.535   7.657  0.3257  0.9540 -1.0272
   78CHL1  H16B 8201   2.750   2.601   7.715  2.3281  1.5668 -0.4324
   78CHL1   C17 8202   2.729   2.394   7.633 -0.1122  0.8801  0.4950
   78CHL1   H17 8203   2.622   2.409   7.659 -0.7747 -1.3952 -0.8414
   78CHL1   C13 8204   2.738   2.356   7.484  0.1845 -0.5716  0.2001
   78CHL1   C18 8205   2.885   2.324   7.445  0.4357  0.1009 -0.0006
   78CHL1  H18A 8206   2.915   2.321   7.338 -1.5008  1.3504 -0.6084
   78CHL1  H18B 8207   2.963   2.393   7.484  3.8191 -3.8921  0.6379
   78CHL1  H18C 8208   2.914   2.226   7.489  0.5444  0.3638  0.5245
   78CHL1   C12 8209   2.636   2.251   7.428  0.1846  0.5959  0.3800
   78CHL1  H12A 8210   2.656   2.154   7.477 -0.9604  1.5178  2.7259
   78CHL1  H12B 8211   2.536   2.284   7.463 -0.4484  0.2347 -1.0367
   78CHL1   C11 8212   2.642   2.245   7.275  0.2368  0.1809  1.0327
   78CHL1  H11A 8213   2.740   2.202   7.244 -0.4381 -1.3977  1.0167
   78CHL1  H11B 8214   2.569   2.167   7.247  1.0112 -0.0225 -0.4991
   78CHL1    C9 8215   2.631   2.384   7.199 -0.2265 -0.4528 -0.3767
   78CHL1    H9 8216   2.524   2.410   7.213 -0.9790 -3.6550  0.3847
   78CHL1   C10 8217   2.655   2.378   7.048  0.3213  0.2415  0.3114
   78CHL1   C19 8218   2.775   2.293   7.008  0.3081  0.0120 -0.5022
   78CHL1  H19A 8219   2.745   2.187   7.013 -2.2011  0.7171 -0.3000
   78CHL1  H19B 8220   2.814   2.312   6.905  1.0996 -1.2572 -0.4456
   78CHL1  H19C 8221   2.848   2.321   7.087 -0.1976  0.9002 -0.3438
   78CHL1    C1 8222   2.533   2.311   6.970 -0.2837  0.6373 -0.0511
   78CHL1   H1A 8223   2.542   2.203   6.994  0.1522  0.8900  0.9730
   78CHL1   H1B 8224   2.437   2.346   7.013 -0.3510 -0.2229  0.5148
   78CHL1    C2 8225   2.536   2.311   6.815 -0.9476  0.0317  0.0766
   78CHL1   H2A 8226   2.454   2.266   6.756 -0.1642  0.1927 -1.1638
   78CHL1   H2B 8227   2.635   2.267   6.788  0.0898  1.5663  1.2295
   78CHL1   C20 8228   2.796   2.297   7.730 -1.2809 -0.5921 -0.6668
   78CHL1   H20 8229   2.895   2.270   7.686  0.3817 -0.6786  2.9241
   78CHL1   C21 8230   2.717   2.167   7.738 -0.2429 -0.3776  0.4444
   78CHL1  H21A 8231   2.749   2.115   7.831 -1.6983 -0.6401  0.8064
   78CHL1  H21B 8232   2.736   2.098   7.653 -1.5555  0.1453 -0.2873
   78CHL1  H21C 8233   2.609   2.187   7.756 -1.0647 -2.1325 -2.2739
   78CHL1   C22 8234   2.816   2.354   7.875  0.3088 -0.0059 -0.3282
   78CHL1  H22A 8235   2.873   2.276   7.929 -1.5514 -0.5084  0.9731
   78CHL1  H22B 8236   2.886   2.440   7.869  1.4234 -0.9290 -0.7300
   78CHL1   C23 8237   2.687   2.404   7.954 -0.1189  0.2853 -0.3164
   78CHL1  H23A 8238   2.644   2.494   7.906  1.6555  0.7959 -0.9747
   78CHL1  H23B 8239   2.610   2.325   7.946 -0.9363  1.1485 -1.1392
   78CHL1   C24 8240   2.728   2.446   8.096  0.1848 -0.4888 -0.5322
   78CHL1  H24A 8241   2.766   2.358   8.152 -0.4198 -0.0941  0.4958
   78CHL1  H24B 8242   2.812   2.517   8.082 -2.4282  3.2536  2.0186
   78CHL1   C25 8243   2.622   2.520   8.181 -0.2112 -0.2026 -0.4671
   78CHL1   H25 8244   2.605   2.615   8.126 -0.3323 -0.5782 -1.0788
   78CHL1   C26 8245   2.486   2.449   8.189  0.4894  0.2824  0.9762
   78CHL1  H26A 8246   2.431   2.435   8.094 -2.2835 -2.4209  2.9068
   78CHL1  H26B 8247   2.491   2.348   8.235  3.0754 -0.2696 -0.4462
   78CHL1  H26C 8248   2.427   2.515   8.257  0.7390 -0.3635  1.8252
   78CHL1   C27 8249   2.683   2.554   8.322 -0.6415  0.0298  0.3664
   78CHL1  H27A 8250   2.773   2.618   8.317 -0.3500 -0.5472 -3.0941
   78CHL1  H27B 8251   2.607   2.597   8.390 -1.2480  2.6725 -1.9026
   78CHL1  H27C 8252   2.722   2.459   8.364 -1.0490 -0.9450 -1.3849
   79CHL1    C3 8253   0.863   2.370   7.217 -0.1132  0.3221  1.1139
   79CHL1    H3 8254   0.885   2.264   7.239  0.6379  0.0735 -0.7850
   79CHL1    O3 8255   0.847   2.404   7.082 -0.1415 -0.4977 -0.2407
   79CHL1   H3' 8256   0.871   2.319   7.045  2.8550 -0.8517  2.2822
   79CHL1    C4 8257   0.733   2.418   7.286  0.1347  0.0326  0.3997
   79CHL1   H4A 8258   0.722   2.525   7.259  3.9465  0.0303 -1.5264
   79CHL1   H4B 8259   0.646   2.371   7.237 -0.0573  2.0583 -1.2741
   79CHL1    C5 8260   0.743   2.393   7.432 -0.3964 -0.2542  1.0663
   79CHL1    C6 8261   0.644   2.333   7.493 -0.3437 -0.3782  0.3572
   79CHL1    H6 8262   0.563   2.301   7.426 -0.8804 -2.3669  1.8954
   79CHL1    C7 8263   0.631   2.316   7.642  0.1591 -0.7063  0.1886
   79CHL1   H7A 8264   0.535   2.355   7.682  0.0824 -1.0776  0.3673
   79CHL1   H7B 8265   0.637   2.209   7.671 -2.2253 -1.2088 -1.0617
   79CHL1    C8 8266   0.746   2.383   7.723  0.0534 -0.2463  0.1999
   79CHL1    H8 8267   0.712   2.486   7.747  1.1241  0.4501 -1.2791
   79CHL1   C14 8268   0.758   2.305   7.859 -1.1539 -0.0844  0.2395
   79CHL1   H14 8269   0.804   2.208   7.832 -0.1459  0.7973 -1.3322
   79CHL1   C15 8270   0.631   2.284   7.943 -0.8420 -0.2675 -0.2310
   79CHL1  H15A 8271   0.567   2.375   7.941 -0.7000 -0.1675 -0.2196
   79CHL1  H15B 8272   0.571   2.195   7.915 -0.1896 -1.5524  2.2931
   79CHL1   C16 8273   0.681   2.287   8.094  0.3365  0.2542  0.5353
   79CHL1  H16A 8274   0.624   2.363   8.152  0.9304  0.2893  1.0837
   79CHL1  H16B 8275   0.656   2.194   8.148  0.2157 -0.1244 -0.1727
   79CHL1   C17 8276   0.834   2.309   8.086 -0.1424 -0.5032  0.0859
   79CHL1   H17 8277   0.887   2.213   8.067  2.6262  0.9841  0.0474
   79CHL1   C13 8278   0.856   2.379   7.957 -0.8738  1.1555  1.2492
   79CHL1   C18 8279   0.812   2.521   7.977 -0.2285  0.4204 -0.5021
   79CHL1  H18A 8280   0.702   2.521   7.958 -0.4731  3.4239  0.7135
   79CHL1  H18B 8281   0.836   2.566   8.075  1.1211 -0.1704 -0.5520
   79CHL1  H18C 8282   0.861   2.591   7.906  1.4384  1.4935  1.6795
   79CHL1   C12 8283   1.004   2.369   7.889  0.6052 -0.3142 -0.0997
   79CHL1  H12A 8284   1.072   2.432   7.950 -2.4650  3.8970 -0.7776
   79CHL1  H12B 8285   1.040   2.265   7.875 -0.7758 -1.0122  1.3077
   79CHL1   C11 8286   1.001   2.421   7.737  0.0210 -0.4007 -0.4038
   79CHL1  H11A 8287   0.993   2.531   7.746  0.8040 -0.2501 -1.4260
   79CHL1  H11B 8288   1.097   2.408   7.682  0.4156  1.5786 -0.2001
   79CHL1    C9 8289   0.879   2.379   7.646 -0.0348  0.0150 -0.1046
   79CHL1    H9 8290   0.886   2.269   7.633  0.5567  0.1996 -1.3289
   79CHL1   C10 8291   0.858   2.443   7.510  0.0949 -0.1046  0.4948
   79CHL1   C19 8292   0.862   2.600   7.526  0.5120 -0.8468  0.0213
   79CHL1  H19A 8293   0.966   2.636   7.538  1.3391 -1.8314 -3.6137
   79CHL1  H19B 8294   0.839   2.656   7.433  2.0585  0.4504  0.3943
   79CHL1  H19C 8295   0.797   2.639   7.608 -1.9619  0.2841 -2.3706
   79CHL1    C1 8296   0.992   2.416   7.426 -0.2199 -0.4791  0.1001
   79CHL1   H1A 8297   1.070   2.482   7.469 -2.8993  1.7575  1.6700
   79CHL1   H1B 8298   1.004   2.306   7.439  0.1486 -0.3638  0.7325
   79CHL1    C2 8299   0.980   2.448   7.274 -0.1946 -0.4261 -0.2531
   79CHL1   H2A 8300   1.073   2.408   7.227  0.1595 -1.1889  1.0494
   79CHL1   H2B 8301   0.965   2.556   7.253  0.8528 -0.7594 -2.8525
   79CHL1   C20 8302   0.882   2.352   8.224  0.1860 -0.1507  0.9262
   79CHL1   H20 8303   0.839   2.453   8.242 -0.9844 -0.4671 -0.0419
   79CHL1   C21 8304   1.032   2.367   8.230 -0.5140 -0.2103 -0.0785
   79CHL1  H21A 8305   1.075   2.411   8.323  2.2070 -1.8117 -0.5357
   79CHL1  H21B 8306   1.073   2.436   8.152  0.8750  2.6227  3.0478
   79CHL1  H21C 8307   1.069   2.264   8.211  1.7209  0.6710 -0.6879
   79CHL1   C22 8308   0.839   2.257   8.347  0.3421  0.0412 -0.1152
   79CHL1  H22A 8309   0.730   2.258   8.366  0.9118 -0.3976  3.3449
   79CHL1  H22B 8310   0.880   2.156   8.327 -1.2467 -1.0372  1.8877
   79CHL1   C23 8311   0.920   2.300   8.474 -0.4337  0.8387  0.0381
   79CHL1  H23A 8312   1.022   2.255   8.471 -0.6688  0.3294 -0.3002
   79CHL1  H23B 8313   0.937   2.410   8.469  0.3319  0.6304 -2.7718
   79CHL1   C24 8314   0.851   2.266   8.612  0.0119  0.6571 -0.2856
   79CHL1  H24A 8315   0.769   2.340   8.622 -2.0094 -1.6519  0.9854
   79CHL1  H24B 8316   0.802   2.166   8.616  0.0111  0.5820 -2.0090
   79CHL1   C25 8317   0.943   2.280   8.733 -0.6704  0.1304  0.4109
   79CHL1   H25 8318   1.025   2.211   8.706  0.7390  2.0040 -0.2366
   79CHL1   C26 8319   0.987   2.421   8.755  0.0504 -0.3438  0.4353
   79CHL1  H26A 8320   1.092   2.429   8.790  0.1949  0.7780 -0.2131
   79CHL1  H26B 8321   0.987   2.480   8.661 -1.9991 -1.4746 -0.3204
   79CHL1  H26C 8322   0.924   2.463   8.836  0.9670  1.4382  0.2341
   79CHL1   C27 8323   0.876   2.230   8.867 -0.0253 -0.2481 -0.3342
   79CHL1  H27A 8324   0.947   2.217   8.951 -1.3618 -0.7390  0.7437
   79CHL1  H27B 8325   0.783   2.287   8.887 -0.0770  0.4468 -2.4359
   79CHL1  H27C 8326   0.826   2.134   8.842  0.0450 -0.7595  1.4015
   80CHL1    C3 8327   6.603   0.299   7.147  0.0962  0.1281  0.3312
   80CHL1    H3 8328   6.517   0.242   7.186 -0.0019  1.5651  2.3032
   80CHL1    O3 8329   6.592   0.303   7.005 -0.1552  0.0814 -0.2095
   80CHL1   H3' 8330   6.679   0.330   6.973  1.6675 -3.7885  1.1405
   80CHL1    C4 8331   6.618   0.441   7.200  0.4743  0.2136  0.0656
   80CHL1   H4A 8332   6.712   0.486   7.164  0.3265  0.1187 -0.4494
   80CHL1   H4B 8333   6.535   0.508   7.167 -0.1692  0.1160  1.4717
   80CHL1    C5 8334   6.625   0.435   7.350 -0.0018  0.5950 -0.0964
   80CHL1    C6 8335   6.527   0.485   7.425  0.4787  0.0684 -0.2702
   80CHL1    H6 8336   6.437   0.533   7.382  0.5516 -0.8795 -1.4875
   80CHL1    C7 8337   6.517   0.474   7.574 -0.1197  0.2690 -0.7865
   80CHL1   H7A 8338   6.463   0.561   7.615  0.8736 -0.0569  1.2680
   80CHL1   H7B 8339   6.458   0.384   7.600 -2.0670  1.5623 -0.6228
   80CHL1    C8 8340   6.660   0.466   7.636  0.0979  0.9152 -0.7733
   80CHL1    H8 8341   6.713   0.563   7.623  2.3983  0.0008  1.2528
   80CHL1   C14 8342   6.650   0.438   7.785 -0.4838  0.5085 -0.9443
   80CHL1   H14 8343   6.602   0.339   7.791  1.3534 -0.3281  0.6174
   80CHL1   C15 8344   6.574   0.526   7.875 -0.2455 -0.1532  0.2052
   80CHL1  H15A 8345   6.577   0.628   7.830 -3.0870 -0.4453 -0.7318
   80CHL1  H15B 8346   6.468   0.494   7.877  0.0945 -1.5152 -1.9689
   80CHL1   C16 8347   6.631   0.509   8.016 -0.4923  0.2521 -0.7896
   80CHL1  H16A 8348   6.665   0.610   8.047  0.8625 -0.4273 -0.0164
   80CHL1  H16B 8349   6.544   0.485   8.082  0.6126 -0.5961  0.3770
   80CHL1   C17 8350   6.742   0.402   8.003  0.1773  0.4411  1.1532
   80CHL1   H17 8351   6.696   0.301   7.997 -2.6912  1.7774 -0.2803
   80CHL1   C13 8352   6.789   0.413   7.850  0.6082 -0.0081 -0.5652
   80CHL1   C18 8353   6.881   0.541   7.840 -0.5005 -0.0846  0.4300
   80CHL1  H18A 8354   6.983   0.507   7.868  0.0016  0.8503 -0.2376
   80CHL1  H18B 8355   6.894   0.575   7.735 -0.7121  0.3998  0.5592
   80CHL1  H18C 8356   6.841   0.623   7.904 -1.7450 -1.2704  1.1832
   80CHL1   C12 8357   6.847   0.295   7.784 -0.0626 -0.3714 -0.0881
   80CHL1  H12A 8358   6.943   0.281   7.837  0.5815 -0.2830 -1.2153
   80CHL1  H12B 8359   6.782   0.206   7.801 -0.0219 -0.7550 -1.8239
   80CHL1   C11 8360   6.870   0.320   7.641 -0.5457  0.1482  0.3343
   80CHL1  H11A 8361   6.942   0.404   7.629 -0.2075 -0.4424 -1.8996
   80CHL1  H11B 8362   6.924   0.237   7.591  1.2833  0.2601  2.0688
   80CHL1    C9 8363   6.737   0.353   7.565  0.6010  0.1776  0.0066
   80CHL1    H9 8364   6.667   0.271   7.590  2.6010 -1.9307 -1.1867
   80CHL1   C10 8365   6.746   0.369   7.414 -0.6226 -0.2885  0.5185
   80CHL1   C19 8366   6.870   0.461   7.393 -0.6559  0.0412  0.1369
   80CHL1  H19A 8367   6.877   0.540   7.470 -0.0806 -0.1801  0.3105
   80CHL1  H19B 8368   6.958   0.395   7.406 -0.9903 -0.2312  1.0639
   80CHL1  H19C 8369   6.866   0.517   7.297  1.5641 -1.0374 -0.6040
   80CHL1    C1 8370   6.755   0.230   7.336 -0.7384 -0.4502 -0.0200
   80CHL1   H1A 8371   6.860   0.196   7.345  0.1941  1.9669 -1.3869
   80CHL1   H1B 8372   6.687   0.153   7.380 -0.6727 -0.7716 -0.4772
   80CHL1    C2 8373   6.737   0.225   7.186 -0.0329  0.0515 -0.1719
   80CHL1   H2A 8374   6.733   0.122   7.144  1.3164 -0.6749  1.4184
   80CHL1   H2B 8375   6.822   0.279   7.142  0.1766  0.4346  0.6889
   80CHL1   C20 8376   6.853   0.403   8.112 -0.3833 -0.3639  0.4714
   80CHL1   H20 8377   6.915   0.493   8.097  2.3008 -1.8058  2.5215
   80CHL1   C21 8378   6.945   0.283   8.093  0.0123  0.4231 -0.3798
   80CHL1  H21A 8379   7.029   0.288   8.021 -1.0105 -1.5957 -1.7683
   80CHL1  H21B 8380   6.879   0.196   8.074  1.5426 -0.7429 -0.4681
   80CHL1  H21C 8381   6.993   0.264   8.192  0.1416  0.1375 -0.5002
   80CHL1   C22 8382   6.795   0.408   8.255  0.2775  0.7606 -0.3444
   80CHL1  H22A 8383   6.882   0.393   8.323 -0.2211  0.1003  0.1485
   80CHL1  H22B 8384   6.762   0.513   8.274 -1.7891 -0.4340  3.2197
   80CHL1   C23 8385   6.689   0.312   8.296  0.3070 -0.1211 -0.2091
   80CHL1  H23A 8386   6.587   0.334   8.257 -0.2470  0.3202  1.4434
   80CHL1  H23B 8387   6.716   0.211   8.258  0.0617 -0.3630  0.2559
   80CHL1   C24 8388   6.681   0.297   8.453 -0.7700  0.0508 -0.0649
   80CHL1  H24A 8389   6.776   0.243   8.474 -2.2972 -1.7683  2.4719
   80CHL1  H24B 8390   6.709   0.399   8.486 -3.1743  0.6218  0.3155
   80CHL1   C25 8391   6.544   0.261   8.519  0.5447  0.4671  0.3879
   80CHL1   H25 8392   6.501   0.197   8.440 -0.9552  3.5441 -1.3855
   80CHL1   C26 8393   6.568   0.180   8.658 -0.5408  0.5337  0.9907
   80CHL1  H26A 8394   6.609   0.249   8.734  1.0567  1.0088 -0.2727
   80CHL1  H26B 8395   6.466   0.148   8.688 -0.9319  0.8419  0.0225
   80CHL1  H26C 8396   6.641   0.098   8.641 -2.3486 -0.2682 -3.8063
   80CHL1   C27 8397   6.454   0.383   8.532  0.6641 -0.5514 -0.8303
   80CHL1  H27A 8398   6.351   0.354   8.561  0.9227 -1.0009 -0.3690
   80CHL1  H27B 8399   6.491   0.457   8.606 -1.0718  1.3469 -1.7963
   80CHL1  H27C 8400   6.447   0.438   8.435 -0.6625 -0.7814 -0.8721
   81CHL1    C3 8401   4.172   0.207   6.683 -0.3312 -0.0823 -0.2492
   81CHL1    H3 8402   4.129   0.310   6.688  1.1368  0.7121 -3.0715
   81CHL1    O3 8403   4.174   0.152   6.548  0.8778 -0.0383  0.1634
   81CHL1   H3' 8404   4.092   0.164   6.500  0.8785 -0.3420  0.0867
   81CHL1    C4 8405   4.313   0.206   6.727  0.4474 -0.3787  0.5364
   81CHL1   H4A 8406   4.359   0.108   6.700 -0.5404 -0.2624 -1.6495
   81CHL1   H4B 8407   4.370   0.285   6.673 -0.5674  0.2323  0.3435
   81CHL1    C5 8408   4.325   0.229   6.876  0.2050 -0.5386  0.0674
   81CHL1    C6 8409   4.384   0.339   6.926 -0.0574  0.2698  0.3084
   81CHL1    H6 8410   4.436   0.398   6.849 -0.9327  1.4799  0.6323
   81CHL1    C7 8411   4.403   0.373   7.075  0.1701 -0.1638  0.2856
   81CHL1   H7A 8412   4.511   0.399   7.081  0.2829 -0.6600  0.4278
   81CHL1   H7B 8413   4.335   0.457   7.101  1.7115  0.4375  2.5242
   81CHL1    C8 8414   4.369   0.256   7.166  0.0875  0.2465 -0.0008
   81CHL1    H8 8415   4.452   0.182   7.162  1.2798  1.6369 -1.8290
   81CHL1   C14 8416   4.342   0.312   7.307  0.3399  0.9841  0.2565
   81CHL1   H14 8417   4.264   0.388   7.285 -2.0284 -0.6028  2.7423
   81CHL1   C15 8418   4.459   0.382   7.374  0.0223 -0.3303  0.0136
   81CHL1  H15A 8419   4.550   0.335   7.331  1.1235  1.7261  0.0429
   81CHL1  H15B 8420   4.473   0.490   7.351 -0.2348 -0.1780  0.5652
   81CHL1   C16 8421   4.430   0.376   7.521  0.1639 -0.3804  0.3663
   81CHL1  H16A 8422   4.517   0.333   7.574  0.2939 -0.2618  0.2499
   81CHL1  H16B 8423   4.409   0.479   7.558  1.6915 -0.6720  2.1319
   81CHL1   C17 8424   4.307   0.284   7.536  0.5335  0.2751  0.9482
   81CHL1   H17 8425   4.222   0.356   7.531  0.8649  0.8237  2.7416
   81CHL1   C13 8426   4.311   0.204   7.403 -1.0392 -0.2737 -0.1742
   81CHL1   C18 8427   4.423   0.092   7.413 -0.2933  0.2916  0.4215
   81CHL1  H18A 8428   4.393   0.011   7.482 -0.8844  0.0922 -0.0713
   81CHL1  H18B 8429   4.442   0.039   7.317 -2.1724 -1.9919  1.2826
   81CHL1  H18C 8430   4.516   0.125   7.464 -0.1739  1.9925 -0.8445
   81CHL1   C12 8431   4.184   0.132   7.360 -0.3293  0.7449 -0.4032
   81CHL1  H12A 8432   4.184   0.050   7.435  2.4471 -1.3484 -2.5993
   81CHL1  H12B 8433   4.097   0.201   7.371 -2.1362 -1.7303  1.4293
   81CHL1   C11 8434   4.184   0.082   7.217 -0.7233  0.2282  0.5516
   81CHL1  H11A 8435   4.245  -0.011   7.219 -2.8383 -1.1570  1.5954
   81CHL1  H11B 8436   4.077   0.069   7.191 -0.4028  0.6766 -1.0654
   81CHL1    C9 8437   4.239   0.183   7.116  0.6653 -0.1436 -0.7511
   81CHL1    H9 8438   4.162   0.263   7.115 -0.3684 -1.1387 -2.3824
   81CHL1   C10 8439   4.240   0.134   6.970 -0.7272  0.1915  0.5592
   81CHL1   C19 8440   4.310  -0.001   6.959  0.4456 -0.8834  0.1474
   81CHL1  H19A 8441   4.418   0.010   6.984  0.7529 -0.9519 -1.1354
   81CHL1  H19B 8442   4.269  -0.078   7.027  0.2086 -0.2928  0.6839
   81CHL1  H19C 8443   4.294  -0.037   6.856 -1.0783 -0.9455  0.3913
   81CHL1    C1 8444   4.094   0.126   6.915  0.1613  0.1141  0.3201
   81CHL1   H1A 8445   4.045   0.050   6.979 -4.5956  0.7768 -2.3518
   81CHL1   H1B 8446   4.043   0.222   6.936  1.6812  1.0885 -0.3509
   81CHL1    C2 8447   4.079   0.111   6.758 -0.3144 -0.0051 -0.0978
   81CHL1   H2A 8448   3.970   0.123   6.737  0.1043 -0.4102 -2.6327
   81CHL1   H2B 8449   4.097   0.004   6.736 -1.7416 -0.0718 -1.0311
   81CHL1   C20 8450   4.307   0.219   7.676 -0.4049  0.1494 -0.3954
   81CHL1   H20 8451   4.362   0.123   7.676 -1.9464 -0.7463  0.0693
   81CHL1   C21 8452   4.163   0.188   7.696 -0.1676 -0.4364 -0.0471
   81CHL1  H21A 8453   4.132   0.191   7.803 -2.1143  0.9058 -0.6189
   81CHL1  H21B 8454   4.133   0.090   7.655 -0.8138  0.7080 -2.4027
   81CHL1  H21C 8455   4.092   0.262   7.652 -0.9686  0.3785  2.5187
   81CHL1   C22 8456   4.367   0.316   7.785 -0.4109  0.0789  0.2832
   81CHL1  H22A 8457   4.475   0.336   7.768  0.1112 -0.0708  3.0985
   81CHL1  H22B 8458   4.296   0.401   7.787  0.6130  0.9398  0.2348
   81CHL1   C23 8459   4.360   0.257   7.933 -0.7503  0.4725  0.0804
   81CHL1  H23A 8460   4.257   0.217   7.944 -0.7037  0.3362  0.0239
   81CHL1  H23B 8461   4.414   0.159   7.939 -1.0021  0.3267 -0.0378
   81CHL1   C24 8462   4.397   0.352   8.044  1.0189 -0.0342 -0.1898
   81CHL1  H24A 8463   4.483   0.415   8.013  1.3332 -0.2232  0.2946
   81CHL1  H24B 8464   4.317   0.428   8.050  1.0217 -0.1276  1.1793
   81CHL1   C25 8465   4.439   0.279   8.174 -0.0855  0.2080  0.3545
   81CHL1   H25 8466   4.521   0.214   8.138 -0.4659  1.3357 -2.7056
   81CHL1   C26 8467   4.492   0.380   8.267 -0.0729 -0.3169  0.0990
   81CHL1  H26A 8468   4.580   0.434   8.226 -0.6908  3.1952  3.0899
   81CHL1  H26B 8469   4.413   0.450   8.300  0.0407 -1.0841  2.1124
   81CHL1  H26C 8470   4.528   0.326   8.357  3.0953  1.5756  0.0657
   81CHL1   C27 8471   4.329   0.206   8.256 -0.6864 -0.0432 -0.1589
   81CHL1  H27A 8472   4.377   0.158   8.344  2.5045  0.1123 -1.7464
   81CHL1  H27B 8473   4.249   0.277   8.285 -0.5595 -0.2263  0.6721
   81CHL1  H27C 8474   4.298   0.120   8.194 -0.6729 -0.8212  0.8954
   82CHL1    C3 8475   4.972   1.250   6.999 -0.1350  0.6305  0.2980
   82CHL1    H3 8476   4.926   1.350   7.012 -1.4942  0.1363 -0.5728
   82CHL1    O3 8477   4.987   1.219   6.860  0.2636  0.1928 -0.3918
   82CHL1   H3' 8478   5.021   1.130   6.853 -1.5310 -0.5289 -0.1729
   82CHL1    C4 8479   5.095   1.240   7.090  0.5699  0.5023 -0.6982
   82CHL1   H4A 8480   5.128   1.135   7.075 -0.8555 -0.3212  1.7164
   82CHL1   H4B 8481   5.165   1.319   7.056 -0.0616  1.1766 -0.4285
   82CHL1    C5 8482   5.071   1.269   7.237  0.4258  0.1231  0.0682
   82CHL1    C6 8483   5.128   1.369   7.306  0.3239  0.0880  0.3298
   82CHL1    H6 8484   5.201   1.434   7.256  0.6589 -1.2425 -0.9217
   82CHL1    C7 8485   5.096   1.398   7.451 -0.1109  0.1034  0.6368
   82CHL1   H7A 8486   5.186   1.427   7.510  1.7927 -1.2526 -1.4876
   82CHL1   H7B 8487   5.033   1.489   7.451  0.8881  0.8118  0.3664
   82CHL1    C8 8488   5.031   1.274   7.517 -0.0635  0.4835  0.7563
   82CHL1    H8 8489   5.099   1.187   7.528 -0.1368  0.4041  0.5939
   82CHL1   C14 8490   4.985   1.319   7.654  0.7589  0.0078 -0.3707
   82CHL1   H14 8491   4.914   1.400   7.628 -0.3151 -0.6782  0.3661
   82CHL1   C15 8492   5.085   1.382   7.751 -0.2114  0.6624  0.3399
   82CHL1  H15A 8493   5.164   1.318   7.795 -1.1467 -0.1708  0.8167
   82CHL1  H15B 8494   5.120   1.485   7.726  0.7368 -0.3690 -2.8291
   82CHL1   C16 8495   4.982   1.395   7.873 -0.3556  0.3930  0.1917
   82CHL1  H16A 8496   5.028   1.380   7.973 -0.2049  4.2013  0.7584
   82CHL1  H16B 8497   4.940   1.496   7.858  1.2858  0.8551 -1.5578
   82CHL1   C17 8498   4.866   1.283   7.858  0.5386 -0.0858  0.4740
   82CHL1   H17 8499   4.775   1.341   7.835  2.2755  2.7920  0.6495
   82CHL1   C13 8500   4.896   1.216   7.723 -0.2399 -0.0137 -0.6316
   82CHL1   C18 8501   4.975   1.093   7.761 -0.1170 -0.5544 -0.5426
   82CHL1  H18A 8502   5.054   1.114   7.837 -0.7154  0.1027 -0.1051
   82CHL1  H18B 8503   4.903   1.012   7.784 -0.3742 -0.2149 -0.1725
   82CHL1  H18C 8504   5.029   1.040   7.679  1.5206 -1.7406  1.2340
   82CHL1   C12 8505   4.772   1.181   7.641  0.3453  0.1929  0.2289
   82CHL1  H12A 8506   4.707   1.103   7.688  3.1068 -1.2248  1.8339
   82CHL1  H12B 8507   4.716   1.276   7.631  0.2617 -0.0970 -2.4429
   82CHL1   C11 8508   4.818   1.134   7.500  0.2927  0.3990  0.8209
   82CHL1  H11A 8509   4.860   1.032   7.511 -1.3238 -0.2384  1.2316
   82CHL1  H11B 8510   4.723   1.130   7.442 -0.4083  2.0314  1.8233
   82CHL1    C9 8511   4.911   1.230   7.428 -1.0820 -0.3071 -0.2020
   82CHL1    H9 8512   4.849   1.321   7.415  1.3308  1.3202 -0.5879
   82CHL1   C10 8513   4.960   1.177   7.294 -0.1643  0.2519 -0.2643
   82CHL1   C19 8514   5.023   1.035   7.308 -0.0203  1.0023  0.8475
   82CHL1  H19A 8515   5.125   1.043   7.351  0.2534  1.0032  0.2073
   82CHL1  H19B 8516   4.953   0.966   7.360  1.7093 -1.7505 -0.4001
   82CHL1  H19C 8517   5.037   0.994   7.206 -0.9083  0.5610  0.8940
   82CHL1    C1 8518   4.838   1.184   7.200  1.0226 -0.5126  0.0640
   82CHL1   H1A 8519   4.764   1.105   7.228 -0.3283 -0.0187 -1.9908
   82CHL1   H1B 8520   4.794   1.286   7.195  1.9643 -0.1657 -1.3577
   82CHL1    C2 8521   4.872   1.155   7.056  0.3280  0.3212  0.3486
   82CHL1   H2A 8522   4.776   1.159   7.000  1.0655 -0.5009 -0.9827
   82CHL1   H2B 8523   4.917   1.054   7.050  0.4576  0.3291  1.1682
   82CHL1   C20 8524   4.822   1.203   7.982  0.7568 -0.1889  1.1663
   82CHL1   H20 8525   4.900   1.127   8.004  0.8118  0.0506  1.8286
   82CHL1   C21 8526   4.681   1.148   7.952 -0.1057 -0.2338 -0.3492
   82CHL1  H21A 8527   4.607   1.224   7.921 -0.7575 -0.0898  1.4981
   82CHL1  H21B 8528   4.646   1.106   8.049 -1.2327 -1.1584 -1.1467
   82CHL1  H21C 8529   4.676   1.056   7.889  1.1903 -2.3860  2.5203
   82CHL1   C22 8530   4.818   1.281   8.109  0.2619  0.7300 -0.4495
   82CHL1  H22A 8531   4.792   1.219   8.198 -0.4563  0.8737 -0.5569
   82CHL1  H22B 8532   4.924   1.300   8.137  0.8631 -2.8152 -0.1167
   82CHL1   C23 8533   4.728   1.404   8.127 -0.3186 -0.7300 -0.9248
   82CHL1  H23A 8534   4.738   1.471   8.039  2.8679 -0.4367 -0.3998
   82CHL1  H23B 8535   4.622   1.372   8.131 -0.3212 -0.7167 -0.8842
   82CHL1   C24 8536   4.753   1.482   8.252  0.0897 -0.1313  0.3336
   82CHL1  H24A 8537   4.666   1.548   8.269 -3.2115 -3.7060 -2.0013
   82CHL1  H24B 8538   4.768   1.406   8.331 -3.4748 -0.9827  0.2345
   82CHL1   C25 8539   4.877   1.574   8.256 -0.2201  0.4265 -0.4058
   82CHL1   H25 8540   4.976   1.530   8.232 -0.0113 -0.1706  1.4708
   82CHL1   C26 8541   4.858   1.697   8.160  0.8051 -0.5368 -0.1702
   82CHL1  H26A 8542   4.777   1.768   8.188  0.7718 -0.7831  0.3722
   82CHL1  H26B 8543   4.946   1.761   8.137 -0.8527  0.9440 -2.6399
   82CHL1  H26C 8544   4.811   1.672   8.063  2.4296  2.2219 -1.7449
   82CHL1   C27 8545   4.886   1.636   8.397 -0.1496  0.9785  0.1522
   82CHL1  H27A 8546   4.908   1.562   8.478 -0.1394  0.2308 -0.5252
   82CHL1  H27B 8547   4.982   1.691   8.390  0.7584 -0.6973 -1.0609
   82CHL1  H27C 8548   4.795   1.697   8.415 -2.0864 -1.0587 -2.3148
   83CHL1    C3 8549   1.225   1.996   7.158  0.1960  0.6116  0.2490
   83CHL1    H3 8550   1.215   1.886   7.173  0.7615  0.4137 -0.7479
   83CHL1    O3 8551   1.203   2.010   7.016  0.3499  0.0396 -0.0214
   83CHL1   H3' 8552   1.286   2.043   6.981  0.2130  0.4024 -0.0128
   83CHL1    C4 8553   1.120   2.064   7.253 -0.3005 -0.3340 -0.5480
   83CHL1   H4A 8554   1.103   2.170   7.226 -0.0750 -0.1807 -0.0862
   83CHL1   H4B 8555   1.022   2.019   7.228 -1.1616  1.4969 -0.5738
   83CHL1    C5 8556   1.164   2.059   7.396 -0.3204  0.4333  0.2674
   83CHL1    C6 8557   1.091   1.992   7.489  0.3994  0.1801  0.1895
   83CHL1    H6 8558   0.993   1.956   7.454  0.7014  0.1098 -0.5838
   83CHL1    C7 8559   1.131   1.983   7.638 -0.8281  0.1126 -0.3328
   83CHL1   H7A 8560   1.052   2.026   7.703 -0.2525  0.3588  0.2090
   83CHL1   H7B 8561   1.165   1.880   7.662 -2.2112 -0.0874  0.8479
   83CHL1    C8 8562   1.248   2.070   7.674  0.0887 -0.1775  0.0797
   83CHL1    H8 8563   1.207   2.172   7.692 -0.1792 -0.3728  0.5704
   83CHL1   C14 8564   1.304   2.019   7.799  0.2005 -0.6095 -0.5503
   83CHL1   H14 8565   1.355   1.921   7.783  1.5449 -0.1978  1.0794
   83CHL1   C15 8566   1.204   2.005   7.922 -0.0993 -0.5784 -0.5047
   83CHL1  H15A 8567   1.135   2.092   7.926  0.2577 -0.3640  1.4963
   83CHL1  H15B 8568   1.150   1.907   7.924 -0.5300 -0.3130  1.0104
   83CHL1   C16 8569   1.293   2.013   8.045  0.1661 -0.1933  0.0596
   83CHL1  H16A 8570   1.255   2.105   8.094  1.2455  1.2210 -1.6921
   83CHL1  H16B 8571   1.301   1.927   8.115  0.5338 -3.4880 -3.8500
   83CHL1   C17 8572   1.442   2.042   7.995 -0.2723  0.7372 -0.3749
   83CHL1   H17 8573   1.501   1.948   7.985 -1.6222 -0.1425 -0.2785
   83CHL1   C13 8574   1.420   2.106   7.854 -0.0227  0.1386  0.6610
   83CHL1   C18 8575   1.380   2.255   7.879  0.7854 -0.7534  0.3955
   83CHL1  H18A 8576   1.358   2.302   7.781 -0.9477 -0.1005  1.0883
   83CHL1  H18B 8577   1.304   2.267   7.959 -0.9014 -1.8751 -1.0114
   83CHL1  H18C 8578   1.475   2.305   7.909  1.1244 -0.7606 -0.6341
   83CHL1   C12 8579   1.533   2.089   7.750  0.8821 -0.5356  0.3987
   83CHL1  H12A 8580   1.625   2.142   7.783 -0.6749  0.9201  2.5292
   83CHL1  H12B 8581   1.565   1.983   7.744 -1.3020 -1.3420  2.3585
   83CHL1   C11 8582   1.489   2.135   7.611  0.8404  0.7617 -0.9687
   83CHL1  H11A 8583   1.496   2.246   7.604  0.8426  0.9188  1.0762
   83CHL1  H11B 8584   1.562   2.091   7.541 -0.2857  1.1481 -2.3997
   83CHL1    C9 8585   1.357   2.068   7.569  0.7261  0.1077 -0.0792
   83CHL1    H9 8586   1.381   1.960   7.567 -0.9515 -0.2610 -1.9599
   83CHL1   C10 8587   1.309   2.109   7.428  0.8722 -0.2635 -0.5629
   83CHL1   C19 8588   1.307   2.269   7.417 -0.3023  0.5845  0.1678
   83CHL1  H19A 8589   1.410   2.310   7.421 -0.4315  0.8466  0.8710
   83CHL1  H19B 8590   1.263   2.303   7.321  0.8884  0.8443 -0.2953
   83CHL1  H19C 8591   1.246   2.322   7.493 -1.6484 -0.2978 -0.2876
   83CHL1    C1 8592   1.407   2.045   7.329  0.0340  0.8258  1.0181
   83CHL1   H1A 8593   1.508   2.092   7.336  0.1678  0.6625  0.3019
   83CHL1   H1B 8594   1.418   1.936   7.346 -0.6526  0.3842 -1.2091
   83CHL1    C2 8595   1.368   2.056   7.180 -0.6265  0.6166 -0.1552
   83CHL1   H2A 8596   1.445   1.993   7.130 -2.5667 -2.2022  0.2931
   83CHL1   H2B 8597   1.370   2.159   7.137  2.0849 -0.6314 -3.2583
   83CHL1   C20 8598   1.523   2.118   8.103 -0.3037 -0.0717  0.5555
   83CHL1   H20 8599   1.471   2.216   8.111  0.1582  0.2819 -0.6894
   83CHL1   C21 8600   1.661   2.148   8.043 -0.0042 -0.0471  0.7839
   83CHL1  H21A 8601   1.667   2.207   7.949  1.1750 -0.8042  0.3776
   83CHL1  H21B 8602   1.709   2.048   8.042 -1.5537 -0.8314 -2.0567
   83CHL1  H21C 8603   1.723   2.209   8.112  1.7242 -0.4121 -0.4152
   83CHL1   C22 8604   1.530   2.041   8.240  0.3444 -0.7873 -0.0614
   83CHL1  H22A 8605   1.423   2.026   8.266  0.4966 -2.2744 -0.2536
   83CHL1  H22B 8606   1.581   1.947   8.210 -0.2261 -0.6762 -1.3663
   83CHL1   C23 8607   1.606   2.104   8.351 -0.7840 -0.4115 -0.3286
   83CHL1  H23A 8608   1.615   2.029   8.432 -0.4189  0.7392  0.7130
   83CHL1  H23B 8609   1.712   2.115   8.319 -0.3505 -1.3653  0.7519
   83CHL1   C24 8610   1.557   2.247   8.398  0.1249  0.2562  0.1083
   83CHL1  H24A 8611   1.584   2.321   8.319  1.3256  0.2339  0.4862
   83CHL1  H24B 8612   1.446   2.244   8.408  0.1748 -0.7347  0.3675
   83CHL1   C25 8613   1.619   2.297   8.528  0.0124 -0.6522 -0.3374
   83CHL1   H25 8614   1.587   2.233   8.613 -0.7983  3.0629  2.2958
   83CHL1   C26 8615   1.770   2.310   8.529  0.0771  0.2465 -0.3575
   83CHL1  H26A 8616   1.798   2.373   8.442 -0.2912  3.3591  1.7101
   83CHL1  H26B 8617   1.803   2.374   8.614  0.2973 -0.4790  0.1059
   83CHL1  H26C 8618   1.815   2.208   8.530  1.5256  0.8701 -0.0794
   83CHL1   C27 8619   1.558   2.428   8.565 -0.4780 -0.4163  0.2672
   83CHL1  H27A 8620   1.556   2.487   8.470  0.8961 -0.1502  0.3979
   83CHL1  H27B 8621   1.450   2.429   8.593 -0.4521 -0.7857  0.3718
   83CHL1  H27C 8622   1.620   2.483   8.638  0.0084 -0.5976 -0.0102
   84CHL1    C3 8623   3.385   5.142   7.052  0.1430 -0.2443  0.0208
   84CHL1    H3 8624   3.312   5.225   7.047  1.6649  1.1085 -0.3048
   84CHL1    O3 8625   3.445   5.119   6.924  0.9231 -0.9226  0.4422
   84CHL1   H3' 8626   3.375   5.070   6.879 -0.3201 -1.3944  2.8157
   84CHL1    C4 8627   3.499   5.174   7.145  0.1594 -0.8826 -0.8184
   84CHL1   H4A 8628   3.567   5.088   7.135  2.2076  0.2704  2.4522
   84CHL1   H4B 8629   3.556   5.262   7.106  1.0028  0.4291  3.1059
   84CHL1    C5 8630   3.458   5.196   7.290 -0.7675  0.2715 -0.1461
   84CHL1    C6 8631   3.476   5.312   7.350 -0.4188  0.1933 -0.0158
   84CHL1    H6 8632   3.519   5.394   7.291 -0.9264 -0.2980 -1.0797
   84CHL1    C7 8633   3.444   5.337   7.490 -0.3058 -0.3853 -0.6532
   84CHL1   H7A 8634   3.518   5.403   7.541 -2.5160  0.9339  0.9500
   84CHL1   H7B 8635   3.349   5.395   7.484 -0.8724 -1.0991  0.9572
   84CHL1    C8 8636   3.414   5.210   7.578 -0.2729 -0.5884  0.9394
   84CHL1    H8 8637   3.518   5.178   7.600  0.9737  1.0897 -2.1506
   84CHL1   C14 8638   3.353   5.241   7.711 -0.1071 -0.1023  0.0678
   84CHL1   H14 8639   3.253   5.280   7.684 -0.4986 -0.9325  0.3009
   84CHL1   C15 8640   3.418   5.352   7.800  0.2856  0.1006 -0.2809
   84CHL1  H15A 8641   3.529   5.352   7.799  0.3088 -0.9975  0.5065
   84CHL1  H15B 8642   3.394   5.455   7.765  3.0052 -0.2403 -3.3225
   84CHL1   C16 8643   3.368   5.308   7.947  0.0376 -0.7633  0.3657
   84CHL1  H16A 8644   3.458   5.270   8.000  0.1168  0.2489  0.9591
   84CHL1  H16B 8645   3.326   5.392   8.006  2.3958  0.0670  0.9123
   84CHL1   C17 8646   3.273   5.194   7.920 -0.2307  0.4916  0.4157
   84CHL1   H17 8647   3.180   5.246   7.888 -0.2807  0.5527  0.6607
   84CHL1   C13 8648   3.328   5.122   7.797 -0.0687  0.1963 -0.1632
   84CHL1   C18 8649   3.464   5.049   7.829  0.0828 -0.2704  0.4328
   84CHL1  H18A 8650   3.440   4.962   7.894  0.6756  0.0500  1.1002
   84CHL1  H18B 8651   3.523   5.010   7.744  0.6944  0.8036  0.3546
   84CHL1  H18C 8652   3.542   5.110   7.880  1.0436 -1.2008  0.1041
   84CHL1   C12 8653   3.227   5.024   7.721 -0.1152  0.3470 -0.2216
   84CHL1  H12A 8654   3.213   4.934   7.785 -0.1850  0.8225  0.4314
   84CHL1  H12B 8655   3.128   5.074   7.728 -0.2165  0.1932 -0.5421
   84CHL1   C11 8656   3.280   4.987   7.583  0.3996 -0.0673 -0.2681
   84CHL1  H11A 8657   3.360   4.911   7.593 -1.3715 -1.9693 -0.1306
   84CHL1  H11B 8658   3.197   4.939   7.526 -0.0074 -0.4773  0.6550
   84CHL1    C9 8659   3.327   5.112   7.497  0.5067  0.0475  0.1390
   84CHL1    H9 8660   3.237   5.173   7.476 -0.0833 -0.1942  1.9051
   84CHL1   C10 8661   3.385   5.073   7.353  0.2003 -1.1277 -0.6563
   84CHL1   C19 8662   3.489   4.963   7.378  0.0353 -0.4510  0.3203
   84CHL1  H19A 8663   3.440   4.871   7.415  2.6095 -2.2096 -0.5254
   84CHL1  H19B 8664   3.542   4.934   7.284 -2.2043 -1.8492 -0.5422
   84CHL1  H19C 8665   3.578   4.994   7.437 -0.3212  3.0880 -0.8380
   84CHL1    C1 8666   3.275   5.022   7.259 -0.2005 -0.6912  0.0945
   84CHL1   H1A 8667   3.254   4.916   7.285 -0.8450 -0.1725  1.7345
   84CHL1   H1B 8668   3.191   5.088   7.288 -1.2582 -1.4740 -1.1487
   84CHL1    C2 8669   3.307   5.026   7.108 -0.0070 -0.1490 -0.5105
   84CHL1   H2A 8670   3.214   5.019   7.047  0.1126  0.6034 -0.7770
   84CHL1   H2B 8671   3.363   4.934   7.079 -0.5113 -0.6582  0.1053
   84CHL1   C20 8672   3.233   5.113   8.046 -0.1282  0.6122 -0.5293
   84CHL1   H20 8673   3.195   5.013   8.018 -1.3953  1.2689 -1.1804
   84CHL1   C21 8674   3.115   5.194   8.115 -0.8000  0.1203  0.1656
   84CHL1  H21A 8675   3.080   5.132   8.201 -0.1262  1.6947  1.6137
   84CHL1  H21B 8676   3.039   5.215   8.037  0.4084  1.7117 -0.6142
   84CHL1  H21C 8677   3.152   5.291   8.154 -0.7224 -0.0593  0.5463
   84CHL1   C22 8678   3.345   5.078   8.154  0.2836 -1.0312  0.5590
   84CHL1  H22A 8679   3.444   5.069   8.104  0.2187 -0.1203  0.2445
   84CHL1  H22B 8680   3.349   5.164   8.224 -0.1287  0.3885 -1.1163
   84CHL1   C23 8681   3.323   4.947   8.225 -0.7196  0.2743  0.5875
   84CHL1  H23A 8682   3.233   4.932   8.287  0.2347 -1.9331  1.4840
   84CHL1  H23B 8683   3.323   4.866   8.148 -2.1883  0.7799  0.0437
   84CHL1   C24 8684   3.432   4.898   8.318 -0.3776  1.2349  0.1655
   84CHL1  H24A 8685   3.532   4.886   8.270  0.8752 -0.7968  3.1416
   84CHL1  H24B 8686   3.438   4.981   8.392 -2.3482  0.4675  1.2011
   84CHL1   C25 8687   3.405   4.767   8.392  0.2364 -0.1365  0.2301
   84CHL1   H25 8688   3.308   4.792   8.439  0.3558  0.0372  0.3851
   84CHL1   C26 8689   3.394   4.651   8.293  0.0970  0.5089  0.1735
   84CHL1  H26A 8690   3.298   4.659   8.238 -0.6375  1.4627  1.5412
   84CHL1  H26B 8691   3.473   4.640   8.215 -0.7788  1.8497 -0.9127
   84CHL1  H26C 8692   3.411   4.554   8.346 -1.1110  0.5156  0.5767
   84CHL1   C27 8693   3.516   4.733   8.494  0.2915 -0.5858 -0.1061
   84CHL1  H27A 8694   3.613   4.734   8.439  0.7201 -2.9397  0.5677
   84CHL1  H27B 8695   3.522   4.805   8.579  2.2141  0.6655 -1.2477
   84CHL1  H27C 8696   3.509   4.631   8.535 -1.3260 -0.7243 -0.7151
   85CHL1    C3 8697   2.895   1.861   6.701 -0.4142 -0.1095 -0.3739
   85CHL1    H3 8698   2.843   1.762   6.697  0.7209 -0.7177 -0.4375
   85CHL1    O3 8699   2.912   1.909   6.568 -0.2183  0.4345 -0.5854
   85CHL1   H3' 8700   2.968   1.986   6.572  0.3937 -0.1094  3.5041
   85CHL1    C4 8701   2.810   1.960   6.775 -0.1093 -0.3973  0.0614
   85CHL1   H4A 8702   2.847   2.064   6.766  0.1064 -0.6681 -2.8282
   85CHL1   H4B 8703   2.715   1.966   6.717 -0.1751 -0.6419  0.1446
   85CHL1    C5 8704   2.794   1.913   6.920  0.4379 -0.8848 -0.2654
   85CHL1    C6 8705   2.669   1.902   6.964  0.6047 -0.2049 -0.0058
   85CHL1    H6 8706   2.582   1.930   6.902  1.3347  2.5211  0.1867
   85CHL1    C7 8707   2.637   1.861   7.104  0.4101  0.3103 -0.8379
   85CHL1   H7A 8708   2.553   1.913   7.155 -0.6574 -1.8378 -0.3608
   85CHL1   H7B 8709   2.603   1.755   7.103 -1.6352  0.9342  0.3713
   85CHL1    C8 8710   2.758   1.862   7.203 -0.5277 -0.6029  0.5247
   85CHL1    H8 8711   2.777   1.969   7.222 -1.7265 -0.2166 -0.3804
   85CHL1   C14 8712   2.733   1.787   7.334 -0.3972 -0.3256 -0.1410
   85CHL1   H14 8713   2.717   1.678   7.318  0.5798 -0.9594  2.9909
   85CHL1   C15 8714   2.607   1.836   7.416  0.5287 -0.7327  0.0586
   85CHL1  H15A 8715   2.597   1.946   7.418  0.0889 -0.7722  0.0667
   85CHL1  H15B 8716   2.514   1.783   7.385  0.4016  0.7609 -2.2115
   85CHL1   C16 8717   2.648   1.774   7.555 -0.5688 -0.6315 -0.0649
   85CHL1  H16A 8718   2.616   1.838   7.640 -1.2530 -1.4257  0.2860
   85CHL1  H16B 8719   2.591   1.681   7.574 -0.8369  0.0702  2.7294
   85CHL1   C17 8720   2.801   1.740   7.558 -0.1129 -0.7199 -0.3136
   85CHL1   H17 8721   2.799   1.630   7.541 -0.2604 -0.8858  0.7449
   85CHL1   C13 8722   2.855   1.797   7.426  0.5043  0.8033  0.0715
   85CHL1   C18 8723   2.892   1.948   7.459  0.2834 -0.7069 -0.3994
   85CHL1  H18A 8724   2.798   2.003   7.478  1.5390  0.7356  1.9494
   85CHL1  H18B 8725   2.971   1.962   7.536 -0.4529 -3.0318  0.8402
   85CHL1  H18C 8726   2.941   1.985   7.366  0.5482  1.3297  0.5305
   85CHL1   C12 8727   2.979   1.717   7.367  0.1703 -1.0205 -0.7095
   85CHL1  H12A 8728   3.073   1.725   7.425 -1.1060 -2.1747  1.5821
   85CHL1  H12B 8729   2.966   1.606   7.362 -1.3514 -1.0482  2.6469
   85CHL1   C11 8730   3.008   1.780   7.227 -0.5096 -0.0096 -0.2013
   85CHL1  H11A 8731   3.057   1.877   7.246  3.3944 -1.1907 -3.5421
   85CHL1  H11B 8732   3.079   1.707   7.182 -0.2558  0.9512 -1.3780
   85CHL1    C9 8733   2.885   1.798   7.133  0.0479 -0.3219 -0.6618
   85CHL1    H9 8734   2.867   1.690   7.114 -3.9070  0.2038 -0.4329
   85CHL1   C10 8735   2.921   1.871   6.995  0.0329  0.3984 -0.3748
   85CHL1   C19 8736   2.997   2.001   7.027  0.0062 -0.4365  0.0173
   85CHL1  H19A 8737   3.103   1.979   7.052  0.5049  1.3304 -0.4590
   85CHL1  H19B 8738   3.004   2.074   6.943 -2.8444  0.8137  0.8118
   85CHL1  H19C 8739   2.954   2.057   7.113  2.2071 -1.0197  1.5391
   85CHL1    C1 8740   3.009   1.779   6.900 -0.1957  0.5508 -0.1699
   85CHL1   H1A 8741   3.101   1.770   6.962 -0.3696  2.5228  0.4086
   85CHL1   H1B 8742   2.956   1.682   6.887 -1.1424  1.0933 -0.4381
   85CHL1    C2 8743   3.031   1.835   6.762  0.5706  0.0951  0.1271
   85CHL1   H2A 8744   3.087   1.763   6.698  0.9776 -1.2270  1.9208
   85CHL1   H2B 8745   3.079   1.935   6.763 -1.2888  1.0373 -1.4959
   85CHL1   C20 8746   2.861   1.753   7.696  0.4945  0.2497  0.6566
   85CHL1   H20 8747   2.877   1.860   7.723 -0.7681  0.9588 -1.3787
   85CHL1   C21 8748   3.008   1.691   7.694  0.6019  0.9650 -0.7860
   85CHL1  H21A 8749   3.079   1.758   7.641 -0.2784  2.8853  0.3963
   85CHL1  H21B 8750   3.004   1.586   7.659 -1.7692 -0.4118  3.2728
   85CHL1  H21C 8751   3.047   1.673   7.796  0.9838  1.9776 -0.7499
   85CHL1   C22 8752   2.786   1.674   7.814  0.3775 -0.4543 -0.1506
   85CHL1  H22A 8753   2.827   1.726   7.903  0.2847 -0.6531  0.0088
   85CHL1  H22B 8754   2.677   1.695   7.817  0.3367 -0.7627  0.8293
   85CHL1   C23 8755   2.808   1.522   7.830  0.1445 -0.0583  0.0071
   85CHL1  H23A 8756   2.773   1.467   7.740 -0.8926  0.8649 -0.1646
   85CHL1  H23B 8757   2.914   1.499   7.857  0.4011  2.2050  1.0372
   85CHL1   C24 8758   2.728   1.470   7.952 -0.6752  0.1262  0.0366
   85CHL1  H24A 8759   2.763   1.535   8.035  2.6104 -1.8100  0.2616
   85CHL1  H24B 8760   2.619   1.486   7.934 -1.0914 -2.6429 -0.2186
   85CHL1   C25 8761   2.763   1.325   7.985  0.7825  0.6424  0.0174
   85CHL1   H25 8762   2.772   1.274   7.887  0.0308  1.0129 -0.2460
   85CHL1   C26 8763   2.895   1.310   8.061  0.0689  0.4517 -0.4151
   85CHL1  H26A 8764   2.938   1.211   8.034  0.3506  0.4904 -0.1097
   85CHL1  H26B 8765   2.970   1.386   8.030  1.7381 -1.1345 -0.3158
   85CHL1  H26C 8766   2.868   1.321   8.168  3.1178  3.5381  0.1161
   85CHL1   C27 8767   2.648   1.250   8.056  0.1202 -0.4154 -0.0726
   85CHL1  H27A 8768   2.683   1.149   8.085  2.1134  0.5543  1.0681
   85CHL1  H27B 8769   2.616   1.302   8.149 -0.5377 -1.8553  0.5203
   85CHL1  H27C 8770   2.556   1.238   7.996 -0.2684  3.3236 -0.3540
   86CHL1    C3 8771   5.965   6.673   6.948  0.0254  0.1848 -0.7376
   86CHL1    H3 8772   6.074   6.691   6.952  0.4037 -2.2873  0.3682
   86CHL1    O3 8773   5.934   6.657   6.808  0.0492  0.2747  0.0156
   86CHL1   H3' 8774   5.864   6.591   6.801  0.3252  0.1336 -1.7312
   86CHL1    C4 8775   5.929   6.545   7.020  0.1690 -0.7213  0.1839
   86CHL1   H4A 8776   5.824   6.512   7.008 -0.2134  0.5542 -0.0765
   86CHL1   H4B 8777   5.990   6.462   6.979 -1.2716 -2.0215  0.6249
   86CHL1    C5 8778   5.963   6.570   7.161  0.7234 -0.9150  0.2351
   86CHL1    C6 8779   6.040   6.487   7.232  0.0479 -0.0806  0.1723
   86CHL1    H6 8780   6.086   6.408   7.170  1.8789  0.5938  0.6266
   86CHL1    C7 8781   6.077   6.491   7.379  0.7581 -0.1424 -0.2260
   86CHL1   H7A 8782   6.088   6.387   7.418 -2.4947 -0.9824 -1.3769
   86CHL1   H7B 8783   6.179   6.532   7.395  0.1824  1.3405 -0.2562
   86CHL1    C8 8784   5.976   6.572   7.456  0.1675 -0.5979  0.5799
   86CHL1    H8 8785   5.885   6.510   7.469  0.6165 -1.7470 -1.6382
   86CHL1   C14 8786   6.034   6.604   7.594 -0.1591 -0.9731 -0.8026
   86CHL1   H14 8787   6.126   6.662   7.574 -0.5472 -0.4228 -1.0185
   86CHL1   C15 8788   6.066   6.480   7.687 -0.7933  0.2142  0.4326
   86CHL1  H15A 8789   5.981   6.409   7.680  0.3212 -1.1483  0.4697
   86CHL1  H15B 8790   6.161   6.425   7.670 -1.1264  0.0612 -0.9507
   86CHL1   C16 8791   6.067   6.539   7.822  0.0368 -1.1250 -0.0959
   86CHL1  H16A 8792   6.003   6.478   7.888  1.9457 -0.7498  2.1969
   86CHL1  H16B 8793   6.163   6.538   7.879 -0.1726  0.0332  0.3047
   86CHL1   C17 8794   6.017   6.688   7.813 -0.5561 -0.1243  0.1572
   86CHL1   H17 8795   6.115   6.740   7.810  1.1215 -3.1116  0.5206
   86CHL1   C13 8796   5.945   6.694   7.674 -0.1735  0.6436 -0.0605
   86CHL1   C18 8797   5.804   6.632   7.702  0.1440 -0.2736 -0.3644
   86CHL1  H18A 8798   5.805   6.552   7.779 -2.2639 -1.1884 -1.2175
   86CHL1  H18B 8799   5.737   6.711   7.743  0.4992  0.2508 -0.7924
   86CHL1  H18C 8800   5.757   6.591   7.610  1.5534  1.2066 -1.7846
   86CHL1   C12 8801   5.937   6.825   7.607  0.1051 -0.0710  1.0368
   86CHL1  H12A 8802   5.865   6.893   7.655 -0.9139 -0.2675 -0.1909
   86CHL1  H12B 8803   6.039   6.869   7.609  0.9049 -1.8565  0.8908
   86CHL1   C11 8804   5.868   6.809   7.469 -0.3590  0.0504 -0.4126
   86CHL1  H11A 8805   5.766   6.765   7.479 -0.6087  0.7657  0.2621
   86CHL1  H11B 8806   5.869   6.907   7.416 -1.7238 -0.3867 -1.2860
   86CHL1    C9 8807   5.950   6.707   7.384 -0.3312 -0.0902 -0.3926
   86CHL1    H9 8808   6.051   6.754   7.377  1.2797 -3.4518 -0.8827
   86CHL1   C10 8809   5.892   6.689   7.233 -0.2148 -0.4713  0.0127
   86CHL1   C19 8810   5.741   6.659   7.240  0.2155  0.0439  0.1952
   86CHL1  H19A 8811   5.721   6.564   7.294  1.1007 -0.7405 -0.8268
   86CHL1  H19B 8812   5.684   6.747   7.276  2.0046  0.5763  1.8389
   86CHL1  H19C 8813   5.700   6.644   7.138 -0.7269  3.1358  0.0829
   86CHL1    C1 8814   5.912   6.815   7.142  0.5168 -0.2377 -0.0333
   86CHL1   H1A 8815   5.859   6.904   7.180 -0.9126 -1.8590  1.8756
   86CHL1   H1B 8816   6.017   6.851   7.150  0.4361 -0.2439  1.1098
   86CHL1    C2 8817   5.888   6.797   6.997  0.8293  0.3006  0.0371
   86CHL1   H2A 8818   5.883   6.895   6.945  0.4882  0.8202  1.0280
   86CHL1   H2B 8819   5.782   6.765   6.984  1.1495 -0.5516 -0.5693
   86CHL1   C20 8820   5.944   6.740   7.942 -1.0202 -0.5965  0.2370
   86CHL1   H20 8821   5.851   6.679   7.955 -0.4736 -1.6683 -0.7937
   86CHL1   C21 8822   5.892   6.887   7.927  0.0761 -0.4314 -0.2758
   86CHL1  H21A 8823   5.960   6.950   7.868 -0.4514  0.8982  0.5153
   86CHL1  H21B 8824   5.879   6.903   8.036 -1.4830 -2.4922 -0.1134
   86CHL1  H21C 8825   5.791   6.885   7.881  0.0914 -1.8256 -0.2786
   86CHL1   C22 8826   6.025   6.725   8.073 -0.1349 -0.0475  0.4564
   86CHL1  H22A 8827   6.100   6.642   8.072  1.4894  1.3550  1.8713
   86CHL1  H22B 8828   6.096   6.810   8.072 -0.7588  0.5039 -2.7442
   86CHL1   C23 8829   5.937   6.705   8.195 -1.0479  0.4492 -0.7119
   86CHL1  H23A 8830   5.883   6.797   8.229  0.4535  0.6535  1.1973
   86CHL1  H23B 8831   5.854   6.635   8.172 -3.6782  3.5183 -0.9952
   86CHL1   C24 8832   6.012   6.648   8.320 -0.6830 -0.0845 -0.3311
   86CHL1  H24A 8833   6.059   6.556   8.279 -1.5058 -0.3963 -0.5674
   86CHL1  H24B 8834   6.092   6.724   8.337 -0.0078 -0.6394 -0.9531
   86CHL1   C25 8835   5.938   6.597   8.438  0.1284  0.3498 -0.4708
   86CHL1   H25 8836   5.871   6.677   8.475 -0.5993 -0.9945  1.1967
   86CHL1   C26 8837   5.832   6.483   8.408 -0.7300 -1.2692  0.2170
   86CHL1  H26A 8838   5.880   6.393   8.365  1.5984 -0.9566  2.0266
   86CHL1  H26B 8839   5.781   6.454   8.502 -1.3436 -1.8862 -0.2982
   86CHL1  H26C 8840   5.762   6.527   8.334  2.0705 -0.5101 -2.1039
   86CHL1   C27 8841   6.026   6.551   8.556 -0.2784 -0.6013 -0.5771
   86CHL1  H27A 8842   6.095   6.638   8.571  1.8954 -2.1464 -1.3750
   86CHL1  H27B 8843   5.971   6.543   8.652 -0.5783  2.2415 -0.4447
   86CHL1  H27C 8844   6.086   6.463   8.526 -0.7447 -0.3839 -2.2005
   87CHL1    C3 8845   5.156   5.426   7.198  0.2930 -0.1717  0.1340
   87CHL1    H3 8846   5.181   5.534   7.199 -1.4399  0.2603  2.5005
   87CHL1    O3 8847   5.149   5.373   7.065 -0.1304 -0.1654 -0.1415
   87CHL1   H3' 8848   5.137   5.278   7.075 -1.3996 -0.1390 -1.2198
   87CHL1    C4 8849   5.254   5.336   7.281  0.3989 -0.1204  0.1651
   87CHL1   H4A 8850   5.211   5.235   7.267  0.0347 -0.5161  3.7333
   87CHL1   H4B 8851   5.350   5.348   7.226  0.1873  0.8089 -0.0114
   87CHL1    C5 8852   5.262   5.375   7.426  0.2544 -0.5359  0.1249
   87CHL1    C6 8853   5.377   5.412   7.485  0.5223 -0.2646 -0.2405
   87CHL1    H6 8854   5.473   5.395   7.434 -0.0999 -3.4369 -0.4103
   87CHL1    C7 8855   5.383   5.450   7.628  0.3323 -0.5012  0.3989
   87CHL1   H7A 8856   5.468   5.393   7.672  1.2817  0.7316  0.1728
   87CHL1   H7B 8857   5.410   5.557   7.639 -2.4344  0.3976 -1.0560
   87CHL1    C8 8858   5.258   5.423   7.712  0.1312  0.1457  0.3170
   87CHL1    H8 8859   5.257   5.314   7.734  1.0672  0.0455 -0.1306
   87CHL1   C14 8860   5.265   5.478   7.853 -0.4699 -0.8634 -0.4728
   87CHL1   H14 8861   5.276   5.587   7.840 -1.4427 -0.9974 -2.5139
   87CHL1   C15 8862   5.383   5.439   7.943 -0.3665  0.7542 -0.5242
   87CHL1  H15A 8863   5.414   5.334   7.924  1.2687  0.7888  1.7180
   87CHL1  H15B 8864   5.474   5.499   7.919 -1.0158  1.9470 -0.0447
   87CHL1   C16 8865   5.325   5.458   8.083  0.0376 -0.6889  0.0688
   87CHL1  H16A 8866   5.337   5.364   8.140  1.9645  0.1186  1.0607
   87CHL1  H16B 8867   5.389   5.529   8.139 -0.8722 -0.4991  0.8810
   87CHL1   C17 8868   5.177   5.505   8.076  0.5744  0.2611  0.4253
   87CHL1   H17 8869   5.183   5.616   8.078  1.6794  0.2382 -0.9955
   87CHL1   C13 8870   5.136   5.454   7.933  0.7635 -0.2767  0.1049
   87CHL1   C18 8871   5.097   5.306   7.942 -0.0085 -0.5548 -0.1936
   87CHL1  H18A 8872   5.091   5.248   7.847 -0.6061 -1.0260  0.1263
   87CHL1  H18B 8873   5.169   5.255   8.009  0.3552  0.2156  0.0101
   87CHL1  H18C 8874   4.991   5.296   7.974 -0.3915  0.3394 -1.1575
   87CHL1   C12 8875   5.026   5.533   7.854 -1.0927 -0.4451 -0.2592
   87CHL1  H12A 8876   4.930   5.517   7.908 -0.3111 -0.5806  1.1147
   87CHL1  H12B 8877   5.059   5.639   7.860  0.5083 -0.9764  0.7416
   87CHL1   C11 8878   5.000   5.471   7.713 -0.5301 -0.7733  0.1366
   87CHL1  H11A 8879   4.959   5.369   7.726 -0.7419 -0.7941 -0.6548
   87CHL1  H11B 8880   4.918   5.527   7.662  2.4644  2.8589 -0.8654
   87CHL1    C9 8881   5.136   5.463   7.631  0.0292  0.3264 -0.0616
   87CHL1    H9 8882   5.161   5.568   7.606  1.2226  0.3290  1.0620
   87CHL1   C10 8883   5.125   5.380   7.498 -0.0183 -0.7098 -0.4158
   87CHL1   C19 8884   5.078   5.233   7.517  0.1884 -0.4559 -0.7069
   87CHL1  H19A 8885   4.971   5.225   7.545 -0.6371  2.1434 -2.9944
   87CHL1  H19B 8886   5.078   5.162   7.432 -0.6471 -0.7767 -0.4451
   87CHL1  H19C 8887   5.146   5.184   7.591 -0.2181  0.2409  0.1438
   87CHL1    C1 8888   5.029   5.453   7.402 -0.8758  0.8695 -0.3701
   87CHL1   H1A 8889   4.925   5.461   7.441 -0.7204  3.3122 -0.3439
   87CHL1   H1B 8890   5.050   5.562   7.390 -0.2462  0.7890  0.0239
   87CHL1    C2 8891   5.019   5.391   7.261  0.0998  0.1128 -0.1593
   87CHL1   H2A 8892   4.937   5.430   7.197 -0.8202 -0.3024  0.7507
   87CHL1   H2B 8893   5.007   5.281   7.269  0.8850  0.1037  1.0068
   87CHL1   C20 8894   5.092   5.454   8.196 -0.3069 -0.0281  0.2616
   87CHL1   H20 8895   5.066   5.347   8.185 -4.3381  0.9602 -0.4637
   87CHL1   C21 8896   4.960   5.540   8.195  0.1299 -0.0210  0.3632
   87CHL1  H21A 8897   4.892   5.505   8.114  1.7130 -0.5373 -0.7564
   87CHL1  H21B 8898   4.973   5.649   8.177 -0.5782 -0.0978 -0.7080
   87CHL1  H21C 8899   4.894   5.527   8.283 -2.2013  0.3892 -1.2581
   87CHL1   C22 8900   5.159   5.477   8.333  0.1567  0.8800  0.0716
   87CHL1  H22A 8901   5.261   5.432   8.343 -0.3064 -0.3515 -0.7389
   87CHL1  H22B 8902   5.178   5.586   8.347 -0.8066  1.0672 -0.0921
   87CHL1   C23 8903   5.075   5.456   8.461 -0.0558 -0.5229 -0.2317
   87CHL1  H23A 8904   5.004   5.540   8.474 -2.2296 -2.5746  1.6862
   87CHL1  H23B 8905   5.017   5.363   8.443 -0.5770 -0.5381  1.4978
   87CHL1   C24 8906   5.159   5.455   8.590  0.4993 -0.2502 -0.5736
   87CHL1  H24A 8907   5.244   5.383   8.582  1.5308  0.9171 -0.4044
   87CHL1  H24B 8908   5.202   5.554   8.615  1.2215 -0.1496 -2.1530
   87CHL1   C25 8909   5.091   5.405   8.726 -0.4158 -0.0852  0.4235
   87CHL1   H25 8910   4.998   5.467   8.723  0.1527  0.7218 -0.7234
   87CHL1   C26 8911   5.035   5.265   8.743 -0.1292 -0.0338  0.2756
   87CHL1  H26A 8912   4.981   5.228   8.654  0.5297 -1.1529  0.3341
   87CHL1  H26B 8913   5.126   5.203   8.759  0.0285  0.3963  1.0865
   87CHL1  H26C 8914   4.963   5.260   8.828  0.4346  1.0144  0.8133
   87CHL1   C27 8915   5.175   5.456   8.847 -0.6518 -0.1260 -0.2771
   87CHL1  H27A 8916   5.116   5.467   8.940 -0.5121  0.0459 -0.2114
   87CHL1  H27B 8917   5.258   5.385   8.869  0.3908  0.5713 -1.8362
   87CHL1  H27C 8918   5.213   5.557   8.822  1.2600 -0.4509  1.2301
   88CHL1    C3 8919   2.981   2.921   6.783  0.5038  0.5079  0.6486
   88CHL1    H3 8920   3.084   2.892   6.814  0.7636 -2.1997 -2.4694
   88CHL1    O3 8921   2.959   2.866   6.655  0.1329  0.1713  0.6879
   88CHL1   H3' 8922   2.867   2.883   6.635  0.2910 -0.2724 -0.4666
   88CHL1    C4 8923   2.883   2.864   6.881 -0.1315  0.4861  0.0329
   88CHL1   H4A 8924   2.775   2.877   6.857 -0.1492  0.1370 -0.0807
   88CHL1   H4B 8925   2.899   2.755   6.866  1.9474  0.7691  0.0499
   88CHL1    C5 8926   2.910   2.918   7.022  0.0718 -0.1857  0.0396
   88CHL1    C6 8927   2.944   2.842   7.129  0.5248  0.0484 -0.3441
   88CHL1    H6 8928   2.947   2.732   7.118 -1.4188  0.0033 -0.6847
   88CHL1    C7 8929   2.967   2.896   7.265 -0.4840  0.0849  0.3725
   88CHL1   H7A 8930   2.917   2.841   7.347  0.2965 -0.6304  0.3713
   88CHL1   H7B 8931   3.078   2.891   7.275 -0.4512 -0.9813 -0.4935
   88CHL1    C8 8932   2.921   3.048   7.272 -0.0072  0.1834  0.1188
   88CHL1    H8 8933   2.810   3.045   7.273 -0.0648  2.1792  0.5291
   88CHL1   C14 8934   2.984   3.106   7.397 -0.5304 -0.3217  0.6091
   88CHL1   H14 8935   3.094   3.102   7.388 -0.4579 -1.9553  2.1215
   88CHL1   C15 8936   2.952   3.029   7.528 -0.0088  0.2724 -0.5296
   88CHL1  H15A 8937   2.845   3.000   7.535  0.2933 -1.0356 -1.1141
   88CHL1  H15B 8938   3.005   2.932   7.543  0.3228  0.1311 -2.5478
   88CHL1   C16 8939   2.984   3.125   7.641 -0.3426  0.0755 -0.2078
   88CHL1  H16A 8940   2.905   3.141   7.717 -1.3786  1.4319 -1.5302
   88CHL1  H16B 8941   3.084   3.101   7.684  0.1129  1.9232 -0.1854
   88CHL1   C17 8942   3.014   3.262   7.566  0.0935 -0.0634 -0.5643
   88CHL1   H17 8943   3.122   3.277   7.545  0.3901  2.0026  2.1636
   88CHL1   C13 8944   2.953   3.249   7.421  0.1667 -0.0483 -0.4891
   88CHL1   C18 8945   2.797   3.283   7.438  0.1417 -0.5876  0.1843
   88CHL1  H18A 8946   2.744   3.240   7.350 -0.3237  0.7114 -0.1839
   88CHL1  H18B 8947   2.765   3.254   7.540 -0.2870 -1.3608 -0.1654
   88CHL1  H18C 8948   2.779   3.391   7.425  2.3335 -0.1242  0.7883
   88CHL1   C12 8949   3.010   3.336   7.308 -0.0874 -0.0221  0.5313
   88CHL1  H12A 8950   2.991   3.443   7.329  4.5013  0.5388  2.2841
   88CHL1  H12B 8951   3.117   3.318   7.285 -0.4873  0.6543 -2.0823
   88CHL1   C11 8952   2.947   3.294   7.169  0.2885 -0.0647  0.6235
   88CHL1  H11A 8953   2.841   3.329   7.176 -0.4400 -1.9169 -0.7356
   88CHL1  H11B 8954   3.000   3.356   7.094 -1.7091  0.2080 -0.6146
   88CHL1    C9 8955   2.962   3.134   7.150 -0.3685 -0.2860 -0.3153
   88CHL1    H9 8956   3.072   3.127   7.146  0.2958  5.8604  2.2566
   88CHL1   C10 8957   2.907   3.075   7.018  1.5851  0.9444  0.2336
   88CHL1   C19 8958   2.762   3.120   7.012 -0.5286  0.1733 -0.1777
   88CHL1  H19A 8959   2.721   3.080   6.917 -1.9038 -1.0969  0.9273
   88CHL1  H19B 8960   2.697   3.081   7.093  0.0667  1.3755  0.8816
   88CHL1  H19C 8961   2.760   3.231   7.002 -1.1419  0.1439 -0.4018
   88CHL1    C1 8962   2.980   3.148   6.900  0.5619 -0.3841 -0.6204
   88CHL1   H1A 8963   2.934   3.246   6.879 -1.1927 -0.4593  2.6033
   88CHL1   H1B 8964   3.091   3.143   6.909  0.6591 -1.5775 -2.1215
   88CHL1    C2 8965   2.959   3.070   6.777 -0.0713 -0.4973  0.4984
   88CHL1   H2A 8966   3.016   3.115   6.692 -1.0016 -0.1434  0.0619
   88CHL1   H2B 8967   2.851   3.083   6.754  0.2469  2.8901  0.6402
   88CHL1   C20 8968   2.971   3.383   7.654 -0.1403 -0.5558  0.0448
   88CHL1   H20 8969   2.861   3.391   7.668 -0.0593 -1.8662  1.5141
   88CHL1   C21 8970   3.028   3.512   7.586 -0.1561  0.6515  0.1493
   88CHL1  H21A 8971   3.031   3.592   7.663 -1.6261  1.3945 -0.5392
   88CHL1  H21B 8972   2.966   3.539   7.498 -0.9793  2.0435  1.1304
   88CHL1  H21C 8973   3.137   3.504   7.567 -0.0127  2.2563  0.2044
   88CHL1   C22 8974   3.019   3.371   7.794 -0.3014  0.1012  0.4802
   88CHL1  H22A 8975   2.992   3.275   7.843 -2.9058  0.4124 -0.2764
   88CHL1  H22B 8976   3.129   3.385   7.797 -0.4404  1.9694 -1.7345
   88CHL1   C23 8977   2.953   3.480   7.887  0.4623 -0.2976  0.2847
   88CHL1  H23A 8978   3.001   3.575   7.856  0.7538 -0.3821  0.4703
   88CHL1  H23B 8979   2.845   3.498   7.870  0.8845  0.7755 -1.4052
   88CHL1   C24 8980   2.994   3.456   8.034  0.1363 -0.1090  0.6566
   88CHL1  H24A 8981   2.951   3.363   8.077  0.2799 -0.3753  0.2303
   88CHL1  H24B 8982   3.104   3.440   8.033 -0.1121 -2.0235  0.8795
   88CHL1   C25 8983   2.971   3.576   8.121 -0.7038 -0.3702 -0.5621
   88CHL1   H25 8984   3.046   3.647   8.081  1.2036 -2.7053 -1.2399
   88CHL1   C26 8985   2.828   3.636   8.135 -0.2701 -0.5591 -0.4371
   88CHL1  H26A 8986   2.787   3.667   8.037 -0.7499  0.5868  0.1173
   88CHL1  H26B 8987   2.761   3.555   8.170  0.7743 -2.0022 -1.6765
   88CHL1  H26C 8988   2.819   3.721   8.206  0.0764 -1.4463  0.6744
   88CHL1   C27 8989   3.005   3.534   8.267 -0.4194 -0.2747  0.0965
   88CHL1  H27A 8990   3.006   3.620   8.337  0.4389  0.2691 -0.5782
   88CHL1  H27B 8991   2.944   3.448   8.303 -2.2802  1.9690  2.4400
   88CHL1  H27C 8992   3.107   3.489   8.269 -0.3259 -0.1184 -0.8279
   89CHL1    C3 8993   6.403   6.632   7.079 -0.1473  0.2660  0.6843
   89CHL1    H3 8994   6.296   6.616   7.107 -1.2989  1.6547 -2.6632
   89CHL1    O3 8995   6.403   6.629   6.939  0.2204 -1.0146 -0.0240
   89CHL1   H3' 8996   6.392   6.722   6.917 -1.3957 -1.5338 -1.4926
   89CHL1    C4 8997   6.457   6.763   7.129 -0.0395  0.0357  0.0400
   89CHL1   H4A 8998   6.560   6.768   7.086 -1.0833 -0.3904 -2.6284
   89CHL1   H4B 8999   6.392   6.845   7.093 -2.2261 -2.6233 -2.3531
   89CHL1    C5 9000   6.454   6.773   7.276 -0.0074  0.9510  0.2856
   89CHL1    C6 9001   6.377   6.864   7.345  0.8985  0.0055 -0.0522
   89CHL1    H6 9002   6.323   6.947   7.296  1.5493 -0.2187 -1.1661
   89CHL1    C7 9003   6.373   6.873   7.497 -0.4121  0.6474  0.4157
   89CHL1   H7A 9004   6.400   6.976   7.528  2.3223  0.0938  0.0117
   89CHL1   H7B 9005   6.271   6.860   7.538 -0.4420  0.0481  0.1476
   89CHL1    C8 9006   6.468   6.774   7.570 -0.3352  0.2094 -0.6752
   89CHL1    H8 9007   6.568   6.821   7.559  0.2597 -0.4067  1.8839
   89CHL1   C14 9008   6.429   6.762   7.716 -0.7456  0.5885 -0.2026
   89CHL1   H14 9009   6.325   6.725   7.731  1.1901 -4.2065  2.7150
   89CHL1   C15 9010   6.418   6.889   7.811 -0.2481  0.2169  1.0361
   89CHL1  H15A 9011   6.503   6.957   7.790  2.3081 -3.1418  0.0649
   89CHL1  H15B 9012   6.318   6.934   7.791  0.1506  0.0895 -1.4538
   89CHL1   C16 9013   6.424   6.828   7.947 -0.7277  0.0315 -0.2218
   89CHL1  H16A 9014   6.497   6.880   8.012 -0.1488 -0.3026 -0.5960
   89CHL1  H16B 9015   6.333   6.851   8.006  0.9262 -0.8850  2.7852
   89CHL1   C17 9016   6.452   6.678   7.928 -0.2604 -0.1131 -0.6978
   89CHL1   H17 9017   6.353   6.630   7.933 -1.0682  1.7752  2.8751
   89CHL1   C13 9018   6.515   6.664   7.786 -0.2334 -0.2363 -0.2404
   89CHL1   C18 9019   6.667   6.712   7.790  0.3148  0.1273 -0.8145
   89CHL1  H18A 9020   6.728   6.646   7.855  1.1836  0.6097 -1.1354
   89CHL1  H18B 9021   6.720   6.698   7.694 -1.4452  0.1242 -1.8020
   89CHL1  H18C 9022   6.681   6.821   7.810 -0.2764  0.3312 -1.4855
   89CHL1   C12 9023   6.509   6.525   7.731  0.3754  0.4231 -0.1961
   89CHL1  H12A 9024   6.579   6.453   7.779  1.4610  0.0837 -2.2437
   89CHL1  H12B 9025   6.404   6.491   7.744  0.1875  1.3349  0.7867
   89CHL1   C11 9026   6.544   6.522   7.573 -0.1679 -0.5005  0.1078
   89CHL1  H11A 9027   6.653   6.545   7.574 -0.4963  1.0884 -0.3562
   89CHL1  H11B 9028   6.525   6.428   7.517 -1.7839 -0.8751  1.2284
   89CHL1    C9 9029   6.473   6.643   7.494  0.2642  1.0032  0.3642
   89CHL1    H9 9030   6.367   6.611   7.492 -0.3174  2.9246 -0.0126
   89CHL1   C10 9031   6.526   6.657   7.348 -0.0491  0.1331  0.5044
   89CHL1   C19 9032   6.676   6.677   7.337 -0.5212 -0.2349 -0.3084
   89CHL1  H19A 9033   6.714   6.753   7.408 -3.3353  1.3261 -0.4036
   89CHL1  H19B 9034   6.728   6.579   7.344  0.4936  0.3786  0.9856
   89CHL1  H19C 9035   6.704   6.705   7.233 -1.7112  2.3539  0.0361
   89CHL1    C1 9036   6.491   6.522   7.274  0.4120 -0.0127  0.0905
   89CHL1   H1A 9037   6.544   6.426   7.293  1.5060  1.3585  4.4649
   89CHL1   H1B 9038   6.386   6.508   7.308  0.4296 -1.9397 -0.5652
   89CHL1    C2 9039   6.491   6.515   7.121 -0.0269 -0.5479  0.0972
   89CHL1   H2A 9040   6.444   6.417   7.096 -1.3305  0.1734 -0.2761
   89CHL1   H2B 9041   6.592   6.526   7.075 -0.4186 -0.0436 -0.6484
   89CHL1   C20 9042   6.523   6.612   8.042 -0.9868  0.7313  0.0139
   89CHL1   H20 9043   6.578   6.527   7.995 -2.3517 -0.1733  0.0461
   89CHL1   C21 9044   6.425   6.530   8.121  0.5755  0.0138 -0.3796
   89CHL1  H21A 9045   6.379   6.463   8.045  0.4027 -2.7179  2.0584
   89CHL1  H21B 9046   6.345   6.589   8.172 -1.3155 -2.5691 -0.2511
   89CHL1  H21C 9047   6.469   6.456   8.191  2.0317 -0.1300 -1.4230
   89CHL1   C22 9048   6.621   6.699   8.127  0.1739  0.2132 -0.3344
   89CHL1  H22A 9049   6.692   6.765   8.074 -1.1145  2.0741  0.2116
   89CHL1  H22B 9050   6.563   6.763   8.197 -1.7895 -0.8951 -0.8877
   89CHL1   C23 9051   6.715   6.619   8.221 -0.0725 -0.6802  0.7495
   89CHL1  H23A 9052   6.670   6.584   8.316 -0.5241  0.8471  1.1037
   89CHL1  H23B 9053   6.760   6.532   8.168 -0.8432  0.1264 -1.2808
   89CHL1   C24 9054   6.835   6.716   8.265 -0.6945  0.4800  0.9510
   89CHL1  H24A 9055   6.913   6.717   8.185 -0.2361  1.5482  1.4091
   89CHL1  H24B 9056   6.808   6.821   8.285  2.3104  1.3643  0.5998
   89CHL1   C25 9057   6.902   6.680   8.400  0.1451  0.6293 -0.2826
   89CHL1   H25 9058   6.826   6.646   8.474  1.2131  0.3258  0.6778
   89CHL1   C26 9059   7.007   6.563   8.372  0.2343  0.4973 -0.0364
   89CHL1  H26A 9060   7.042   6.537   8.474  0.4453  2.0895  0.3170
   89CHL1  H26B 9061   6.969   6.477   8.314 -0.6202  0.0254  1.1906
   89CHL1  H26C 9062   7.096   6.602   8.319  0.2769  2.0109  1.1002
   89CHL1   C27 9063   6.981   6.803   8.451 -0.0672 -0.5735  0.3256
   89CHL1  H27A 9064   7.041   6.763   8.536  0.6591 -2.4633 -1.0298
   89CHL1  H27B 9065   7.041   6.854   8.373  0.5966 -2.4763 -0.4613
   89CHL1  H27C 9066   6.909   6.875   8.494  2.9710  1.6167  1.9235
   90CHL1    C3 9067   6.032   1.187   6.861  0.5575 -1.1153 -0.4531
   90CHL1    H3 9068   5.976   1.099   6.899 -1.4002  0.5896  0.6935
   90CHL1    O3 9069   6.042   1.189   6.717  0.2908 -0.4908  0.0818
   90CHL1   H3' 9070   6.086   1.108   6.690  0.4666 -0.4756  0.3137
   90CHL1    C4 9071   5.961   1.313   6.919 -0.5415 -0.7139 -0.2375
   90CHL1   H4A 9072   6.002   1.401   6.864 -1.2157 -0.4264 -0.2768
   90CHL1   H4B 9073   5.852   1.310   6.898  0.0133 -2.2574 -3.1189
   90CHL1    C5 9074   5.975   1.329   7.070  0.4555 -0.5017 -0.2575
   90CHL1    C6 9075   5.864   1.351   7.146  0.0579 -0.0938  0.4322
   90CHL1    H6 9076   5.768   1.349   7.091 -1.0282 -0.9761  2.2996
   90CHL1    C7 9077   5.868   1.385   7.286 -0.2292 -0.4368 -0.4790
   90CHL1   H7A 9078   5.814   1.481   7.300  0.9586  0.0568  0.8949
   90CHL1   H7B 9079   5.819   1.307   7.348  0.6801  0.1413  0.9863
   90CHL1    C8 9080   6.012   1.408   7.337 -0.1614 -0.3429  0.0300
   90CHL1    H8 9081   6.028   1.513   7.308  1.8010  0.3252  3.2957
   90CHL1   C14 9082   6.013   1.394   7.488  0.3516 -0.0574  0.9835
   90CHL1   H14 9083   6.004   1.286   7.512 -0.4499 -0.2047  0.0520
   90CHL1   C15 9084   5.912   1.465   7.571  0.0708 -0.2347 -0.1908
   90CHL1  H15A 9085   5.913   1.574   7.550  1.2588 -0.0593  0.6890
   90CHL1  H15B 9086   5.815   1.415   7.553  0.1163  0.1144 -1.4792
   90CHL1   C16 9087   5.965   1.453   7.713  0.0696 -0.2461 -1.1695
   90CHL1  H16A 9088   5.966   1.558   7.749 -0.3163 -0.8086  0.5499
   90CHL1  H16B 9089   5.918   1.391   7.793  2.1622  0.0830  0.3636
   90CHL1   C17 9090   6.114   1.413   7.704 -0.8320 -0.4275 -0.6165
   90CHL1   H17 9091   6.118   1.305   7.726 -1.2068 -0.3844 -0.3348
   90CHL1   C13 9092   6.149   1.438   7.551 -0.5934  0.4342  0.0245
   90CHL1   C18 9093   6.184   1.593   7.526  0.2638  1.5609 -0.3142
   90CHL1  H18A 9094   6.281   1.624   7.572  1.1531  0.8549 -1.6821
   90CHL1  H18B 9095   6.184   1.617   7.418  0.6133  1.4341 -0.3440
   90CHL1  H18C 9096   6.105   1.656   7.573  1.1830  1.5480  1.3109
   90CHL1   C12 9097   6.245   1.331   7.496  0.0495  0.1821  0.0155
   90CHL1  H12A 9098   6.343   1.348   7.546 -0.3352 -0.3712  0.9783
   90CHL1  H12B 9099   6.213   1.233   7.538 -1.8328 -0.6845 -3.2752
   90CHL1   C11 9100   6.258   1.339   7.342 -0.1462 -1.1692 -0.1416
   90CHL1  H11A 9101   6.293   1.441   7.318 -0.9876 -0.6299  0.9044
   90CHL1  H11B 9102   6.333   1.264   7.310  1.7343  1.0668 -1.0582
   90CHL1    C9 9103   6.116   1.316   7.274  0.5908  0.4239 -0.3672
   90CHL1    H9 9104   6.087   1.210   7.290  2.0433  0.0952  0.2006
   90CHL1   C10 9105   6.120   1.328   7.122  0.6330 -0.2923  0.2226
   90CHL1   C19 9106   6.202   1.450   7.092  0.2193 -0.2369 -0.2045
   90CHL1  H19A 9107   6.186   1.536   7.160  0.1017 -0.7262  0.3893
   90CHL1  H19B 9108   6.311   1.425   7.091  0.9003  2.3606  2.5582
   90CHL1  H19C 9109   6.172   1.482   6.990 -1.6831 -0.4305  0.2771
   90CHL1    C1 9110   6.191   1.205   7.060 -0.5355  0.6673 -0.4241
   90CHL1   H1A 9111   6.298   1.210   7.090 -1.3153  0.9979  2.4767
   90CHL1   H1B 9112   6.143   1.116   7.105  0.0824 -0.4714 -1.9799
   90CHL1    C2 9113   6.178   1.184   6.909  0.0615  0.4981 -0.5168
   90CHL1   H2A 9114   6.223   1.086   6.882 -0.5499  0.0584  0.0390
   90CHL1   H2B 9115   6.230   1.268   6.860  0.2017  1.4725  1.2393
   90CHL1   C20 9116   6.202   1.489   7.803  0.7274 -0.4622  1.1507
   90CHL1   H20 9117   6.188   1.598   7.786 -1.7891 -1.1814 -1.7629
   90CHL1   C21 9118   6.350   1.438   7.788 -0.1700  0.0985 -0.3720
   90CHL1  H21A 9119   6.414   1.475   7.872 -0.9780 -0.8634  0.6892
   90CHL1  H21B 9120   6.380   1.489   7.694 -0.9816 -0.7540 -1.0910
   90CHL1  H21C 9121   6.357   1.327   7.783  0.5952  0.1158  0.1352
   90CHL1   C22 9122   6.153   1.454   7.948 -0.2683 -0.3440 -0.3839
   90CHL1  H22A 9123   6.044   1.465   7.966 -0.0245  1.8453 -0.0530
   90CHL1  H22B 9124   6.185   1.350   7.971  2.6047  0.5997  0.0691
   90CHL1   C23 9125   6.199   1.551   8.056 -0.3780  0.6806  0.5435
   90CHL1  H23A 9126   6.308   1.540   8.073 -0.5646  1.1530  2.1127
   90CHL1  H23B 9127   6.174   1.655   8.027  0.5404  0.9750  0.8098
   90CHL1   C24 9128   6.144   1.511   8.201  0.0745  0.0040  0.9034
   90CHL1  H24A 9129   6.033   1.508   8.200  0.0485  0.5864 -1.4905
   90CHL1  H24B 9130   6.170   1.404   8.213  2.1051  0.5316  1.3499
   90CHL1   C25 9131   6.202   1.600   8.316 -0.3409 -0.0687 -0.3061
   90CHL1   H25 9132   6.310   1.585   8.300 -0.3248 -2.0211  1.3397
   90CHL1   C26 9133   6.166   1.744   8.308 -0.0347 -0.2771 -0.0556
   90CHL1  H26A 9134   6.056   1.759   8.304  0.0885  0.3326 -1.7212
   90CHL1  H26B 9135   6.211   1.816   8.379  0.0271  1.4082 -1.7491
   90CHL1  H26C 9136   6.212   1.773   8.211 -0.5783  0.2742 -0.1456
   90CHL1   C27 9137   6.156   1.548   8.451  0.5105  0.2013  0.4923
   90CHL1  H27A 9138   6.046   1.541   8.458  0.6601 -0.8383  2.3401
   90CHL1  H27B 9139   6.188   1.441   8.456  1.5375  0.3732 -1.8149
   90CHL1  H27C 9140   6.198   1.594   8.543 -0.7269 -0.0401  1.1934
   91CHL1    C3 9141   6.681   2.358   7.155  0.1529 -0.0819 -0.3810
   91CHL1    H3 9142   6.585   2.409   7.177 -0.7766 -1.9065 -0.0276
   91CHL1    O3 9143   6.692   2.338   7.016  0.0910  0.1400  0.4028
   91CHL1   H3' 9144   6.762   2.274   7.000 -1.4397 -1.5579  0.2957
   91CHL1    C4 9145   6.801   2.441   7.214 -0.0873 -0.0619 -1.1234
   91CHL1   H4A 9146   6.888   2.379   7.185  2.0128  2.8035 -1.0818
   91CHL1   H4B 9147   6.810   2.539   7.164 -0.8303  0.4546 -0.2491
   91CHL1    C5 9148   6.783   2.459   7.361  0.0974 -0.6638 -0.8085
   91CHL1    C6 9149   6.792   2.580   7.409 -0.5029 -0.4475 -0.0630
   91CHL1    H6 9150   6.825   2.658   7.339  0.7934 -1.1780 -0.2698
   91CHL1    C7 9151   6.785   2.606   7.559 -0.4535  0.1728  0.6338
   91CHL1   H7A 9152   6.866   2.677   7.589 -0.8687  1.5098 -1.3502
   91CHL1   H7B 9153   6.687   2.647   7.590  0.3753  2.9120 -0.2080
   91CHL1    C8 9154   6.790   2.482   7.647  0.1664 -0.3529  0.5763
   91CHL1    H8 9155   6.898   2.456   7.648  0.1810 -0.3409 -0.8116
   91CHL1   C14 9156   6.736   2.507   7.785 -0.5587  0.1009 -0.2788
   91CHL1   H14 9157   6.633   2.546   7.771 -1.4579 -2.0005  0.3735
   91CHL1   C15 9158   6.796   2.614   7.868  0.6591 -0.7653 -0.3153
   91CHL1  H15A 9159   6.906   2.602   7.865  0.8114  0.1584  1.1762
   91CHL1  H15B 9160   6.764   2.717   7.841 -0.4772 -0.4993  1.8873
   91CHL1   C16 9161   6.735   2.583   8.009 -0.1195 -0.3125 -0.3133
   91CHL1  H16A 9162   6.819   2.591   8.081 -0.1463 -1.3486 -0.1633
   91CHL1  H16B 9163   6.652   2.656   8.017 -0.0247  0.1792 -3.1285
   91CHL1   C17 9164   6.694   2.437   8.009 -0.4215  0.2081  0.0502
   91CHL1   H17 9165   6.583   2.435   8.013 -0.3887  0.4655  1.4934
   91CHL1   C13 9166   6.738   2.381   7.873  0.1064  0.8124 -0.1571
   91CHL1   C18 9167   6.885   2.340   7.904  0.1549  0.3108  0.7981
   91CHL1  H18A 9168   6.945   2.417   7.956  0.7509  1.5183 -1.5834
   91CHL1  H18B 9169   6.886   2.250   7.968 -0.2800  0.1675  0.6103
   91CHL1  H18C 9170   6.950   2.318   7.816 -1.8733  0.1313 -0.7080
   91CHL1   C12 9171   6.648   2.266   7.815 -0.1241 -0.0741 -0.2877
   91CHL1  H12A 9172   6.661   2.181   7.885  0.0947 -0.3538 -0.6697
   91CHL1  H12B 9173   6.539   2.290   7.810 -0.3034 -0.1993  2.2948
   91CHL1   C11 9174   6.681   2.232   7.674  0.6061  0.2937  0.0337
   91CHL1  H11A 9175   6.774   2.172   7.675  0.9505  0.8356  1.0061
   91CHL1  H11B 9176   6.606   2.166   7.625  1.3094 -0.9906  0.6621
   91CHL1    C9 9177   6.716   2.360   7.582 -0.2447 -0.1254 -0.5528
   91CHL1    H9 9178   6.614   2.401   7.570 -0.2752  0.1096  0.4461
   91CHL1   C10 9179   6.761   2.329   7.436 -0.1173  0.1322 -0.4700
   91CHL1   C19 9180   6.891   2.254   7.454  0.1115  0.8186  0.7093
   91CHL1  H19A 9181   6.943   2.230   7.358  0.3571  0.7334  0.8645
   91CHL1  H19B 9182   6.962   2.299   7.526 -0.4923  1.6487  0.7892
   91CHL1  H19C 9183   6.874   2.149   7.486  0.3183  1.1256  1.8427
   91CHL1    C1 9184   6.647   2.240   7.370 -0.5992 -0.2951 -0.1461
   91CHL1   H1A 9185   6.633   2.141   7.418 -1.6368 -0.4811 -0.8181
   91CHL1   H1B 9186   6.556   2.303   7.376 -1.5898 -1.7581  0.3840
   91CHL1    C2 9187   6.678   2.218   7.220 -0.5535  0.0353  0.2355
   91CHL1   H2A 9188   6.606   2.149   7.171 -2.6513  1.9406  0.5654
   91CHL1   H2B 9189   6.778   2.170   7.213 -0.2796  0.7104 -0.5661
   91CHL1   C20 9190   6.721   2.368   8.142  0.1859  0.4363 -0.0232
   91CHL1   H20 9191   6.831   2.357   8.153  0.4232  1.3837 -1.3333
   91CHL1   C21 9192   6.662   2.217   8.152 -0.5656 -0.4610 -0.6713
   91CHL1  H21A 9193   6.665   2.162   8.249 -1.0495  0.2250 -0.2589
   91CHL1  H21B 9194   6.718   2.156   8.078  0.4402 -0.2788 -0.0763
   91CHL1  H21C 9195   6.555   2.217   8.124 -1.3409 -2.1006  2.0442
   91CHL1   C22 9196   6.682   2.450   8.270 -0.7436 -0.4784 -0.0776
   91CHL1  H22A 9197   6.715   2.555   8.257 -1.2579 -0.2556  0.4034
   91CHL1  H22B 9198   6.572   2.455   8.261 -0.8864  0.1820  1.9840
   91CHL1   C23 9199   6.731   2.404   8.404 -0.0957  0.3480  0.3126
   91CHL1  H23A 9200   6.689   2.304   8.430 -0.7503 -0.1649 -2.5710
   91CHL1  H23B 9201   6.841   2.389   8.400  0.0403  0.6362  2.3221
   91CHL1   C24 9202   6.700   2.496   8.519 -0.0129 -0.2853  0.1643
   91CHL1  H24A 9203   6.714   2.598   8.479 -3.1256 -0.3843 -1.2878
   91CHL1  H24B 9204   6.594   2.480   8.548 -0.1788  2.8035  1.4784
   91CHL1   C25 9205   6.771   2.453   8.646  0.1727  0.0660  0.4922
   91CHL1   H25 9206   6.879   2.463   8.624 -0.1582  0.6580 -0.9106
   91CHL1   C26 9207   6.758   2.564   8.755  0.7025  0.3882 -0.3462
   91CHL1  H26A 9208   6.813   2.529   8.845  0.4063  0.7929 -0.0064
   91CHL1  H26B 9209   6.809   2.656   8.720 -0.2635  1.0858  0.0612
   91CHL1  H26C 9210   6.653   2.590   8.780  0.8547  1.5279 -0.8585
   91CHL1   C27 9211   6.741   2.309   8.692 -0.8447  0.3001  0.3699
   91CHL1  H27A 9212   6.771   2.230   8.620 -0.6639 -0.7575  1.5753
   91CHL1  H27B 9213   6.796   2.286   8.786  2.1082 -1.6104 -1.7666
   91CHL1  H27C 9214   6.632   2.302   8.715 -0.6913  1.0468  1.3761
   92CHL1    C3 9215   3.373   4.470   6.770 -0.0877 -0.0645 -0.3859
   92CHL1    H3 9216   3.435   4.383   6.800  0.5702  1.1360  1.8421
   92CHL1    O3 9217   3.382   4.492   6.628 -1.2647  0.3962  0.1059
   92CHL1   H3' 9218   3.444   4.565   6.625  0.6909 -1.3051 -2.4600
   92CHL1    C4 9219   3.228   4.436   6.806  0.0222  0.0103  0.6623
   92CHL1   H4A 9220   3.163   4.523   6.781 -0.1536 -0.3887 -0.2876
   92CHL1   H4B 9221   3.193   4.352   6.743  1.2564  0.2269 -0.3320
   92CHL1    C5 9222   3.215   4.416   6.958 -0.4896 -0.3724  0.2624
   92CHL1    C6 9223   3.167   4.299   7.013  0.8624 -0.6786 -0.5112
   92CHL1    H6 9224   3.126   4.221   6.947 -1.1925  2.6098 -3.3117
   92CHL1    C7 9225   3.144   4.286   7.161 -0.2926 -0.6170 -0.2910
   92CHL1   H7A 9226   3.043   4.245   7.179 -0.7024 -0.2255 -1.6469
   92CHL1   H7B 9227   3.214   4.212   7.205  1.9569  1.1786 -0.7178
   92CHL1    C8 9228   3.169   4.412   7.250  0.1217 -0.0631 -0.3903
   92CHL1    H8 9229   3.075   4.471   7.247  0.6293  0.7645 -0.2053
   92CHL1   C14 9230   3.181   4.379   7.401  0.1577  0.3036 -0.1330
   92CHL1   H14 9231   3.273   4.316   7.397 -1.4114 -1.9961 -1.5605
   92CHL1   C15 9232   3.082   4.283   7.469  0.4511  0.1074 -0.1069
   92CHL1  H15A 9233   2.975   4.310   7.455  0.5897  1.2975  1.0438
   92CHL1  H15B 9234   3.096   4.178   7.435  3.4058  0.3618  0.2219
   92CHL1   C16 9235   3.121   4.298   7.618  0.2678 -0.6026  0.3562
   92CHL1  H16A 9236   3.032   4.319   7.681  0.9029  1.8169  0.5317
   92CHL1  H16B 9237   3.182   4.212   7.652 -0.1653 -1.3987 -0.8459
   92CHL1   C17 9238   3.229   4.418   7.633 -0.4449 -0.3909 -0.6590
   92CHL1   H17 9239   3.328   4.367   7.629 -1.0351 -1.6423  0.3674
   92CHL1   C13 9240   3.209   4.497   7.496  0.3703  0.3490  0.0961
   92CHL1   C18 9241   3.083   4.591   7.501 -0.4672 -0.4518  1.0456
   92CHL1  H18A 9242   3.047   4.617   7.399 -1.4367 -2.7219  0.7733
   92CHL1  H18B 9243   3.001   4.550   7.564  0.4886  1.2852  3.4938
   92CHL1  H18C 9244   3.106   4.688   7.549  1.0677 -1.1386  1.7071
   92CHL1   C12 9245   3.337   4.566   7.434  0.6650  0.0407 -0.3212
   92CHL1  H12A 9246   3.359   4.652   7.500 -0.0652 -0.4236  0.5275
   92CHL1  H12B 9247   3.414   4.486   7.438  0.7755  0.2238  1.5402
   92CHL1   C11 9248   3.320   4.613   7.296 -0.1178 -0.9627 -0.0997
   92CHL1  H11A 9249   3.234   4.684   7.294 -0.1266 -1.0098 -2.0417
   92CHL1  H11B 9250   3.414   4.662   7.263 -0.0677 -0.7366  0.3732
   92CHL1    C9 9251   3.289   4.496   7.195  0.1458 -0.1000 -0.1510
   92CHL1    H9 9252   3.378   4.430   7.189 -1.4112 -2.1515 -1.1350
   92CHL1   C10 9253   3.280   4.527   7.042  0.0525  0.5094 -0.5036
   92CHL1   C19 9254   3.178   4.653   7.034 -0.0533  0.3214 -0.8025
   92CHL1  H19A 9255   3.233   4.734   7.087  0.9344 -0.1135 -1.1430
   92CHL1  H19B 9256   3.171   4.700   6.933 -2.6557 -0.3366 -0.9548
   92CHL1  H19C 9257   3.075   4.639   7.074 -0.8557  4.0505 -1.4092
   92CHL1    C1 9258   3.417   4.574   6.987 -0.3270 -0.7961 -0.0905
   92CHL1   H1A 9259   3.449   4.666   7.041  0.1392 -0.8241 -0.3162
   92CHL1   H1B 9260   3.490   4.492   7.001  0.0102 -0.5643 -0.4919
   92CHL1    C2 9261   3.423   4.600   6.839 -0.6029 -0.0580  0.0047
   92CHL1   H2A 9262   3.530   4.615   6.817 -0.6303 -0.5759 -0.5009
   92CHL1   H2B 9263   3.365   4.689   6.808 -0.4233  0.3210  0.7580
   92CHL1   C20 9264   3.219   4.499   7.765 -0.5410  0.1000  0.2346
   92CHL1   H20 9265   3.122   4.552   7.768 -1.0834 -0.9469  1.2594
   92CHL1   C21 9266   3.335   4.598   7.780 -0.1514  0.3730 -0.2248
   92CHL1  H21A 9267   3.431   4.545   7.797 -0.4079  0.0538  0.2559
   92CHL1  H21B 9268   3.307   4.651   7.874 -1.5099 -2.6563  1.1391
   92CHL1  H21C 9269   3.344   4.672   7.698  1.6111  2.1574  1.5323
   92CHL1   C22 9270   3.223   4.409   7.886 -0.9762 -0.4011  0.2844
   92CHL1  H22A 9271   3.161   4.319   7.867 -0.1914 -0.5684 -1.6725
   92CHL1  H22B 9272   3.325   4.366   7.892 -0.8156 -0.1523 -0.5248
   92CHL1   C23 9273   3.192   4.466   8.025 -0.1925  0.3523  0.7820
   92CHL1  H23A 9274   3.277   4.534   8.048  0.8614 -1.3831  2.0967
   92CHL1  H23B 9275   3.098   4.524   8.007 -0.9245 -1.6297 -2.1726
   92CHL1   C24 9276   3.186   4.364   8.134 -0.2423  0.6377 -0.1020
   92CHL1  H24A 9277   3.159   4.266   8.091  0.7267  0.1975  0.2672
   92CHL1  H24B 9278   3.289   4.348   8.174 -0.5405  0.2091  0.4988
   92CHL1   C25 9279   3.097   4.406   8.258  0.4140  0.1891 -0.0450
   92CHL1   H25 9280   3.133   4.507   8.287 -0.4054 -0.2297  2.6113
   92CHL1   C26 9281   2.949   4.431   8.241 -0.0961 -0.2151  0.0153
   92CHL1  H26A 9282   2.928   4.506   8.161  2.0345  0.4309  0.0271
   92CHL1  H26B 9283   2.890   4.341   8.215  0.0815 -1.0196  2.2892
   92CHL1  H26C 9284   2.894   4.472   8.329  0.4746  0.0505  0.2512
   92CHL1   C27 9285   3.117   4.297   8.366  0.4864 -0.2274  0.0795
   92CHL1  H27A 9286   3.075   4.197   8.342 -0.5737  0.0556  0.7319
   92CHL1  H27B 9287   3.223   4.267   8.381  0.8537  0.1545 -1.5696
   92CHL1  H27C 9288   3.059   4.330   8.454 -0.9738 -2.0509 -0.1845
   93CHL1    C3 9289   1.591   1.775   6.875 -0.9428 -0.2088  0.0050
   93CHL1    H3 9290   1.562   1.882   6.885  1.2178  0.5426 -1.3682
   93CHL1    O3 9291   1.596   1.742   6.736 -0.2152 -0.1554  0.6213
   93CHL1   H3' 9292   1.687   1.763   6.713 -0.2274 -2.5691 -1.7609
   93CHL1    C4 9293   1.734   1.766   6.931 -0.7085 -0.1282 -0.7512
   93CHL1   H4A 9294   1.773   1.666   6.902 -0.2785 -0.5032  1.0442
   93CHL1   H4B 9295   1.799   1.845   6.889  2.8346 -2.0410  0.8848
   93CHL1    C5 9296   1.746   1.777   7.080 -0.7442 -0.4880  0.0695
   93CHL1    C6 9297   1.820   1.878   7.130  0.0337 -0.0775 -0.8676
   93CHL1    H6 9298   1.866   1.956   7.067 -0.3301  1.7301  1.0505
   93CHL1    C7 9299   1.838   1.890   7.281  0.2574 -0.2408  0.1315
   93CHL1   H7A 9300   1.942   1.906   7.316 -0.0055  0.4507  0.6217
   93CHL1   H7B 9301   1.783   1.978   7.320  1.8024  1.1989 -0.8731
   93CHL1    C8 9302   1.799   1.770   7.352 -0.0286  0.5352 -0.6359
   93CHL1    H8 9303   1.871   1.685   7.344 -2.5536 -1.7295 -0.1611
   93CHL1   C14 9304   1.794   1.797   7.504 -0.0023  0.0307  0.7634
   93CHL1   H14 9305   1.719   1.877   7.521  1.2847  1.4332 -0.0584
   93CHL1   C15 9306   1.927   1.859   7.572  0.0806 -0.1864 -0.0285
   93CHL1  H15A 9307   2.015   1.793   7.553 -0.5165 -0.9811 -0.0553
   93CHL1  H15B 9308   1.949   1.962   7.538 -1.6893 -0.3926 -1.9516
   93CHL1   C16 9309   1.887   1.850   7.714 -0.1825  0.3850 -0.7159
   93CHL1  H16A 9310   1.974   1.818   7.776 -1.0626 -1.2197 -0.2730
   93CHL1  H16B 9311   1.844   1.939   7.764  0.0348 -0.9366  1.9223
   93CHL1   C17 9312   1.760   1.750   7.731 -0.1405  0.4021  0.2592
   93CHL1   H17 9313   1.670   1.816   7.736  0.7488  1.8419 -1.8630
   93CHL1   C13 9314   1.746   1.680   7.590  0.2215  0.4185 -0.2953
   93CHL1   C18 9315   1.846   1.561   7.584 -0.5726  0.6373  0.0913
   93CHL1  H18A 9316   1.877   1.527   7.483  0.0977  0.0067  0.4978
   93CHL1  H18B 9317   1.940   1.590   7.637 -0.7691 -0.7978  1.2658
   93CHL1  H18C 9318   1.803   1.476   7.640  1.0065 -0.7513 -0.7632
   93CHL1   C12 9319   1.606   1.632   7.535 -0.0113  0.0921 -0.1479
   93CHL1  H12A 9320   1.565   1.549   7.597 -2.8641  0.3252 -1.6270
   93CHL1  H12B 9321   1.538   1.719   7.548  0.1620  0.3272 -0.8364
   93CHL1   C11 9322   1.614   1.593   7.393  0.4645 -0.2497 -0.5029
   93CHL1  H11A 9323   1.669   1.497   7.391  1.4404  0.2532  0.9757
   93CHL1  H11B 9324   1.511   1.570   7.359  0.0404  0.2664  0.3981
   93CHL1    C9 9325   1.666   1.708   7.298 -0.0250 -0.5662 -0.2056
   93CHL1    H9 9326   1.590   1.787   7.316 -0.2345 -0.8642  0.2309
   93CHL1   C10 9327   1.664   1.667   7.151  0.2160  0.0497  0.4871
   93CHL1   C19 9328   1.724   1.521   7.137  0.2084 -0.8983  0.4918
   93CHL1  H19A 9329   1.668   1.449   7.200 -0.8330 -0.6941 -0.1882
   93CHL1  H19B 9330   1.708   1.487   7.033  0.2912  0.7401 -0.0736
   93CHL1  H19C 9331   1.834   1.526   7.150  0.1267  0.5349  0.7839
   93CHL1    C1 9332   1.518   1.669   7.104 -0.0518 -0.4139  0.1077
   93CHL1   H1A 9333   1.462   1.586   7.151  0.5734 -0.7973  0.1798
   93CHL1   H1B 9334   1.480   1.766   7.140  0.8814 -0.1799  0.4903
   93CHL1    C2 9335   1.500   1.667   6.951 -0.4907 -0.0992  0.4562
   93CHL1   H2A 9336   1.397   1.682   6.913 -0.4220 -2.3400 -0.6653
   93CHL1   H2B 9337   1.513   1.562   6.916  1.2478 -0.1503  1.2128
   93CHL1   C20 9338   1.762   1.666   7.854  0.2264 -0.3225 -0.2588
   93CHL1   H20 9339   1.837   1.586   7.837  1.0004  0.2971  0.2016
   93CHL1   C21 9340   1.618   1.614   7.875  0.4706  0.3091  0.4339
   93CHL1  H21A 9341   1.533   1.686   7.872 -0.9993 -1.4655 -3.2247
   93CHL1  H21B 9342   1.614   1.559   7.972  2.7356 -0.6793 -0.0229
   93CHL1  H21C 9343   1.590   1.547   7.791  0.9287 -0.0964  0.6026
   93CHL1   C22 9344   1.805   1.752   7.982  0.1364  0.0710 -0.1049
   93CHL1  H22A 9345   1.916   1.763   7.983  0.1354  0.0974 -0.3076
   93CHL1  H22B 9346   1.765   1.855   7.971  0.1144 -0.0610 -1.3234
   93CHL1   C23 9347   1.779   1.702   8.127 -0.4999  0.6449  0.1849
   93CHL1  H23A 9348   1.669   1.697   8.143 -0.3793 -0.0883  0.8234
   93CHL1  H23B 9349   1.834   1.605   8.130 -0.5834  0.5782 -0.5522
   93CHL1   C24 9350   1.836   1.803   8.226 -0.2963 -0.6081 -0.9033
   93CHL1  H24A 9351   1.943   1.812   8.198 -0.3059 -3.1105 -1.8568
   93CHL1  H24B 9352   1.786   1.902   8.225 -1.5832 -1.2391 -1.0345
   93CHL1   C25 9353   1.835   1.742   8.369  0.5612 -1.1012 -0.6778
   93CHL1   H25 9354   1.881   1.817   8.436  0.2438 -1.5538  0.0549
   93CHL1   C26 9355   1.693   1.702   8.428 -0.8090 -0.0437 -0.4743
   93CHL1  H26A 9356   1.639   1.632   8.361  1.1804  0.0441 -2.2054
   93CHL1  H26B 9357   1.715   1.652   8.525  0.7015 -1.1524 -1.3590
   93CHL1  H26C 9358   1.619   1.781   8.453  0.4518  0.4194  1.9691
   93CHL1   C27 9359   1.919   1.617   8.380  0.3313  0.3740 -0.0027
   93CHL1  H27A 9360   1.868   1.531   8.332  0.6258 -0.0817  0.4778
   93CHL1  H27B 9361   2.020   1.626   8.334  1.2844 -1.3031  1.6494
   93CHL1  H27C 9362   1.941   1.581   8.483  4.2986 -0.2883 -0.9869
   94CHL1    C3 9363   4.321   4.873   6.851 -0.4858  0.1746 -0.1794
   94CHL1    H3 9364   4.254   4.787   6.871 -0.3263  0.7472  3.0725
   94CHL1    O3 9365   4.380   4.856   6.721  0.4030  0.1572  0.1978
   94CHL1   H3' 9366   4.448   4.924   6.713 -1.6413  1.9070 -3.4399
   94CHL1    C4 9367   4.253   5.007   6.850 -0.6580  0.3518 -0.4029
   94CHL1   H4A 9368   4.325   5.086   6.818 -0.9765  1.8533  2.4625
   94CHL1   H4B 9369   4.179   5.001   6.767 -0.1350 -1.7968 -0.7303
   94CHL1    C5 9370   4.189   5.053   6.979 -0.6917 -0.3737 -0.7041
   94CHL1    C6 9371   4.061   5.085   6.994 -0.3627 -0.8458  0.1660
   94CHL1    H6 9372   3.989   5.093   6.911 -0.4124  2.0611  0.4191
   94CHL1    C7 9373   3.997   5.144   7.117  0.0618  0.1683  0.3173
   94CHL1   H7A 9374   3.947   5.238   7.085  1.1475  0.4388 -0.6201
   94CHL1   H7B 9375   3.919   5.077   7.157 -0.4086 -0.4848 -1.6467
   94CHL1    C8 9376   4.095   5.177   7.232  0.3118 -0.1059 -0.0637
   94CHL1    H8 9377   4.147   5.271   7.204  1.1600 -1.0687 -1.7977
   94CHL1   C14 9378   4.028   5.185   7.359  0.0550 -0.5342  0.2040
   94CHL1   H14 9379   3.988   5.081   7.364 -1.7202 -0.0002 -1.9948
   94CHL1   C15 9380   3.901   5.265   7.375 -0.5030  0.4163 -0.1399
   94CHL1  H15A 9381   3.920   5.358   7.318 -0.3047  0.8824  0.6934
   94CHL1  H15B 9382   3.823   5.198   7.334 -0.4282 -0.3740  0.9812
   94CHL1   C16 9383   3.880   5.288   7.523  0.2326  0.1968  0.1702
   94CHL1  H16A 9384   3.887   5.397   7.546  1.4098  0.7677 -2.6105
   94CHL1  H16B 9385   3.783   5.244   7.551 -0.4513  0.3568 -1.8591
   94CHL1   C17 9386   3.993   5.206   7.594  0.4307 -0.2208 -0.4975
   94CHL1   H17 9387   3.948   5.105   7.598  1.4090 -0.6410  0.4582
   94CHL1   C13 9388   4.109   5.206   7.488  0.5392 -0.0081 -0.2086
   94CHL1   C18 9389   4.173   5.342   7.466 -0.7019  0.0098 -0.0227
   94CHL1  H18A 9390   4.255   5.344   7.392 -0.9686  1.7825 -0.2896
   94CHL1  H18B 9391   4.108   5.428   7.440 -0.0378  0.2024 -1.0694
   94CHL1  H18C 9392   4.230   5.359   7.560 -0.3975 -0.4086 -0.1289
   94CHL1   C12 9393   4.214   5.090   7.496 -0.5764  0.2337  0.2793
   94CHL1  H12A 9394   4.283   5.121   7.577 -0.5148 -1.0119  0.7138
   94CHL1  H12B 9395   4.159   4.997   7.521 -1.7517  1.2219  1.4027
   94CHL1   C11 9396   4.294   5.069   7.358 -0.2889  0.4408 -0.0094
   94CHL1  H11A 9397   4.358   5.158   7.347 -2.2179  1.7587 -0.9309
   94CHL1  H11B 9398   4.365   4.984   7.365  1.0434  1.3849 -1.7029
   94CHL1    C9 9399   4.205   5.068   7.231  0.4334  0.2142  0.2637
   94CHL1    H9 9400   4.152   4.972   7.247  1.9151 -0.7158 -0.1998
   94CHL1   C10 9401   4.282   5.054   7.097 -0.4170  0.0045 -0.9786
   94CHL1   C19 9402   4.379   5.164   7.077  0.0397 -1.2728  0.3709
   94CHL1  H19A 9403   4.454   5.165   7.160  1.3932 -0.8943 -0.8332
   94CHL1  H19B 9404   4.441   5.157   6.985  0.0868  0.7860  0.2258
   94CHL1  H19C 9405   4.328   5.262   7.066  1.7610 -0.0953  2.3396
   94CHL1    C1 9406   4.359   4.918   7.090  0.0241  0.4851 -0.1272
   94CHL1   H1A 9407   4.430   4.926   7.175 -0.1737  0.2655  0.0623
   94CHL1   H1B 9408   4.290   4.837   7.124  1.8445 -0.5384  1.2061
   94CHL1    C2 9409   4.430   4.877   6.960 -0.2571 -0.4086 -0.0246
   94CHL1   H2A 9410   4.491   4.785   6.972  1.2401  0.6087  0.2881
   94CHL1   H2B 9411   4.506   4.955   6.937 -0.9749  0.6221  1.0177
   94CHL1   C20 9412   4.021   5.251   7.744  0.6156  0.0174 -0.4523
   94CHL1   H20 9413   4.096   5.332   7.732 -0.4172  1.3645  1.9544
   94CHL1   C21 9414   4.093   5.135   7.816 -0.5520 -0.4751 -0.1204
   94CHL1  H21A 9415   4.116   5.144   7.924  0.6123 -2.2125 -0.1992
   94CHL1  H21B 9416   4.195   5.128   7.774 -0.3824 -0.6867  0.3221
   94CHL1  H21C 9417   4.047   5.037   7.789  0.0956  0.2562 -4.1601
   94CHL1   C22 9418   3.905   5.308   7.825 -0.1010  0.0231  0.4351
   94CHL1  H22A 9419   3.846   5.373   7.757 -0.4814 -1.5561 -0.7582
   94CHL1  H22B 9420   3.849   5.215   7.849 -0.6997  0.1952 -0.2966
   94CHL1   C23 9421   3.959   5.394   7.942 -0.8871  0.2080 -0.2656
   94CHL1  H23A 9422   4.024   5.338   8.012  0.4776 -0.3797 -1.9739
   94CHL1  H23B 9423   4.030   5.469   7.902 -0.3329  0.2486  0.7732
   94CHL1   C24 9424   3.857   5.469   8.030  0.1635  0.6077  0.1956
   94CHL1  H24A 9425   3.907   5.506   8.122  1.0321 -3.7102  1.5785
   94CHL1  H24B 9426   3.809   5.552   7.974 -0.9217  0.5962  1.1000
   94CHL1   C25 9427   3.746   5.382   8.078 -1.0122 -0.0517 -0.5476
   94CHL1   H25 9428   3.699   5.323   7.996 -0.7713 -0.9290 -0.0599
   94CHL1   C26 9429   3.795   5.259   8.160  0.8909 -0.0649  0.1490
   94CHL1  H26A 9430   3.847   5.180   8.101  0.6055 -0.4803  0.4524
   94CHL1  H26B 9431   3.864   5.302   8.235 -0.3339 -1.2757  2.0167
   94CHL1  H26C 9432   3.711   5.208   8.211  0.3019  2.5981  1.9317
   94CHL1   C27 9433   3.643   5.459   8.157 -0.4853 -0.1237 -0.2670
   94CHL1  H27A 9434   3.590   5.531   8.090 -0.2144  0.8124  0.5136
   94CHL1  H27B 9435   3.571   5.388   8.202  0.5977 -0.1050  1.5184
   94CHL1  H27C 9436   3.686   5.521   8.238  2.0787 -1.7161 -0.3409
   95CHL1    C3 9437   3.467   4.107   6.588  0.3618 -0.0284  0.9666
   95CHL1    H3 9438   3.415   4.205   6.591 -0.5144 -0.3648 -2.1124
   95CHL1    O3 9439   3.457   4.048   6.458  0.6057  0.8423 -0.0588
   95CHL1   H3' 9440   3.524   4.094   6.407  1.0252  0.3381  0.0259
   95CHL1    C4 9441   3.617   4.129   6.620 -0.8105  0.1209  0.0386
   95CHL1   H4A 9442   3.685   4.044   6.594 -1.6631 -0.6039  0.1508
   95CHL1   H4B 9443   3.639   4.211   6.549  1.2273 -0.1901  0.2662
   95CHL1    C5 9444   3.650   4.162   6.770 -0.4378  0.3543 -0.4634
   95CHL1    C6 9445   3.721   4.274   6.799  0.8577  0.4884  0.3392
   95CHL1    H6 9446   3.750   4.340   6.716 -0.1508 -0.8306 -1.0892
   95CHL1    C7 9447   3.760   4.317   6.938 -0.0088 -0.0506  0.3006
   95CHL1   H7A 9448   3.870   4.326   6.949  0.3107  1.5739 -3.3874
   95CHL1   H7B 9449   3.707   4.411   6.960 -0.2736 -0.0806 -0.1934
   95CHL1    C8 9450   3.713   4.208   7.040 -0.2662  0.0327 -1.0823
   95CHL1    H8 9451   3.789   4.127   7.043 -0.1037  0.1881 -0.9197
   95CHL1   C14 9452   3.712   4.266   7.181  0.0347  0.7307  0.6604
   95CHL1   H14 9453   3.632   4.343   7.176 -0.9262 -0.3373 -0.9236
   95CHL1   C15 9454   3.830   4.347   7.233  0.1461 -0.3129  0.3662
   95CHL1  H15A 9455   3.922   4.285   7.226  0.2260 -0.1080 -0.5075
   95CHL1  H15B 9456   3.835   4.446   7.183  0.6038 -0.1576  0.7154
   95CHL1   C16 9457   3.795   4.359   7.383  0.1037 -0.6065 -0.1509
   95CHL1  H16A 9458   3.876   4.315   7.444  0.0156  0.0094  0.4215
   95CHL1  H16B 9459   3.779   4.463   7.419 -0.5001 -1.7581  3.0888
   95CHL1   C17 9460   3.663   4.272   7.417  0.5056 -0.2661 -0.5401
   95CHL1   H17 9461   3.578   4.344   7.404  0.1182 -0.7406 -0.6369
   95CHL1   C13 9462   3.664   4.176   7.296 -0.4364 -0.1640 -0.0012
   95CHL1   C18 9463   3.774   4.070   7.322  0.5110 -0.3732  0.3631
   95CHL1  H18A 9464   3.874   4.116   7.337 -0.6305  1.6637  1.9392
   95CHL1  H18B 9465   3.752   4.015   7.416 -1.5255 -2.9623 -1.5487
   95CHL1  H18C 9466   3.780   3.993   7.242  0.9283 -1.0065  1.0045
   95CHL1   C12 9467   3.526   4.119   7.257 -0.2681 -0.0925 -0.4163
   95CHL1  H12A 9468   3.486   4.049   7.333 -0.6241  0.3765 -0.1765
   95CHL1  H12B 9469   3.455   4.204   7.248  1.8845  1.4965 -2.9819
   95CHL1   C11 9470   3.514   4.057   7.118 -0.0334  1.3557  0.3816
   95CHL1  H11A 9471   3.574   3.963   7.124  2.2975  2.8301  1.1174
   95CHL1  H11B 9472   3.409   4.040   7.087  0.3771  1.8292 -1.3080
   95CHL1    C9 9473   3.574   4.146   7.002  0.2920  0.2855  0.2261
   95CHL1    H9 9474   3.508   4.235   7.014  0.2398  0.4436 -1.1336
   95CHL1   C10 9475   3.571   4.083   6.873  0.6842 -0.5727  0.3104
   95CHL1   C19 9476   3.638   3.941   6.868 -0.2747 -1.0635 -0.6907
   95CHL1  H19A 9477   3.566   3.865   6.905 -0.5443  0.1571  1.3693
   95CHL1  H19B 9478   3.673   3.911   6.767  1.1731  0.5250 -0.6883
   95CHL1  H19C 9479   3.721   3.934   6.941 -0.5940  1.3204 -0.0468
   95CHL1    C1 9480   3.421   4.065   6.835  0.4191 -0.0823  1.0380
   95CHL1   H1A 9481   3.360   3.997   6.898  0.0983  0.5874  1.4548
   95CHL1   H1B 9482   3.372   4.164   6.846  0.0493 -0.2227  0.6585
   95CHL1    C2 9483   3.400   4.013   6.693 -0.7089 -1.0826 -0.1625
   95CHL1   H2A 9484   3.293   4.002   6.664 -1.2381  1.1583  0.8597
   95CHL1   H2B 9485   3.449   3.914   6.685  0.8475 -0.8359  4.7141
   95CHL1   C20 9486   3.665   4.225   7.560  0.5648 -0.4138  0.7251
   95CHL1   H20 9487   3.741   4.147   7.580  0.4923 -0.3631  1.2021
   95CHL1   C21 9488   3.532   4.146   7.583 -0.4168 -0.1172  0.1364
   95CHL1  H21A 9489   3.539   4.044   7.540  2.0038 -0.8031  2.0188
   95CHL1  H21B 9490   3.452   4.197   7.525 -0.2748 -0.4517 -0.3610
   95CHL1  H21C 9491   3.502   4.141   7.690  0.7931  0.0713  0.4988
   95CHL1   C22 9492   3.671   4.334   7.667  0.0056 -0.4231 -0.0026
   95CHL1  H22A 9493   3.769   4.385   7.663 -0.4464  0.5022  0.5232
   95CHL1  H22B 9494   3.579   4.395   7.658  0.9606  1.0169 -0.1411
   95CHL1   C23 9495   3.652   4.294   7.816  0.4968 -0.3547 -0.8141
   95CHL1  H23A 9496   3.545   4.273   7.838  1.1183  0.8465  3.7215
   95CHL1  H23B 9497   3.706   4.200   7.842 -1.6603 -2.2231 -2.7845
   95CHL1   C24 9498   3.706   4.403   7.903  0.0990 -1.1402 -0.6371
   95CHL1  H24A 9499   3.817   4.401   7.895  0.2836 -1.9016  1.7340
   95CHL1  H24B 9500   3.667   4.498   7.860 -0.0596 -1.7465 -1.8817
   95CHL1   C25 9501   3.672   4.378   8.053  0.6268 -0.2591  0.6750
   95CHL1   H25 9502   3.717   4.281   8.083  2.3506  0.7293  1.3683
   95CHL1   C26 9503   3.751   4.472   8.145 -0.4050  0.1329 -0.0251
   95CHL1  H26A 9504   3.860   4.453   8.143 -0.1981  0.9792  1.8134
   95CHL1  H26B 9505   3.730   4.578   8.122 -1.8930 -0.1615 -0.0776
   95CHL1  H26C 9506   3.706   4.442   8.243 -0.1918 -2.6767 -0.7384
   95CHL1   C27 9507   3.526   4.364   8.099 -0.3337  0.0190  0.0680
   95CHL1  H27A 9508   3.471   4.444   8.044 -0.8141 -0.5585 -0.2978
   95CHL1  H27B 9509   3.478   4.270   8.064  2.0008 -0.9862 -0.5358
   95CHL1  H27C 9510   3.531   4.366   8.210  1.5702  0.2692 -0.0147
   96CHL1    C3 9511   3.921   3.326   6.783 -0.3285 -0.4327 -0.1637
   96CHL1    H3 9512   4.023   3.302   6.820 -0.5120 -1.1414 -0.1091
   96CHL1    O3 9513   3.903   3.281   6.648 -0.1965 -0.0630  0.6169
   96CHL1   H3' 9514   3.811   3.286   6.622 -0.3808 -0.7032  1.1358
   96CHL1    C4 9515   3.816   3.267   6.882 -0.3654  0.5584 -0.3574
   96CHL1   H4A 9516   3.712   3.277   6.844  0.1303 -0.5590 -2.0653
   96CHL1   H4B 9517   3.827   3.157   6.885 -0.8081  0.5356  0.6965
   96CHL1    C5 9518   3.820   3.320   7.026 -0.1213  0.0660  0.4204
   96CHL1    C6 9519   3.828   3.234   7.128  0.0299  0.2485  0.0943
   96CHL1    H6 9520   3.834   3.125   7.121  2.3308  0.1806  2.5262
   96CHL1    C7 9521   3.827   3.287   7.269 -0.2061  0.1065  0.9039
   96CHL1   H7A 9522   3.758   3.223   7.328  0.0851 -1.6256 -0.5819
   96CHL1   H7B 9523   3.929   3.262   7.305  0.8307 -0.0163 -2.0076
   96CHL1    C8 9524   3.805   3.436   7.292  0.1852  0.2214  0.1348
   96CHL1    H8 9525   3.698   3.457   7.276 -0.8868 -2.5083  3.1627
   96CHL1   C14 9526   3.843   3.472   7.429 -0.2218  0.0237 -0.2794
   96CHL1   H14 9527   3.953   3.456   7.432  0.3004  3.3669 -0.5015
   96CHL1   C15 9528   3.777   3.403   7.552  0.0956  0.9610 -0.4221
   96CHL1  H15A 9529   3.667   3.402   7.544  0.1505 -0.9411 -1.2972
   96CHL1  H15B 9530   3.824   3.302   7.560  0.5525  1.0193 -2.1650
   96CHL1   C16 9531   3.807   3.504   7.665 -0.2506  0.0472 -0.2954
   96CHL1  H16A 9532   3.715   3.527   7.724  0.4487 -0.8763  1.1876
   96CHL1  H16B 9533   3.872   3.463   7.745  0.0683  1.1929  0.0419
   96CHL1   C17 9534   3.875   3.629   7.603 -0.0184  0.2727  0.5033
   96CHL1   H17 9535   3.983   3.605   7.617 -0.3291 -1.9472 -0.6892
   96CHL1   C13 9536   3.834   3.625   7.459  0.4708  0.5911  0.0157
   96CHL1   C18 9537   3.692   3.683   7.459  0.2620  0.4202  0.0676
   96CHL1  H18A 9538   3.672   3.784   7.500 -1.5061 -0.0910  0.4696
   96CHL1  H18B 9539   3.653   3.691   7.355 -0.8847  2.7350  0.6462
   96CHL1  H18C 9540   3.614   3.611   7.492 -0.5335  0.1205 -2.3229
   96CHL1   C12 9541   3.921   3.705   7.359  0.1660 -0.7070 -0.1284
   96CHL1  H12A 9542   3.915   3.812   7.386 -0.3895 -0.6886 -0.3100
   96CHL1  H12B 9543   4.029   3.678   7.367  0.8037  1.8048  0.0365
   96CHL1   C11 9544   3.880   3.679   7.207  0.4323 -0.2496  0.2661
   96CHL1  H11A 9545   3.780   3.724   7.187  0.7688  0.0791 -0.7245
   96CHL1  H11B 9546   3.956   3.729   7.143 -1.8090  1.2444 -1.3139
   96CHL1    C9 9547   3.880   3.519   7.184 -0.6420  0.1829 -0.2860
   96CHL1    H9 9548   3.986   3.487   7.186 -0.9393 -0.7748  0.4130
   96CHL1   C10 9549   3.834   3.478   7.044  0.0642  0.2603  0.3949
   96CHL1   C19 9550   3.703   3.544   7.010  0.5168 -0.5458  0.2842
   96CHL1  H19A 9551   3.628   3.532   7.091 -3.5492  1.2243 -2.9936
   96CHL1  H19B 9552   3.727   3.651   6.989  1.7690 -0.7308  0.7518
   96CHL1  H19C 9553   3.671   3.499   6.913 -3.4709 -1.8832  2.0799
   96CHL1    C1 9554   3.940   3.521   6.937  0.2030  0.9181 -0.6584
   96CHL1   H1A 9555   3.938   3.632   6.943  1.1900  0.8146  2.1576
   96CHL1   H1B 9556   4.043   3.484   6.956 -0.2631  0.4332  0.9780
   96CHL1    C2 9557   3.920   3.482   6.788  0.0617 -0.2340 -0.7709
   96CHL1   H2A 9558   3.998   3.519   6.717  0.9532  1.2490  0.9319
   96CHL1   H2B 9559   3.818   3.501   6.750 -0.4584  1.4804  1.4161
   96CHL1   C20 9560   3.867   3.763   7.691  0.0578 -0.3696 -0.6469
   96CHL1   H20 9561   3.789   3.832   7.653 -0.8998 -0.5402  0.9617
   96CHL1   C21 9562   4.009   3.835   7.671  0.2214 -0.2441  0.2132
   96CHL1  H21A 9563   4.086   3.762   7.702  0.9968  0.0820 -0.9286
   96CHL1  H21B 9564   4.025   3.933   7.720 -0.4589 -0.4805  0.9227
   96CHL1  H21C 9565   4.018   3.853   7.562 -1.4354 -0.0792  0.0811
   96CHL1   C22 9566   3.854   3.732   7.842  0.5690 -0.2280 -0.0938
   96CHL1  H22A 9567   3.784   3.648   7.863  0.7480 -0.4164 -0.2467
   96CHL1  H22B 9568   3.952   3.692   7.875  0.0602 -2.0764 -0.7655
   96CHL1   C23 9569   3.821   3.849   7.927  0.2226 -0.3223 -0.1806
   96CHL1  H23A 9570   3.894   3.931   7.911 -0.0078  0.1105  0.9670
   96CHL1  H23B 9571   3.723   3.888   7.893 -0.3747 -1.2487  0.4529
   96CHL1   C24 9572   3.814   3.798   8.076 -0.4554  0.3075 -0.2548
   96CHL1  H24A 9573   3.743   3.713   8.085 -1.3159  1.2807  2.7989
   96CHL1  H24B 9574   3.914   3.768   8.111  0.0176  1.8615 -0.2391
   96CHL1   C25 9575   3.774   3.911   8.181  0.1082 -0.6716  0.2716
   96CHL1   H25 9576   3.665   3.925   8.165  0.2409  0.5876  0.3950
   96CHL1   C26 9577   3.786   3.859   8.319 -0.2881  0.2263  0.0714
   96CHL1  H26A 9578   3.752   3.755   8.335 -0.5425  0.5342  1.6462
   96CHL1  H26B 9579   3.890   3.861   8.358  0.1162  1.0619 -1.0138
   96CHL1  H26C 9580   3.735   3.924   8.394  0.8923  1.6568 -0.3545
   96CHL1   C27 9581   3.829   4.058   8.164 -0.5195  0.5139  0.0955
   96CHL1  H27A 9582   3.812   4.091   8.059  1.8464 -0.3543 -0.6024
   96CHL1  H27B 9583   3.768   4.120   8.233  1.3430  1.8087  0.6342
   96CHL1  H27C 9584   3.935   4.066   8.198 -1.1819 -0.0265  2.3408
   97OSM      N 9585   2.287   4.233  11.076 -0.0347 -0.7122  0.3503
   97OSM    C15 9586   2.301   4.127  10.977 -0.0327 -0.3043  0.5626
   97OSM   H15A 9587   2.228   4.047  10.983 -2.0406  1.3449 -1.0511
   97OSM   H15B 9588   2.395   4.075  10.982 -0.1761 -0.4147  2.5768
   97OSM   H15C 9589   2.311   4.178  10.883  2.1845  0.1667  1.0370
   97OSM    C14 9590   2.289   4.176  11.221  0.3602  0.2085  0.1957
   97OSM   H14A 9591   2.368   4.104  11.235 -0.2647 -0.3856  0.6449
   97OSM   H14B 9592   2.199   4.119  11.236 -0.1870  0.7582 -0.9027
   97OSM   H14C 9593   2.292   4.254  11.296  2.0438  0.9920 -0.6247
   97OSM    C13 9594   2.410   4.318  11.052  0.4824  0.5357  0.1933
   97OSM   H13A 9595   2.504   4.265  11.055  0.4081  0.4559  1.3459
   97OSM   H13B 9596   2.405   4.411  11.108  3.8177  0.6047  0.4925
   97OSM   H13C 9597   2.410   4.357  10.951  0.4419 -0.2507 -0.1108
   97OSM    C12 9598   2.162   4.317  11.053 -0.1775  0.6596  0.5061
   97OSM   H12A 9599   2.075   4.254  11.061 -0.4118  0.8902 -0.1988
   97OSM   H12B 9600   2.163   4.350  10.950  1.4446 -0.0679  0.2626
   97OSM    C11 9601   2.134   4.435  11.147  0.4742 -0.4694 -0.0681
   97OSM   H11A 9602   2.133   4.394  11.250 -2.6810  1.5962  0.7978
   97OSM   H11B 9603   2.034   4.480  11.132 -0.2510 -0.6621  3.6506
   97OSM      P 9604   2.224   4.660  11.053  0.1887 -0.2838  0.1675
   97OSM    O13 9605   2.103   4.733  11.102  0.1431 -0.7123 -0.2735
   97OSM    O14 9606   2.350   4.739  11.059  0.1560  0.2051 -0.9105
   97OSM    O11 9607   2.191   4.605  10.911 -0.3343  0.5025 -0.3971
   97OSM    O12 9608   2.247   4.531  11.148  0.3261 -0.1436  0.2180
   97OSM    C1S 9609   2.059   4.629  10.851  0.4103  0.2108 -0.1580
   97OSM    H1S 9610   2.022   4.732  10.868  0.5516  0.0672  1.0734
   97OSM    H1T 9611   1.983   4.564  10.900  0.0742 -0.0176 -0.9817
   97OSM     NF 9612   1.929   4.664  10.645  0.2001 -0.7027  0.1274
   97OSM    HNF 9613   1.861   4.600  10.610 -0.9064  0.2013  0.5893
   97OSM    C2S 9614   2.056   4.607  10.696  0.6107 -0.2184  0.1158
   97OSM    H2S 9615   2.141   4.665  10.653  1.0397  0.2692  1.5822
   97OSM    C3S 9616   2.077   4.452  10.675 -0.7941  0.1160  0.2068
   97OSM    H3S 9617   1.980   4.409  10.709 -0.8989 -0.4476 -0.7874
   97OSM     O3 9618   2.187   4.387  10.750 -0.2830 -0.3359  0.3177
   97OSM    HO3 9619   2.227   4.457  10.802  1.0703 -2.2119  1.8218
   97OSM    C4S 9620   2.091   4.412  10.529 -0.0432  0.7412  1.1038
   97OSM    H4S 9621   2.004   4.368  10.479  1.6962 -0.5724 -0.8618
   97OSM    C5S 9622   2.201   4.419  10.451 -0.1276 -0.2419  0.1622
   97OSM    H5S 9623   2.282   4.482  10.491 -0.4115  0.2562 -0.0362
   97OSM    C6S 9624   2.203   4.391  10.305  0.1073  0.5516  0.6384
   97OSM    H6S 9625   2.130   4.311  10.280  0.1349  0.4633  0.8531
   97OSM    H6T 9626   2.301   4.353  10.269 -1.2568 -0.8343 -1.7506
   97OSM    C7S 9627   2.191   4.508  10.194 -0.0334  0.0652  0.5065
   97OSM    H7S 9628   2.269   4.585  10.214  1.1714 -1.4506  1.7393
   97OSM    H7T 9629   2.093   4.559  10.204  0.1178  0.9312 -2.0350
   97OSM    C8S 9630   2.201   4.462  10.049  0.4037 -0.1115 -0.1103
   97OSM    H8S 9631   2.111   4.406  10.015 -1.2899  3.7364 -2.2804
   97OSM    H8T 9632   2.296   4.404  10.044 -0.3112 -1.3343  0.2228
   97OSM    C9S 9633   2.190   4.584   9.955 -0.2894  0.4506 -0.8817
   97OSM    H9S 9634   2.268   4.653   9.995  0.1311 -0.7840  0.4938
   97OSM    H9T 9635   2.095   4.637   9.979 -0.1131 -1.3024  4.4997
   97OSM   C10S 9636   2.206   4.539   9.812 -0.2306 -0.0256  0.9620
   97OSM   H10S 9637   2.105   4.498   9.793  0.0568 -0.2634 -0.0936
   97OSM   H10T 9638   2.281   4.457   9.802 -0.3973  0.0148 -0.7465
   97OSM   C11S 9639   2.229   4.646   9.706 -0.1700  0.2717  0.1980
   97OSM   H11S 9640   2.319   4.706   9.731  2.4217 -2.6552 -1.6695
   97OSM   H11T 9641   2.144   4.718   9.704  1.5597  2.3396 -0.6947
   97OSM   C12S 9642   2.249   4.602   9.564  0.4526  0.5245 -0.1843
   97OSM   H12S 9643   2.151   4.558   9.534  0.9176  0.4027 -1.5634
   97OSM   H12T 9644   2.328   4.524   9.559  0.1287  0.1654  0.2245
   97OSM   C13S 9645   2.268   4.717   9.467  0.1616  0.6145  0.3262
   97OSM   H13S 9646   2.373   4.755   9.466  0.0276  0.9705 -0.8817
   97OSM   H13T 9647   2.203   4.803   9.494 -1.2280  0.6299 -2.9137
   97OSM   C14S 9648   2.225   4.672   9.327 -0.6889 -0.6306 -0.1424
   97OSM   H14S 9649   2.119   4.639   9.324 -1.4867  1.9672 -2.4444
   97OSM   H14T 9650   2.302   4.597   9.299 -0.4341  0.4556 -2.4945
   97OSM   C15S 9651   2.236   4.791   9.227  0.0732  0.3690 -0.6248
   97OSM   H15S 9652   2.341   4.827   9.217  0.8737 -2.1868 -1.6137
   97OSM   H15T 9653   2.178   4.874   9.273 -1.4699 -0.1787 -1.5850
   97OSM   C16S 9654   2.177   4.754   9.091 -0.3770 -0.3647  0.0214
   97OSM   H16S 9655   2.071   4.722   9.103 -0.1983 -0.7037  0.7292
   97OSM   H16T 9656   2.240   4.673   9.049 -0.0665 -0.4895  0.7153
   97OSM   C17S 9657   2.178   4.869   8.987 -0.3777  0.1614 -0.1148
   97OSM   H17S 9658   2.274   4.924   8.982 -0.2555 -0.1586 -1.6192
   97OSM   H17T 9659   2.100   4.937   9.029 -0.5018 -1.4958  2.3953
   97OSM   C18S 9660   2.143   4.830   8.845 -0.5487 -0.1963 -0.1694
   97OSM   H18S 9661   2.158   4.910   8.768  0.7849 -2.2045 -2.0532
   97OSM   H18T 9662   2.036   4.804   8.835 -0.6971  0.3330  0.0250
   97OSM   H18U 9663   2.215   4.750   8.817 -1.2123 -0.5736 -0.8098
   97OSM    C1F 9664   1.908   4.797  10.639  0.0920 -0.3013 -0.0316
   97OSM     OF 9665   2.001   4.879  10.651  0.9405  0.0174  0.9003
   97OSM    C2F 9666   1.762   4.844  10.640  0.4138  0.3546 -0.0537
   97OSM    H2F 9667   1.730   4.833  10.745  0.4308 -2.8980 -0.3323
   97OSM    H2G 9668   1.700   4.762  10.595  0.1460  0.6940 -0.3097
   97OSM    C3F 9669   1.722   4.981  10.579  0.0754 -0.4230  0.2933
   97OSM    H3F 9670   1.806   5.048  10.607  0.4209 -1.3028  1.3710
   97OSM    H3G 9671   1.635   5.017  10.638 -2.0424 -1.5752 -2.0025
   97OSM    C4F 9672   1.706   4.988  10.434  0.2286 -0.4038 -0.4020
   97OSM    H4F 9673   1.688   5.093  10.401 -1.0829 -1.0357 -1.7595
   97OSM    H4G 9674   1.612   4.944  10.395  0.8147 -0.6706 -1.5397
   97OSM    C5F 9675   1.832   4.927  10.366  0.0206  0.0210 -0.0030
   97OSM    H5F 9676   1.831   4.816  10.375  2.1968 -0.1984 -2.0862
   97OSM    H5G 9677   1.918   4.967  10.423 -1.8446  2.6519  1.0595
   97OSM    C6F 9678   1.838   4.958  10.219  0.1675 -0.3212 -0.0893
   97OSM    H6F 9679   1.840   5.069  10.215 -2.5903 -0.2595 -0.4411
   97OSM    H6G 9680   1.742   4.929  10.173  0.4749 -0.6439 -0.5329
   97OSM    C7F 9681   1.962   4.907  10.141 -0.1284  0.2517 -0.0908
   97OSM    H7F 9682   1.964   4.797  10.153  0.7811  0.0178 -2.1215
   97OSM    H7G 9683   2.051   4.943  10.198  1.5755  0.4162 -2.7690
   97OSM    C8F 9684   1.959   4.955   9.991  1.0235 -0.6427 -0.2026
   97OSM    H8F 9685   1.938   5.064   9.992  1.2320 -0.6043 -0.1120
   97OSM    H8G 9686   1.887   4.900   9.926 -0.1045 -1.0814  1.3524
   97OSM    C9F 9687   2.091   4.946   9.918 -0.5510 -0.0461  0.3214
   97OSM    H9F 9688   2.152   4.860   9.951  0.0835  0.5782  0.7738
   97OSM   C10F 9689   2.140   5.017   9.812  0.5595 -0.6860  0.2294
   97OSM   H10F 9690   2.243   5.005   9.777  1.5824  4.1073  1.2602
   97OSM   C11F 9691   2.065   5.132   9.754 -0.4665  0.9167  0.0933
   97OSM   H11F 9692   2.124   5.226   9.760  1.5223 -0.2908 -0.2155
   97OSM   H11G 9693   1.974   5.150   9.815 -0.7065  0.7189 -0.2031
   97OSM   C12F 9694   2.036   5.123   9.601  0.7284 -0.1478  0.3041
   97OSM   H12F 9695   1.997   5.219   9.561  2.2049  0.1588 -0.4330
   97OSM   H12G 9696   1.961   5.043   9.585 -0.6908  1.1182  0.5269
   97OSM   C13F 9697   2.161   5.095   9.516  0.5577  0.6516 -0.5573
   97OSM   H13F 9698   2.200   4.991   9.514 -0.8987  0.0793  0.1574
   97OSM   H13G 9699   2.250   5.148   9.557  0.4659  0.3408  0.0419
   97OSM   C14F 9700   2.153   5.156   9.377 -0.1062 -0.4374 -0.5114
   97OSM   H14F 9701   2.116   5.261   9.378 -2.4077 -1.2176  0.9847
   97OSM   H14G 9702   2.087   5.108   9.301  1.8603  0.0047 -2.5625
   97OSM   C15F 9703   2.289   5.157   9.310  0.0134 -0.3579  0.2215
   97OSM   H15F 9704   2.330   5.055   9.291 -1.1798 -0.6487 -0.8802
   97OSM   H15G 9705   2.362   5.223   9.361 -0.7155 -0.3317  1.2606
   97OSM   C16F 9706   2.269   5.229   9.175 -0.2571  0.4648 -0.0156
   97OSM   H16F 9707   2.250   5.337   9.193  2.0218  0.5275  2.2136
   97OSM   H16G 9708   2.180   5.183   9.127  0.8627 -0.6311 -1.0699
   97OSM   C17F 9709   2.393   5.217   9.085  0.4033  0.1262 -0.2427
   97OSM   H17F 9710   2.421   5.110   9.082  1.3176  0.3751 -0.7479
   97OSM   H17G 9711   2.476   5.279   9.125 -0.0228  1.2400 -1.0643
   97OSM   C18F 9712   2.374   5.273   8.949 -0.1797  0.9106 -0.4774
   97OSM   H18F 9713   2.470   5.268   8.894 -1.3795 -0.4012 -2.5318
   97OSM   H18G 9714   2.339   5.379   8.944  0.7711  1.2979  0.8450
   97OSM   H18H 9715   2.301   5.209   8.895  0.5933 -0.0718 -0.3564
   98OSM      N 9716   1.285   4.543  11.322  0.2852 -0.3856 -0.5665
   98OSM    C15 9717   1.434   4.550  11.356  0.2057 -0.0734 -0.2264
   98OSM   H15A 9718   1.447   4.570  11.461 -1.3280  2.4267 -0.4601
   98OSM   H15B 9719   1.492   4.629  11.311 -0.4567  0.7097  0.2628
   98OSM   H15C 9720   1.463   4.451  11.325 -0.8411 -0.0615 -1.2943
   98OSM    C14 9721   1.227   4.412  11.362 -0.3871 -0.8772  0.3661
   98OSM   H14A 9722   1.290   4.336  11.319 -1.5191 -1.1230 -0.8732
   98OSM   H14B 9723   1.126   4.413  11.324 -1.1395 -1.0426  2.3109
   98OSM   H14C 9724   1.227   4.394  11.468  0.7909  0.1940  0.5634
   98OSM    C13 9725   1.213   4.643  11.400  0.1645  0.3946 -0.1093
   98OSM   H13A 9726   1.248   4.743  11.379 -0.0856  0.9263  1.9630
   98OSM   H13B 9727   1.228   4.625  11.505  0.1775 -0.3192 -0.2290
   98OSM   H13C 9728   1.106   4.636  11.381 -0.5705  0.3181  3.7677
   98OSM    C12 9729   1.277   4.568  11.174  1.3303 -0.2957  0.0034
   98OSM   H12A 9730   1.299   4.672  11.157 -0.5567 -0.0435 -1.0309
   98OSM   H12B 9731   1.175   4.541  11.149  0.1383  1.1311  3.0428
   98OSM    C11 9732   1.381   4.484  11.084 -0.9978 -0.3909  0.2315
   98OSM   H11A 9733   1.338   4.484  10.981 -2.5528 -3.5999  0.8251
   98OSM   H11B 9734   1.386   4.380  11.121 -1.1144 -0.2542  0.6388
   98OSM      P 9735   1.636   4.521  11.003 -0.1125  0.0464 -0.5053
   98OSM    O13 9736   1.698   4.648  10.948 -0.2221 -0.7709  0.0614
   98OSM    O14 9737   1.711   4.435  11.098  0.0921  0.8928 -0.6201
   98OSM    O11 9738   1.573   4.429  10.884 -0.1257 -0.0923  0.0290
   98OSM    O12 9739   1.502   4.560  11.078 -0.6629 -0.4369 -0.0702
   98OSM    C1S 9740   1.563   4.499  10.756  0.2982 -0.5725  0.0107
   98OSM    H1S 9741   1.662   4.533  10.718  0.5401 -0.1427  1.0162
   98OSM    H1T 9742   1.496   4.587  10.768  0.6337  0.0343 -2.4045
   98OSM     NF 9743   1.536   4.449  10.528  0.2119 -0.1000  0.2091
   98OSM    HNF 9744   1.462   4.483  10.470  0.4551 -1.7803 -1.1252
   98OSM    C2S 9745   1.508   4.396  10.656 -0.4374 -0.0332 -0.0284
   98OSM    H2S 9746   1.562   4.300  10.672 -0.2881 -0.1060 -0.9517
   98OSM    C3S 9747   1.358   4.357  10.660  0.2304 -0.4757 -0.5440
   98OSM    H3S 9748   1.300   4.437  10.611  0.5037 -1.7011 -2.9364
   98OSM     O3 9749   1.311   4.340  10.795 -0.1380  0.1107 -0.0252
   98OSM    HO3 9750   1.379   4.382  10.848  0.8915  0.2613 -1.4406
   98OSM    C4S 9751   1.330   4.231  10.578  0.3190 -1.0841  0.2506
   98OSM    H4S 9752   1.388   4.141  10.601  1.7573 -1.0540 -3.0093
   98OSM    C5S 9753   1.226   4.225  10.491 -0.0205 -0.2587  0.1066
   98OSM    H5S 9754   1.153   4.307  10.482  0.5573  0.4363  1.6182
   98OSM    C6S 9755   1.188   4.093  10.412 -0.6754 -0.1923  0.0896
   98OSM    H6S 9756   1.086   4.071  10.451 -2.4088  3.7661 -1.9265
   98OSM    H6T 9757   1.266   4.017  10.430 -0.7496 -0.5119 -0.9021
   98OSM    C7S 9758   1.183   4.114  10.262 -0.1421 -0.6745  0.7276
   98OSM    H7S 9759   1.279   4.156  10.225 -0.5494  0.1148  0.5598
   98OSM    H7T 9760   1.098   4.183  10.242 -2.1941 -3.3120  0.1130
   98OSM    C8S 9761   1.146   3.989  10.194  0.7012 -0.2444 -1.0725
   98OSM    H8S 9762   1.048   3.954  10.234  0.4669  0.8440 -0.6976
   98OSM    H8T 9763   1.222   3.908  10.209  1.6950  0.9511  0.4670
   98OSM    C9S 9764   1.123   4.009  10.044  0.5910 -0.8698  0.7024
   98OSM    H9S 9765   1.191   4.092  10.013 -0.1859 -0.2061  0.7600
   98OSM    H9T 9766   1.023   4.056  10.035  1.5114  0.8736 -0.6546
   98OSM   C10S 9767   1.123   3.884   9.961  0.6040  0.2561 -1.1929
   98OSM   H10S 9768   1.054   3.813  10.012  0.5055  2.1109  1.3636
   98OSM   H10T 9769   1.227   3.847   9.966  0.8428  1.1948  1.2186
   98OSM   C11S 9770   1.065   3.903   9.823 -0.4996  0.8267  0.1431
   98OSM   H11S 9771   0.968   3.955   9.831 -0.8565  0.1903 -0.0643
   98OSM   H11T 9772   1.047   3.799   9.790  0.6253  0.5535  0.3393
   98OSM   C12S 9773   1.152   3.965   9.717  0.3900 -0.1076  0.2485
   98OSM   H12S 9774   1.255   3.937   9.748  0.1982 -3.6472 -2.0045
   98OSM   H12T 9775   1.144   4.076   9.719  1.9146  0.0919 -2.8828
   98OSM   C13S 9776   1.116   3.914   9.577  0.2814 -0.1402 -0.4289
   98OSM   H13S 9777   1.007   3.924   9.560  0.1325 -1.9210 -0.6316
   98OSM   H13T 9778   1.129   3.804   9.577  0.7904 -0.0822  0.2208
   98OSM   C14S 9779   1.201   3.983   9.465  0.9807 -0.9025  0.3671
   98OSM   H14S 9780   1.310   3.970   9.478  1.3267 -0.0245 -1.5584
   98OSM   H14T 9781   1.180   4.092   9.468  1.0852 -0.7787 -2.2291
   98OSM   C15S 9782   1.163   3.942   9.323 -0.1333 -0.1809  0.2562
   98OSM   H15S 9783   1.054   3.951   9.302 -0.1501 -0.3900  0.2569
   98OSM   H15T 9784   1.187   3.834   9.311 -2.2908 -0.4093 -2.8839
   98OSM   C16S 9785   1.246   4.019   9.220  0.1192  0.4361  1.0549
   98OSM   H16S 9786   1.354   4.009   9.242  0.3702  0.7251 -0.0040
   98OSM   H16T 9787   1.223   4.128   9.230  2.3485  1.0271  0.0371
   98OSM   C17S 9788   1.228   3.971   9.077  0.0560  0.3487  0.1056
   98OSM   H17S 9789   1.125   3.964   9.035  0.5208  0.1676 -1.0061
   98OSM   H17T 9790   1.270   3.869   9.075  0.6421  0.5980 -0.1475
   98OSM   C18S 9791   1.304   4.071   8.981 -0.2579 -0.1624  0.2187
   98OSM   H18S 9792   1.402   4.096   9.027 -0.8619  0.2536  1.3143
   98OSM   H18T 9793   1.244   4.163   8.962  1.5891  1.0473  0.1177
   98OSM   H18U 9794   1.310   4.027   8.880  1.5152  1.2162 -0.2947
   98OSM    C1F 9795   1.661   4.437  10.473  0.8479 -0.3007 -0.0971
   98OSM     OF 9796   1.760   4.411  10.533 -0.0574  0.6142  0.0783
   98OSM    C2F 9797   1.661   4.464  10.331  0.8535 -0.6858  0.7191
   98OSM    H2F 9798   1.620   4.567  10.324  0.8358 -0.8051 -1.2840
   98OSM    H2G 9799   1.593   4.399  10.271  1.3701 -0.1188 -0.5123
   98OSM    C3F 9800   1.804   4.454  10.272 -0.8205 -0.0879 -0.0957
   98OSM    H3F 9801   1.843   4.350  10.277  1.9514  1.0155  3.4721
   98OSM    H3G 9802   1.879   4.508  10.334  0.2731 -1.1856 -0.4321
   98OSM    C4F 9803   1.812   4.519  10.130 -0.1750 -0.1895  0.1198
   98OSM    H4F 9804   1.914   4.498  10.092 -0.9120 -2.7016 -0.5811
   98OSM    H4G 9805   1.810   4.629  10.144  0.9344 -0.0421 -0.7787
   98OSM    C5F 9806   1.701   4.482  10.032 -0.2283  0.7747 -0.2099
   98OSM    H5F 9807   1.607   4.531  10.064 -0.2047  0.9866 -0.4659
   98OSM    H5G 9808   1.676   4.375  10.020 -0.8838  0.9766 -0.6933
   98OSM    C6F 9809   1.715   4.536   9.889 -0.3797  0.4108 -0.5510
   98OSM    H6F 9810   1.736   4.645   9.902  1.5348 -0.2681  2.5224
   98OSM    H6G 9811   1.625   4.512   9.827 -0.0735  0.7993 -1.1594
   98OSM    C7F 9812   1.841   4.484   9.803  0.4371 -0.2455  0.0929
   98OSM    H7F 9813   1.832   4.377   9.773  0.8193 -0.1758 -0.2821
   98OSM    H7G 9814   1.934   4.493   9.862 -1.6121  2.9177  2.9922
   98OSM    C8F 9815   1.858   4.577   9.675 -0.2875  0.2627  0.4849
   98OSM    H8F 9816   1.930   4.534   9.602  0.2423  0.5611  0.8277
   98OSM    H8G 9817   1.907   4.668   9.714  1.3830  0.5221 -2.1328
   98OSM    C9F 9818   1.725   4.616   9.598 -0.6390 -0.4348  0.0403
   98OSM    H9F 9819   1.641   4.546   9.608 -0.7472 -0.5799 -1.7866
   98OSM   C10F 9820   1.700   4.723   9.527  0.0784  0.3786  0.5436
   98OSM   H10F 9821   1.611   4.719   9.464 -0.1414 -0.0244  0.8774
   98OSM   C11F 9822   1.806   4.821   9.496 -0.2516  0.0669 -0.2856
   98OSM   H11F 9823   1.897   4.813   9.559  0.2367  3.7075 -0.3788
   98OSM   H11G 9824   1.760   4.922   9.501 -3.2763 -1.1338 -2.4817
   98OSM   C12F 9825   1.860   4.818   9.348 -0.2698  0.9567  0.3557
   98OSM   H12F 9826   1.910   4.721   9.328 -0.9728  0.3458  1.5098
   98OSM   H12G 9827   1.944   4.891   9.352 -1.7756  2.7357  0.1014
   98OSM   C13F 9828   1.765   4.875   9.243 -0.6728 -0.1860 -0.4588
   98OSM   H13F 9829   1.715   4.963   9.289 -2.6638 -0.7201 -1.5499
   98OSM   H13G 9830   1.678   4.807   9.231  0.8905 -2.5113  0.8500
   98OSM   C14F 9831   1.820   4.921   9.108  0.0314  0.8273  0.7889
   98OSM   H14F 9832   1.873   4.833   9.065 -2.3413 -0.4959  0.5042
   98OSM   H14G 9833   1.898   5.000   9.118  0.3304  0.5315  0.8452
   98OSM   C15F 9834   1.700   4.972   9.020  0.0101 -0.4152  0.3952
   98OSM   H15F 9835   1.668   5.064   9.073  0.3865  0.4461 -0.8227
   98OSM   H15G 9836   1.617   4.899   9.017  1.1415 -1.7064  0.0268
   98OSM   C16F 9837   1.752   5.008   8.881  0.5379  0.4418  0.4402
   98OSM   H16F 9838   1.803   4.916   8.845  2.8356  2.0731 -0.5577
   98OSM   H16G 9839   1.841   5.075   8.891  0.7203  0.0329  1.6034
   98OSM   C17F 9840   1.641   5.076   8.798 -0.6141  0.6594 -0.0242
   98OSM   H17F 9841   1.638   5.179   8.841 -0.0667  0.5778  0.2091
   98OSM   H17G 9842   1.543   5.028   8.820  0.3141 -0.4662  1.6896
   98OSM   C18F 9843   1.673   5.080   8.648  0.0945 -0.4456  0.5051
   98OSM   H18F 9844   1.600   5.141   8.591  0.1242 -0.1487  0.7860
   98OSM   H18G 9845   1.680   4.975   8.611 -1.6046  0.0762 -1.3873
   98OSM   H18H 9846   1.775   5.120   8.634 -0.4607  0.0223 -2.7783
   99OSM      N 9847   3.857   5.363  10.472 -0.3472 -0.5148 -0.3556
   99OSM    C15 9848   3.782   5.390  10.346  0.1767  0.1552 -0.1771
   99OSM   H15A 9849   3.699   5.321  10.335  0.6429 -0.4544  0.1363
   99OSM   H15B 9850   3.847   5.387  10.260 -0.8187  0.6480 -0.9686
   99OSM   H15C 9851   3.743   5.491  10.338  3.2965  1.3389 -0.9990
   99OSM    C14 9852   3.917   5.227  10.454  0.4627 -0.3848 -0.1508
   99OSM   H14A 9853   3.834   5.157  10.450  1.2212 -1.3557  0.8279
   99OSM   H14B 9854   3.973   5.199  10.542 -0.8735 -1.6279  0.3427
   99OSM   H14C 9855   3.980   5.224  10.367  1.1937  0.3640  0.3524
   99OSM    C13 9856   3.972   5.460  10.491 -0.1563 -0.6402  0.1977
   99OSM   H13A 9857   4.036   5.421  10.569 -3.0750 -1.3146  2.3396
   99OSM   H13B 9858   3.929   5.557  10.510 -0.3209 -0.7938  0.6172
   99OSM   H13C 9859   4.025   5.472  10.398  0.2444 -0.0422  0.5008
   99OSM    C12 9860   3.759   5.372  10.590 -0.0052 -0.4445 -0.5905
   99OSM   H12A 9861   3.655   5.359  10.565 -0.3452  3.3145 -1.4508
   99OSM   H12B 9862   3.767   5.474  10.624 -0.1152 -0.7615  0.4039
   99OSM    C11 9863   3.803   5.282  10.710  0.0112  0.7306  0.4921
   99OSM   H11A 9864   3.908   5.293  10.744  0.6704 -0.1035 -1.1875
   99OSM   H11B 9865   3.803   5.173  10.685  2.4469  1.2678 -2.0765
   99OSM      P 9866   3.651   5.193  10.899 -0.2945  0.0758 -0.2261
   99OSM    O13 9867   3.762   5.127  10.972 -0.1286 -0.2865 -0.7730
   99OSM    O14 9868   3.537   5.249  10.976  0.3309  0.7205 -0.8847
   99OSM    O11 9869   3.595   5.085  10.794  0.0252  0.3380 -0.0696
   99OSM    O12 9870   3.705   5.307  10.809 -0.1098 -0.1201 -0.3154
   99OSM    C1S 9871   3.487   5.104  10.703  0.2543 -0.5079 -0.3385
   99OSM    H1S 9872   3.490   5.208  10.665  0.1630 -0.5318 -0.4094
   99OSM    H1T 9873   3.391   5.080  10.754  0.0003 -0.1119 -0.6196
   99OSM     NF 9874   3.392   5.040  10.487  0.2428 -0.1934 -0.9745
   99OSM    HNF 9875   3.323   4.969  10.483 -0.5345  0.3449  1.8190
   99OSM    C2S 9876   3.501   5.012  10.579  0.0862  0.2041  0.2862
   99OSM    H2S 9877   3.597   5.027  10.526 -0.9485  0.4829 -1.5788
   99OSM    C3S 9878   3.506   4.858  10.629 -0.8235  0.2865 -0.0139
   99OSM    H3S 9879   3.408   4.815  10.659 -0.0663 -1.5845 -0.1913
   99OSM     O3 9880   3.587   4.819  10.740  0.1460  0.4732  0.3536
   99OSM    HO3 9881   3.610   4.894  10.795  0.1645  0.3392  0.5267
   99OSM    C4S 9882   3.555   4.773  10.516  0.0747  0.0251  0.7570
   99OSM    H4S 9883   3.647   4.812  10.469 -0.3749  2.3701  1.7012
   99OSM    C5S 9884   3.501   4.659  10.464 -0.1008  0.4547  0.7635
   99OSM    H5S 9885   3.399   4.631  10.496  0.7759 -2.8495  0.7843
   99OSM    C6S 9886   3.551   4.583  10.344  0.9371  0.0137 -0.7020
   99OSM    H6S 9887   3.485   4.591  10.255  1.2816 -1.5382 -1.1191
   99OSM    H6T 9888   3.552   4.478  10.382  3.2963  0.2841  0.0651
   99OSM    C7S 9889   3.697   4.619  10.296  0.3534 -0.2903  0.2237
   99OSM    H7S 9890   3.767   4.606  10.381 -1.4436 -1.5910  1.5252
   99OSM    H7T 9891   3.712   4.726  10.270 -0.1514  0.1984  1.8540
   99OSM    C8S 9892   3.751   4.526  10.185 -0.1653  0.2174 -0.3519
   99OSM    H8S 9893   3.774   4.426  10.227 -2.0794 -0.4831 -0.9201
   99OSM    H8T 9894   3.844   4.569  10.140 -0.5390 -0.5961 -1.9564
   99OSM    C9S 9895   3.660   4.514  10.068 -0.1116  0.1037 -0.1084
   99OSM    H9S 9896   3.629   4.609  10.020 -2.2705 -1.0157 -0.9759
   99OSM    H9T 9897   3.568   4.465  10.108 -0.4331  2.9547  2.8334
   99OSM   C10S 9898   3.719   4.411   9.967  0.2782 -0.3947 -0.3544
   99OSM   H10S 9899   3.756   4.325  10.027 -1.7128 -0.4208  0.8492
   99OSM   H10T 9900   3.808   4.457   9.918 -0.3521  0.2571 -0.8978
   99OSM   C11S 9901   3.620   4.368   9.858 -0.5222  0.3607  0.0103
   99OSM   H11S 9902   3.572   4.460   9.817  0.9961  2.0831  1.9622
   99OSM   H11T 9903   3.544   4.307   9.911  0.5961 -1.2303 -0.1849
   99OSM   C12S 9904   3.668   4.276   9.738  0.0710  0.1755  0.5371
   99OSM   H12S 9905   3.763   4.315   9.695  0.8873  0.4779  2.5234
   99OSM   H12T 9906   3.686   4.175   9.782 -1.4415 -0.6914 -0.8030
   99OSM   C13S 9907   3.581   4.282   9.613  1.0234 -0.5646  0.0543
   99OSM   H13S 9908   3.477   4.252   9.638  1.5603 -0.3260  2.7785
   99OSM   H13T 9909   3.623   4.207   9.543  0.0608 -0.1570 -0.9629
   99OSM   C14S 9910   3.602   4.407   9.534  0.0704  0.0265 -0.3831
   99OSM   H14S 9911   3.709   4.408   9.502  0.4549 -0.7507  0.8713
   99OSM   H14T 9912   3.585   4.478   9.617  0.6487  1.4085 -1.4080
   99OSM   C15S 9913   3.512   4.439   9.419 -0.2390  0.0545  0.3096
   99OSM   H15S 9914   3.539   4.542   9.387  0.2950 -0.7801 -2.0074
   99OSM   H15T 9915   3.404   4.441   9.445 -0.3884 -2.9741  0.0187
   99OSM   C16S 9916   3.534   4.343   9.297 -0.0639 -0.9305 -0.5094
   99OSM   H16S 9917   3.463   4.363   9.214  0.2528  2.8185  0.0161
   99OSM   H16T 9918   3.511   4.240   9.330  2.5776 -1.3900  0.0205
   99OSM   C17S 9919   3.668   4.343   9.228 -0.0802 -0.0630 -0.2097
   99OSM   H17S 9920   3.755   4.320   9.292  0.9656  0.4570 -1.4157
   99OSM   H17T 9921   3.686   4.449   9.202  1.1949 -0.5867 -1.5181
   99OSM   C18S 9922   3.672   4.249   9.102  0.0797  0.0137 -0.0123
   99OSM   H18S 9923   3.578   4.268   9.045 -0.6474  1.8064  1.7268
   99OSM   H18T 9924   3.686   4.144   9.135  1.1852  0.6710  1.6557
   99OSM   H18U 9925   3.751   4.277   9.029 -0.5672  0.6976 -0.4584
   99OSM    C1F 9926   3.379   5.158  10.433 -0.0730 -0.2638  0.1992
   99OSM     OF 9927   3.474   5.231  10.431  0.2321 -0.4133  0.4821
   99OSM    C2F 9928   3.244   5.199  10.390 -0.0931  0.2582  0.0286
   99OSM    H2F 9929   3.234   5.305  10.422 -0.3248 -0.1888  1.5198
   99OSM    H2G 9930   3.167   5.140  10.445  1.2149  0.7879  2.5207
   99OSM    C3F 9931   3.216   5.207  10.239 -0.5363 -0.5648 -0.9337
   99OSM    H3F 9932   3.281   5.282  10.191 -1.1794  0.8516  0.3756
   99OSM    H3G 9933   3.225   5.104  10.197  0.8394 -1.2250  0.9264
   99OSM    C4F 9934   3.072   5.269  10.210  0.4101  0.7846  0.9791
   99OSM    H4F 9935   3.068   5.369  10.259  1.3155  1.2961  0.0340
   99OSM    H4G 9936   3.005   5.195  10.257  0.8369  0.2620  0.7684
   99OSM    C5F 9937   3.044   5.275  10.051 -0.1304  0.5121  0.3035
   99OSM    H5F 9938   2.939   5.312  10.046 -0.2234 -0.0008 -2.4028
   99OSM    H5G 9939   3.055   5.172  10.011  1.3436  0.5861  0.5105
   99OSM    C6F 9940   3.139   5.374   9.979  0.2658 -0.5338 -0.3151
   99OSM    H6F 9941   3.241   5.331   9.973  1.1034  1.3247  0.4965
   99OSM    H6G 9942   3.125   5.469  10.035 -0.8965 -1.1237  0.4331
   99OSM    C7F 9943   3.088   5.418   9.844  0.5516  0.4298 -0.8444
   99OSM    H7F 9944   3.176   5.462   9.793 -0.4224  0.0056 -2.9455
   99OSM    H7G 9945   3.005   5.492   9.848  1.0398  0.9048  2.6118
   99OSM    C8F 9946   3.045   5.298   9.757  0.7516  0.0291  1.1194
   99OSM    H8F 9947   2.957   5.249   9.803  1.2718 -2.3445 -0.3773
   99OSM    H8G 9948   3.130   5.227   9.751 -0.7940 -1.7159 -0.4117
   99OSM    C9F 9949   2.999   5.341   9.618  0.9110 -1.3999 -0.8815
   99OSM    H9F 9950   2.889   5.345   9.612  0.9402  0.6045 -0.6458
   99OSM   C10F 9951   3.078   5.369   9.512 -0.1002  0.4736 -0.1392
   99OSM   H10F 9952   3.025   5.398   9.419 -0.6132  2.2102  0.6586
   99OSM   C11F 9953   3.222   5.346   9.499  0.4115 -0.4363  0.2305
   99OSM   H11F 9954   3.256   5.286   9.586  2.7060  0.4762 -0.0018
   99OSM   H11G 9955   3.293   5.431   9.495  1.0129 -0.9697 -0.4777
   99OSM   C12F 9956   3.254   5.267   9.371 -0.2146 -0.7316 -0.3697
   99OSM   H12F 9957   3.365   5.264   9.366 -0.1929  0.0044 -0.3584
   99OSM   H12G 9958   3.230   5.345   9.297 -1.5337 -0.3729  0.4112
   99OSM   C13F 9959   3.179   5.131   9.360  0.4364  0.2872 -0.2919
   99OSM   H13F 9960   3.072   5.156   9.373  0.7254  1.4099 -0.0565
   99OSM   H13G 9961   3.213   5.062   9.440  0.2818 -0.3816 -0.7915
   99OSM   C14F 9962   3.202   5.064   9.227  0.0674 -0.0159  0.5496
   99OSM   H14F 9963   3.162   4.960   9.236 -0.2355  0.2582  2.5018
   99OSM   H14G 9964   3.310   5.057   9.202 -0.2009 -2.2460 -0.0787
   99OSM   C15F 9965   3.123   5.125   9.104 -0.1971 -0.0339 -0.1020
   99OSM   H15F 9966   3.130   5.236   9.101  0.9377 -0.1204 -0.7796
   99OSM   H15G 9967   3.022   5.090   9.135 -0.2796  0.1072 -0.2071
   99OSM   C16F 9968   3.151   5.066   8.971 -1.2354 -0.0097 -0.9212
   99OSM   H16F 9969   3.104   5.130   8.893  0.5561  2.0685 -0.3615
   99OSM   H16G 9970   3.104   4.966   8.977  0.7434 -0.9215 -0.0616
   99OSM   C17F 9971   3.295   5.037   8.916  0.5121  0.4078  0.3321
   99OSM   H17F 9972   3.355   4.968   8.978  0.2230 -0.0071  0.1518
   99OSM   H17G 9973   3.354   5.131   8.913 -0.5801  1.0747 -0.6131
   99OSM   C18F 9974   3.296   4.974   8.770 -0.2225  0.1771  0.1657
   99OSM   H18F 9975   3.276   5.055   8.697  2.3357  0.4729 -0.2458
   99OSM   H18G 9976   3.225   4.889   8.760  0.8283 -0.8440  1.2331
   99OSM   H18H 9977   3.392   4.934   8.731 -0.8293 -0.6300 -0.5260
  100OSM      N 9978   6.056   5.602  11.012 -0.6255 -0.0683  0.3781
  100OSM    C15 9979   6.154   5.650  11.112 -0.5053  0.8819  0.6394
  100OSM   H15A 9980   6.120   5.735  11.171  3.1388  0.0308  4.1708
  100OSM   H15B 9981   6.239   5.694  11.060 -0.4410  0.2614  0.2220
  100OSM   H15C 9982   6.194   5.572  11.174  0.5788  0.2715 -0.8017
  100OSM    C14 9983   5.949   5.531  11.088 -0.8755 -0.7136 -0.0651
  100OSM   H14A 9984   5.874   5.493  11.020 -0.7371 -2.2498  0.6186
  100OSM   H14B 9985   5.898   5.600  11.154 -3.0049 -1.4119 -0.9360
  100OSM   H14C 9986   5.987   5.446  11.142 -0.8392  0.0968  1.2088
  100OSM    C13 9987   6.007   5.721  10.932 -0.1472  0.2215 -0.4075
  100OSM   H13A 9988   5.935   5.687  10.859 -0.5786  0.2932 -0.0132
  100OSM   H13B 9989   6.082   5.764  10.867 -0.0017 -0.2800 -0.5791
  100OSM   H13C 9990   5.972   5.805  10.989 -2.0809  0.9714 -2.6083
  100OSM    C12 9991   6.128   5.503  10.918  0.6325 -0.1845  0.6371
  100OSM   H12A 9992   6.162   5.424  10.985  0.1556  0.2170  1.3625
  100OSM   H12B 9993   6.213   5.550  10.872 -0.7924  0.4980 -1.3438
  100OSM    C11 9994   6.041   5.449  10.801 -0.0729  0.2850 -0.3932
  100OSM   H11A 9995   6.102   5.378  10.741 -1.7890 -0.3020 -1.4885
  100OSM   H11B 9996   6.003   5.530  10.735 -2.0504  0.1997  0.6098
  100OSM      P 9997   5.780   5.381  10.797 -0.1740 -0.3265  0.1560
  100OSM    O13 9998   5.730   5.242  10.792  0.0470  0.3775  0.4953
  100OSM    O14 9999   5.702   5.480  10.870  0.1845 -0.3358  0.3517
  100OSM    O1110000   5.798   5.429  10.646 -0.3591 -0.3348 -0.5501
  100OSM    O1210001   5.930   5.375  10.851 -0.8535  0.1898  0.8611
  100OSM    C1S10002   5.876   5.355  10.552 -1.0872 -0.0780 -0.3480
  100OSM    H1S10003   5.882   5.247  10.575  2.4281  0.3358  0.9032
  100OSM    H1T10004   5.976   5.401  10.543 -1.3242  0.8902  1.6481
  100OSM     NF10005   5.851   5.254  10.324  0.2461 -0.4095  0.1859
  100OSM    HNF10006   5.936   5.273  10.274  0.3184  0.3833  0.6027
  100OSM    C2S10007   5.812   5.366  10.406  0.0633  0.5384  0.4178
  100OSM    H2S10008   5.701   5.366  10.416  0.1232  0.9758  1.0876
  100OSM    C3S10009   5.835   5.513  10.350 -1.2691 -0.1086 -0.5854
  100OSM    H3S10010   5.940   5.532  10.320 -0.5282 -1.4195  1.1022
  100OSM     O310011   5.792   5.604  10.451  0.1671 -0.7946  0.1785
  100OSM    HO310012   5.787   5.550  10.530  2.2162 -1.4302 -0.0824
  100OSM    C4S10013   5.761   5.547  10.221  0.3724 -0.1888  0.5702
  100OSM    H4S10014   5.651   5.546  10.229  0.5657 -0.7969  4.0746
  100OSM    C5S10015   5.829   5.611  10.118 -0.3510 -0.1589  0.0169
  100OSM    H5S10016   5.937   5.625  10.106 -0.0869  1.2813  3.4325
  100OSM    C6S10017   5.741   5.650  10.003  0.2248 -0.0227 -0.0737
  100OSM    H6S10018   5.760   5.759  10.004  1.2957 -0.1933 -1.6358
  100OSM    H6T10019   5.635   5.620  10.018  0.7692 -2.2073 -0.3740
  100OSM    C7S10020   5.789   5.584   9.867  0.1256  0.1924 -0.0777
  100OSM    H7S10021   5.779   5.474   9.870  0.7262  0.1645  2.4285
  100OSM    H7T10022   5.896   5.608   9.848  0.5297 -0.8708  0.8272
  100OSM    C8S10023   5.718   5.630   9.733 -0.2232  0.2130  1.0014
  100OSM    H8S10024   5.741   5.736   9.710 -0.3805  0.5997  2.5739
  100OSM    H8T10025   5.608   5.618   9.723  0.0529 -0.6049 -1.4980
  100OSM    C9S10026   5.774   5.541   9.623  0.0752  0.5255 -0.4437
  100OSM    H9S10027   5.769   5.433   9.649 -1.1995  0.4122 -1.1217
  100OSM    H9T10028   5.882   5.560   9.601  0.3972  1.3586  1.8030
  100OSM   C10S10029   5.711   5.572   9.484  0.4839  0.4115 -0.4430
  100OSM   H10S10030   5.715   5.681   9.462  0.0393  0.2363 -1.4504
  100OSM   H10T10031   5.602   5.550   9.481  0.8079 -1.3201 -0.0678
  100OSM   C11S10032   5.790   5.499   9.375 -0.2806 -0.3451  0.1574
  100OSM   H11S10033   5.830   5.406   9.422 -1.3947  0.5085  2.8624
  100OSM   H11T10034   5.870   5.565   9.337 -1.1425  0.1614 -0.8036
  100OSM   C12S10035   5.702   5.444   9.266  0.6541  0.1922  0.5195
  100OSM   H12S10036   5.766   5.394   9.190 -0.4857  0.9162 -0.9516
  100OSM   H12T10037   5.638   5.522   9.220 -0.6449 -0.9247  0.4019
  100OSM   C13S10038   5.611   5.325   9.315 -0.2766 -0.0333 -0.2398
  100OSM   H13S10039   5.540   5.364   9.391 -1.6882 -3.6594  0.3778
  100OSM   H13T10040   5.675   5.249   9.364 -0.1453 -0.0564 -0.4439
  100OSM   C14S10041   5.528   5.276   9.200 -0.8085  0.3716 -0.2236
  100OSM   H14S10042   5.582   5.198   9.143 -0.4781 -1.1690  2.0902
  100OSM   H14T10043   5.502   5.360   9.132  0.5160  1.4368  0.5649
  100OSM   C15S10044   5.396   5.207   9.249  0.6613  0.1487  0.6214
  100OSM   H15S10045   5.336   5.280   9.307  1.2215  2.0557 -1.1472
  100OSM   H15T10046   5.422   5.123   9.317  1.5096  2.0175  2.6659
  100OSM   C16S10047   5.308   5.169   9.132 -0.3342 -0.3899 -1.0984
  100OSM   H16S10048   5.373   5.107   9.067  0.8189 -2.1553  1.6260
  100OSM   H16T10049   5.293   5.263   9.075  2.4297  0.7236 -0.0725
  100OSM   C17S10050   5.177   5.109   9.175  0.8494  0.3995  0.1742
  100OSM   H17S10051   5.112   5.072   9.092 -1.5259  2.5821  0.9997
  100OSM   H17T10052   5.120   5.191   9.224 -0.7119 -0.7159  0.2517
  100OSM   C18S10053   5.190   4.987   9.273 -0.1437  0.1712  0.6244
  100OSM   H18S10054   5.239   5.020   9.367 -1.4616 -0.9976  1.7355
  100OSM   H18T10055   5.247   4.905   9.223 -0.5248  0.8187 -0.9205
  100OSM   H18U10056   5.088   4.953   9.299 -0.2282  0.9423  1.3262
  100OSM    C1F10057   5.796   5.133  10.342 -0.5811 -0.1922 -0.2213
  100OSM     OF10058   5.717   5.112  10.433 -0.0547 -0.0630 -0.5545
  100OSM    C2F10059   5.863   5.034  10.251 -0.0193 -0.4391  0.4632
  100OSM    H2F10060   5.902   4.949  10.310  0.0789 -1.4492 -1.0292
  100OSM    H2G10061   5.954   5.073  10.200 -0.8590  0.3417 -0.4701
  100OSM    C3F10062   5.758   4.987  10.144 -0.2129 -0.3530  0.5939
  100OSM    H3F10063   5.669   4.952  10.201 -1.3203 -0.3280 -1.1001
  100OSM    H3G10064   5.796   4.891  10.103  2.3688  0.2021  1.6029
  100OSM    C4F10065   5.749   5.073  10.025 -0.3151 -1.0202  0.0718
  100OSM    H4F10066   5.847   5.084   9.973 -0.3140 -2.0498 -0.1511
  100OSM    H4G10067   5.718   5.177  10.050 -1.9606 -1.5860  0.4085
  100OSM    C5F10068   5.641   5.023   9.924  0.1923 -0.4241 -0.1035
  100OSM    H5F10069   5.544   5.018   9.977  1.0059  1.9735  1.6947
  100OSM    H5G10070   5.681   4.930   9.878  0.9396 -0.5763  0.8474
  100OSM    C6F10071   5.620   5.120   9.809  0.2296  0.4099 -0.1045
  100OSM    H6F10072   5.606   5.223   9.848  0.7669  0.0993  0.9067
  100OSM    H6G10073   5.525   5.096   9.755  0.3577  1.7948 -0.9804
  100OSM    C7F10074   5.726   5.123   9.697 -0.3358  0.8387  0.3647
  100OSM    H7F10075   5.820   5.100   9.752 -0.9910  1.5089  1.7929
  100OSM    H7G10076   5.720   5.224   9.650  0.5948  0.9946  0.5757
  100OSM    C8F10077   5.674   5.035   9.578 -0.8042  0.8547 -0.0332
  100OSM    H8F10078   5.742   5.057   9.492 -0.7539  1.6358  0.1958
  100OSM    H8G10079   5.574   5.067   9.543 -0.6325  1.6644  0.2042
  100OSM    C9F10080   5.692   4.890   9.608  0.7305  0.3842  1.0236
  100OSM    H9F10081   5.773   4.862   9.677  1.6112 -2.0012 -0.9098
  100OSM   C10F10082   5.630   4.781   9.563 -0.3659  0.4305  0.4908
  100OSM   H10F10083   5.651   4.682   9.608 -0.2345  0.5584  0.7142
  100OSM   C11F10084   5.519   4.776   9.463 -0.7555 -0.3121 -0.5515
  100OSM   H11F10085   5.473   4.874   9.437  0.0110  0.3258  0.4758
  100OSM   H11G10086   5.441   4.705   9.498  0.3175 -1.3211 -0.1707
  100OSM   C12F10087   5.564   4.712   9.336 -0.2811  0.0913  0.1109
  100OSM   H12F10088   5.483   4.667   9.275  0.4586 -0.0360 -0.7912
  100OSM   H12G10089   5.635   4.628   9.350 -0.3617  0.3691  2.4004
  100OSM   C13F10090   5.640   4.813   9.247 -0.1296 -0.5035  0.2097
  100OSM   H13F10091   5.740   4.826   9.292 -0.0142 -0.3562 -0.0938
  100OSM   H13G10092   5.578   4.905   9.259 -1.7295 -1.6440  0.9781
  100OSM   C14F10093   5.662   4.784   9.096  0.4410 -0.2110 -0.7758
  100OSM   H14F10094   5.571   4.758   9.038 -0.2913  1.1897 -0.2665
  100OSM   H14G10095   5.724   4.691   9.089  0.0532 -0.4657 -0.8242
  100OSM   C15F10096   5.742   4.895   9.033  0.3896 -0.3594 -0.5680
  100OSM   H15F10097   5.824   4.927   9.101 -1.1176 -0.6564  1.4194
  100OSM   H15G10098   5.679   4.986   9.022 -1.5549 -1.2769  2.4538
  100OSM   C16F10099   5.800   4.866   8.904 -0.0849  0.1518  0.2358
  100OSM   H16F10100   5.724   4.823   8.835  0.4115 -2.0376  1.0026
  100OSM   H16G10101   5.876   4.785   8.914 -0.6755 -0.4730 -0.3019
  100OSM   C17F10102   5.869   4.989   8.846 -0.1882 -0.1641 -0.8169
  100OSM   H17F10103   5.950   5.015   8.917 -1.3978  2.6292 -0.4004
  100OSM   H17G10104   5.797   5.074   8.845 -0.8039 -0.6792 -0.1633
  100OSM   C18F10105   5.911   4.965   8.699 -0.4997 -0.3542 -0.1247
  100OSM   H18F10106   6.010   4.915   8.686 -0.3028  0.4117 -1.7166
  100OSM   H18G10107   5.923   5.062   8.648 -0.0425  0.9483  2.3983
  100OSM   H18H10108   5.840   4.905   8.639 -2.0454  1.6266 -0.3106
  101OSM      N10109   1.821   5.239  11.208  0.0670  0.2690  0.3650
  101OSM    C1510110   1.865   5.155  11.091 -0.1101 -0.0065 -0.3919
  101OSM   H15A10111   1.968   5.166  11.060  0.4495 -0.9756  1.0358
  101OSM   H15B10112   1.809   5.185  11.004  0.0634  1.2300 -0.0901
  101OSM   H15C10113   1.849   5.052  11.120 -1.7624  0.2289 -0.4373
  101OSM    C1410114   1.675   5.206  11.229 -0.0691  0.2418  0.1679
  101OSM   H14A10115   1.635   5.263  11.312 -0.7659  1.3662 -0.9182
  101OSM   H14B10116   1.656   5.104  11.259 -0.1191  0.1630 -0.1255
  101OSM   H14C10117   1.617   5.227  11.140 -3.3743 -0.1094  2.1560
  101OSM    C1310118   1.892   5.180  11.330  0.2953 -0.5644 -0.3062
  101OSM   H13A10119   1.852   5.233  11.415  0.7793 -0.0173 -0.4244
  101OSM   H13B10120   1.999   5.190  11.330  0.3841 -1.4300  0.1678
  101OSM   H13C10121   1.861   5.078  11.352  0.6846 -0.5717  0.2366
  101OSM    C1210122   1.833   5.382  11.191  0.1714  0.4302 -0.6483
  101OSM   H12A10123   1.935   5.408  11.168  0.0431  0.3274 -1.3585
  101OSM   H12B10124   1.799   5.442  11.273 -0.0236  0.7111 -0.9358
  101OSM    C1110125   1.757   5.431  11.060 -0.3761  0.2929 -0.6915
  101OSM   H11A10126   1.760   5.358  10.976 -1.3514 -1.1548  0.5101
  101OSM   H11B10127   1.817   5.518  11.026  2.5751 -1.9076 -1.3235
  101OSM      P10128   1.529   5.515  10.990  0.0782  0.1976 -0.1258
  101OSM    O1310129   1.403   5.438  10.998 -0.4100 -0.0026  0.0205
  101OSM    O1410130   1.509   5.663  11.004 -0.0898  0.5091  0.3394
  101OSM    O1110131   1.603   5.489  10.853  0.2849 -0.0732  0.5207
  101OSM    O1210132   1.628   5.459  11.098 -0.2367 -0.2529 -0.4079
  101OSM    C1S10133   1.595   5.585  10.745  0.8535  0.3873 -0.2965
  101OSM    H1S10134   1.650   5.680  10.762  0.2757  0.5629  0.6825
  101OSM    H1T10135   1.489   5.617  10.731  0.3404 -0.4126  1.5321
  101OSM     NF10136   1.663   5.622  10.519  0.1017 -0.0942 -0.4069
  101OSM    HNF10137   1.581   5.649  10.470  0.5722 -0.6053 -1.4857
  101OSM    C2S10138   1.650   5.521  10.617 -0.3032 -0.2304  0.3117
  101OSM    H2S10139   1.752   5.483  10.640 -0.3018 -0.6012 -0.2737
  101OSM    C3S10140   1.575   5.399  10.571 -0.4491  0.1378 -0.1814
  101OSM    H3S10141   1.467   5.421  10.557 -1.4958 -3.8083  1.1155
  101OSM     O310142   1.555   5.298  10.668 -0.0697 -0.6211 -0.2450
  101OSM    HO310143   1.593   5.333  10.749 -0.1818 -0.9088 -0.0656
  101OSM    C4S10144   1.633   5.345  10.445  0.0005  0.1049 -0.6318
  101OSM    H4S10145   1.732   5.299  10.458 -1.3973 -2.6852  0.6052
  101OSM    C5S10146   1.586   5.346  10.320 -0.2011  0.1970 -0.4363
  101OSM    H5S10147   1.481   5.379  10.315 -0.3493 -0.4426 -2.0109
  101OSM    C6S10148   1.663   5.314  10.196  0.1317 -0.5604 -0.4277
  101OSM    H6S10149   1.767   5.280  10.217  0.6261  0.4708 -1.2064
  101OSM    H6T10150   1.668   5.409  10.139 -1.9970  0.1902  0.5587
  101OSM    C7S10151   1.601   5.216  10.095 -0.2336 -0.1538  0.1420
  101OSM    H7S10152   1.498   5.256  10.083  0.3368  0.7889 -1.7674
  101OSM    H7T10153   1.607   5.120  10.150  0.9023  0.9046  1.8804
  101OSM    C8S10154   1.672   5.203   9.961  0.4737  0.0837  0.8233
  101OSM    H8S10155   1.782   5.191   9.959  0.7644  2.5631 -2.1248
  101OSM    H8T10156   1.660   5.299   9.906 -2.3189 -1.5973 -1.6839
  101OSM    C9S10157   1.614   5.086   9.873 -0.1616 -0.4036 -0.4279
  101OSM    H9S10158   1.503   5.094   9.880 -0.3070 -0.3423 -2.5183
  101OSM    H9T10159   1.643   4.992   9.925  0.6039  0.4120  0.6433
  101OSM   C10S10160   1.648   5.088   9.727  0.8290  0.1085 -0.3890
  101OSM   H10S10161   1.623   4.989   9.684 -0.4383 -0.4226  1.5005
  101OSM   H10T10162   1.757   5.084   9.703  1.1972  1.8025  0.8649
  101OSM   C11S10163   1.564   5.201   9.662 -0.3830  0.5383  0.3187
  101OSM   H11S10164   1.604   5.295   9.706  1.5305 -0.0527 -0.1531
  101OSM   H11T10165   1.455   5.184   9.679 -0.5293  0.4169 -0.6864
  101OSM   C12S10166   1.581   5.203   9.510  0.3939 -0.7371  0.6770
  101OSM   H12S10167   1.562   5.100   9.473  2.1749 -0.7512 -0.2648
  101OSM   H12T10168   1.686   5.235   9.489 -0.3512  1.3942  0.1141
  101OSM   C13S10169   1.473   5.304   9.461 -0.0138  0.3895 -0.2544
  101OSM   H13S10170   1.488   5.402   9.511 -0.1621  0.6889 -0.7877
  101OSM   H13T10171   1.374   5.263   9.490  0.4636 -1.1124 -0.6674
  101OSM   C14S10172   1.476   5.324   9.309 -0.7694 -0.3348  0.2932
  101OSM   H14S10173   1.565   5.377   9.270 -3.0217  2.5380 -1.1459
  101OSM   H14T10174   1.390   5.392   9.292  0.9741  2.0915  0.9714
  101OSM   C15S10175   1.444   5.190   9.236 -0.5677 -0.0859  0.0020
  101OSM   H15S10176   1.347   5.154   9.277 -0.3876  0.2806  0.7656
  101OSM   H15T10177   1.516   5.109   9.264 -1.4165  0.7615  4.9796
  101OSM   C16S10178   1.439   5.200   9.082  0.0876  0.1387 -0.8499
  101OSM   H16S10179   1.423   5.102   9.033  0.2544 -0.5712  0.5158
  101OSM   H16T10180   1.538   5.247   9.061  0.2828  0.3863  0.5807
  101OSM   C17S10181   1.321   5.286   9.028 -0.2267  0.3652  0.5000
  101OSM   H17S10182   1.326   5.380   9.087 -0.3838  1.5437 -1.3327
  101OSM   H17T10183   1.223   5.244   9.062  0.4636 -0.8751  0.9744
  101OSM   C18S10184   1.321   5.303   8.873  0.6063 -0.5688  0.3291
  101OSM   H18S10185   1.281   5.215   8.819 -1.5605  0.1460  0.7288
  101OSM   H18T10186   1.427   5.325   8.848  0.4965  0.6767  0.9212
  101OSM   H18U10187   1.266   5.396   8.846 -1.0377 -2.0907 -1.7138
  101OSM    C1F10188   1.762   5.709  10.497 -0.2747 -0.2457  0.1806
  101OSM     OF10189   1.868   5.706  10.553  0.2676  0.5048  0.3045
  101OSM    C2F10190   1.726   5.827  10.413  0.4835 -0.6947  0.1782
  101OSM    H2F10191   1.744   5.927  10.457 -0.6634  0.1628 -1.2630
  101OSM    H2G10192   1.617   5.830  10.394  0.8584  3.3963 -1.7969
  101OSM    C3F10193   1.790   5.829  10.281 -0.5961  0.0100  0.4725
  101OSM    H3F10194   1.900   5.821  10.293 -0.4978  0.6950  0.0722
  101OSM    H3G10195   1.766   5.926  10.232 -1.6150 -0.6327 -0.3332
  101OSM    C4F10196   1.750   5.716  10.181  0.2666 -0.6145 -0.5424
  101OSM    H4F10197   1.640   5.715  10.192  0.2801 -3.0458 -0.2152
  101OSM    H4G10198   1.786   5.613  10.201 -0.9277 -0.9374 -0.0047
  101OSM    C5F10199   1.770   5.761  10.039  0.4762  0.0270 -0.0194
  101OSM    H5F10200   1.878   5.788  10.030  0.5584  0.6873  2.4942
  101OSM    H5G10201   1.718   5.859  10.037 -0.8463 -0.6135  1.9795
  101OSM    C6F10202   1.726   5.654   9.937 -0.7544  0.7664 -0.8102
  101OSM    H6F10203   1.805   5.575   9.934  1.0201  2.5418 -2.5006
  101OSM    H6G10204   1.635   5.598   9.966  1.2000 -2.2379 -0.2690
  101OSM    C7F10205   1.716   5.711   9.799 -0.2916 -0.5629 -0.4586
  101OSM    H7F10206   1.812   5.759   9.772  1.1396 -2.3429  1.3589
  101OSM    H7G10207   1.629   5.779   9.812 -0.1828 -0.1912 -1.5865
  101OSM    C8F10208   1.685   5.603   9.694 -0.2289  0.9524  0.2486
  101OSM    H8F10209   1.659   5.660   9.602 -0.9213  1.8348  0.9827
  101OSM    H8G10210   1.602   5.533   9.718  1.4674 -0.4750  2.1811
  101OSM    C9F10211   1.803   5.512   9.666  0.1108 -0.6054 -1.5319
  101OSM    H9F10212   1.841   5.476   9.763 -1.9754  2.7465  0.6297
  101OSM   C10F10213   1.863   5.474   9.553  0.0220  0.4152 -1.2286
  101OSM   H10F10214   1.953   5.411   9.553  0.2081  0.6434  0.7029
  101OSM   C11F10215   1.815   5.518   9.419  0.4845 -0.3814  0.4267
  101OSM   H11F10216   1.855   5.621   9.406  1.0885 -0.6518  0.1395
  101OSM   H11G10217   1.704   5.532   9.417  0.2928 -1.9458 -0.0598
  101OSM   C12F10218   1.857   5.427   9.307 -0.2441  0.3888  0.5798
  101OSM   H12F10219   1.815   5.325   9.323  2.4021 -0.4676  2.5258
  101OSM   H12G10220   1.968   5.427   9.311 -0.2229  0.2686  0.0058
  101OSM   C13F10221   1.819   5.487   9.173  0.6224 -0.0562 -0.2097
  101OSM   H13F10222   1.875   5.583   9.163 -1.6256  1.3535  0.3176
  101OSM   H13G10223   1.712   5.517   9.166  1.1903  1.3853 -4.4401
  101OSM   C14F10224   1.868   5.413   9.051 -0.7303  0.0254  0.5454
  101OSM   H14F10225   1.828   5.311   9.071 -0.2594 -0.2848 -0.0911
  101OSM   H14G10226   1.977   5.396   9.057 -0.4747  1.9718  1.8796
  101OSM   C15F10227   1.826   5.469   8.913  0.7117 -0.3283 -0.0757
  101OSM   H15F10228   1.851   5.386   8.843 -1.1823 -2.0222  1.1877
  101OSM   H15G10229   1.882   5.565   8.909  0.7019 -0.2616  1.2895
  101OSM   C16F10230   1.688   5.529   8.892  0.1894  0.0356 -0.5511
  101OSM   H16F10231   1.682   5.618   8.959  1.9741 -0.4945  0.3209
  101OSM   H16G10232   1.602   5.470   8.932 -0.2483  1.1968  0.2654
  101OSM   C17F10233   1.654   5.563   8.749  0.2781 -0.5184 -0.7765
  101OSM   H17F10234   1.615   5.476   8.693 -0.2055 -0.3315 -0.7279
  101OSM   H17G10235   1.744   5.603   8.697 -0.4907 -0.5269 -2.1249
  101OSM   C18F10236   1.544   5.671   8.741  0.0905 -0.0515 -0.0271
  101OSM   H18F10237   1.553   5.700   8.634  3.0392  1.4041  0.5642
  101OSM   H18G10238   1.560   5.761   8.805  0.5933  0.7228 -1.2364
  101OSM   H18H10239   1.444   5.629   8.767  0.4647 -0.3334  0.9647
  102OSM      N10240   3.238   0.698  10.903  0.6719  0.1750 -0.9885
  102OSM    C1510241   3.356   0.627  10.836  0.4671  0.4259  0.3443
  102OSM   H15A10242   3.370   0.662  10.735  2.5005 -2.2444 -0.3545
  102OSM   H15B10243   3.337   0.521  10.826  0.9720  0.4279 -0.5892
  102OSM   H15C10244   3.444   0.636  10.897  1.5756 -0.8391 -1.0323
  102OSM    C1410245   3.211   0.639  11.041  0.4495  1.2535 -0.4131
  102OSM   H14A10246   3.192   0.533  11.045  3.0416  0.7408 -0.9168
  102OSM   H14B10247   3.131   0.694  11.087 -1.5434 -0.0694 -2.2250
  102OSM   H14C10248   3.299   0.651  11.103  0.3873  2.8002 -0.6204
  102OSM    C1310249   3.264   0.840  10.931  0.1528  0.3773  1.3320
  102OSM   H13A10250   3.280   0.897  10.841 -2.1646  0.7305  1.1255
  102OSM   H13B10251   3.355   0.846  10.989 -0.0202  1.8519  1.4720
  102OSM   H13C10252   3.182   0.890  10.981 -1.8575 -0.6701 -0.8079
  102OSM    C1210253   3.114   0.682  10.814 -0.0206 -0.3104  0.3212
  102OSM   H12A10254   3.033   0.742  10.854  0.2773  0.8374 -0.7713
  102OSM   H12B10255   3.084   0.579  10.824 -0.6648 -0.0192  1.4505
  102OSM    C1110256   3.125   0.723  10.667 -0.4155 -0.3553  0.5739
  102OSM   H11A10257   3.039   0.682  10.610  1.5273  0.6502 -3.2505
  102OSM   H11B10258   3.218   0.683  10.622 -0.1094 -1.3581  2.0543
  102OSM      P10259   3.020   0.966  10.685 -0.0960 -0.1823 -0.0184
  102OSM    O1310260   2.924   0.903  10.775  0.1771  0.4187 -0.0361
  102OSM    O1410261   3.080   1.097  10.727 -0.4366  0.1657  0.0207
  102OSM    O1110262   2.954   0.974  10.543 -0.4198  0.1802 -0.9097
  102OSM    O1210263   3.139   0.867  10.656  0.0894  0.3233 -0.0756
  102OSM    C1S10264   2.964   1.089  10.460 -0.5383  0.4671  0.2504
  102OSM    H1S10265   2.997   1.180  10.514  1.5692 -1.3274  2.1187
  102OSM    H1T10266   2.857   1.106  10.435  0.3048  0.8727 -3.3364
  102OSM     NF10267   3.021   1.175  10.252 -0.1867  0.6713 -0.0464
  102OSM    HNF10268   2.973   1.184  10.165  0.9886  1.4723 -0.6278
  102OSM    C2S10269   3.038   1.060  10.326 -0.2760  0.0178 -0.3706
  102OSM    H2S10270   3.148   1.060  10.339  0.3206 -0.1604 -4.6315
  102OSM    C3S10271   2.996   0.931  10.252 -0.1723 -0.6028 -0.3056
  102OSM    H3S10272   2.898   0.933  10.200  0.3521  0.5274 -1.2724
  102OSM     O310273   2.982   0.817  10.340 -0.2759  0.4363  1.2384
  102OSM    HO310274   2.983   0.853  10.429  0.5203 -1.1959  1.9113
  102OSM    C4S10275   3.102   0.897  10.149 -0.1580  0.0021  0.0235
  102OSM    H4S10276   3.099   0.962  10.061 -0.2357  0.2899  0.2386
  102OSM    C5S10277   3.193   0.793  10.158  0.0575  0.1950  0.1414
  102OSM    H5S10278   3.208   0.736  10.251  3.5065  1.7322  0.6079
  102OSM    C6S10279   3.295   0.764  10.047 -0.2559  0.0244  0.2430
  102OSM    H6S10280   3.277   0.664  10.002  2.0020  0.3248 -1.4417
  102OSM    H6T10281   3.390   0.747  10.102 -0.5515  0.1165  0.7859
  102OSM    C7S10282   3.313   0.868   9.927 -0.0865  0.0747  0.0368
  102OSM    H7S10283   3.358   0.960   9.969  0.1262  0.3738 -0.8479
  102OSM    H7T10284   3.210   0.885   9.887  0.2725 -0.1346 -0.9891
  102OSM    C8S10285   3.397   0.794   9.820  0.1878  0.2449 -0.2651
  102OSM    H8S10286   3.332   0.731   9.755  0.6139 -0.0253 -0.4291
  102OSM    H8T10287   3.478   0.735   9.868 -2.1486 -0.8446  2.4970
  102OSM    C9S10288   3.462   0.893   9.721  0.0944 -0.1193 -0.0582
  102OSM    H9S10289   3.523   0.964   9.781 -0.1257 -0.7404  0.9204
  102OSM    H9T10290   3.380   0.952   9.675  0.4533 -0.6919 -1.4480
  102OSM   C10S10291   3.553   0.830   9.611  0.6415 -0.3835 -0.0232
  102OSM   H10S10292   3.591   0.734   9.653 -0.2922 -0.4655  0.6330
  102OSM   H10T10293   3.645   0.886   9.583 -0.6272 -0.1519 -4.0137
  102OSM   C11S10294   3.467   0.786   9.492  0.8865 -0.1846  0.3855
  102OSM   H11S10295   3.419   0.880   9.458  0.4058 -0.9370 -1.0474
  102OSM   H11T10296   3.383   0.721   9.525  1.3798 -0.7826  0.4732
  102OSM   C12S10297   3.534   0.720   9.379  0.9054 -0.2391 -0.1949
  102OSM   H12S10298   3.558   0.618   9.416  2.5406 -0.3547 -1.5210
  102OSM   H12T10299   3.635   0.764   9.364  0.1876  1.8182  0.9022
  102OSM   C13S10300   3.464   0.707   9.243 -0.0794  0.1835 -0.3045
  102OSM   H13S10301   3.433   0.811   9.220  0.2877  0.0960 -1.1905
  102OSM   H13T10302   3.378   0.639   9.257 -0.2912  0.4877 -0.1131
  102OSM   C14S10303   3.547   0.647   9.131  0.4733 -0.2354 -0.6094
  102OSM   H14S10304   3.594   0.551   9.163  0.1456  0.2512  1.3514
  102OSM   H14T10305   3.622   0.726   9.110  0.7746  0.1752  1.8553
  102OSM   C15S10306   3.471   0.637   8.998 -0.3759  0.7728  0.2852
  102OSM   H15S10307   3.403   0.724   8.993 -0.4471  0.6392 -1.1776
  102OSM   H15T10308   3.426   0.536   8.994  1.8428 -0.1996 -1.3726
  102OSM   C16S10309   3.568   0.638   8.880  0.6793  0.1754 -0.1046
  102OSM   H16S10310   3.636   0.552   8.892 -2.2023 -2.2376 -0.4563
  102OSM   H16T10311   3.622   0.735   8.884 -1.9745  1.7892 -1.7078
  102OSM   C17S10312   3.502   0.618   8.741  0.6583  0.2930 -0.5511
  102OSM   H17S10313   3.463   0.514   8.750  1.9975  0.0114  2.6156
  102OSM   H17T10314   3.591   0.624   8.674  2.4399 -0.7659  1.6363
  102OSM   C18S10315   3.405   0.727   8.684 -0.5028  0.2398 -0.1128
  102OSM   H18S10316   3.392   0.710   8.575  1.3248  2.2643 -0.6782
  102OSM   H18T10317   3.452   0.827   8.687 -0.3511  0.1553  0.3441
  102OSM   H18U10318   3.306   0.726   8.735 -0.8001 -2.7908 -0.6442
  102OSM    C1F10319   3.078   1.298  10.281 -0.1057  0.0996  0.1071
  102OSM     OF10320   3.173   1.301  10.356 -0.2509 -0.6883 -0.6389
  102OSM    C2F10321   3.025   1.416  10.212  0.3319 -0.5755  0.2023
  102OSM    H2F10322   2.963   1.481  10.277 -0.4785 -1.7563  0.6173
  102OSM    H2G10323   2.955   1.394  10.130 -0.5621  3.4090 -0.1822
  102OSM    C3F10324   3.143   1.491  10.151 -0.4242  0.6204  0.9003
  102OSM    H3F10325   3.215   1.431  10.092 -1.5018  1.2637 -1.1252
  102OSM    H3G10326   3.203   1.544  10.228  1.0498  0.0719  0.1450
  102OSM    C4F10327   3.096   1.615  10.067  0.2863  0.6939 -0.0000
  102OSM    H4F10328   3.191   1.661  10.033  0.1675 -0.1109 -1.4544
  102OSM    H4G10329   3.034   1.682  10.130  0.6961  0.2669  0.8681
  102OSM    C5F10330   3.014   1.577   9.946  0.1274  0.0445 -0.2928
  102OSM    H5F10331   2.979   1.665   9.887  1.1044  1.6015  1.3798
  102OSM    H5G10332   2.920   1.528   9.977  0.2751 -0.1573 -0.1650
  102OSM    C6F10333   3.099   1.489   9.854  0.3633 -0.0625 -0.4270
  102OSM    H6F10334   3.121   1.392   9.902 -0.2425  0.3394  0.6878
  102OSM    H6G10335   3.191   1.546   9.830  0.3756  0.5256  0.9929
  102OSM    C7F10336   3.035   1.459   9.715 -0.4170  0.6673 -0.4203
  102OSM    H7F10337   3.012   1.554   9.661  1.0004  1.3913  0.2190
  102OSM    H7G10338   2.934   1.419   9.738 -0.4883  0.8440 -0.4199
  102OSM    C8F10339   3.114   1.357   9.631 -0.3298 -0.0824  0.5493
  102OSM    H8F10340   3.149   1.273   9.694 -1.3058 -0.5631  0.4588
  102OSM    H8G10341   3.209   1.409   9.604 -0.1374 -0.1407  1.1040
  102OSM    C9F10342   3.047   1.314   9.500  0.3314  0.0115  0.2099
  102OSM    H9F10343   2.955   1.255   9.513  1.4427 -1.6359  0.6188
  102OSM   C10F10344   3.093   1.349   9.376  0.4668 -0.3915 -1.0974
  102OSM   H10F10345   3.042   1.320   9.283 -0.6533 -0.3884 -0.4935
  102OSM   C11F10346   3.215   1.441   9.361  0.1961 -1.1385 -0.6746
  102OSM   H11F10347   3.311   1.407   9.406 -0.2211 -0.0448  1.0740
  102OSM   H11G10348   3.206   1.525   9.433 -1.8857 -1.3370 -0.6866
  102OSM   C12F10349   3.234   1.472   9.214  0.0246 -0.4582 -0.4870
  102OSM   H12F10350   3.310   1.552   9.204 -1.9111  1.4571 -0.2754
  102OSM   H12G10351   3.142   1.518   9.172 -0.5155 -0.8406  0.2721
  102OSM   C13F10352   3.273   1.350   9.127 -0.2540 -0.3582 -0.2821
  102OSM   H13F10353   3.212   1.265   9.165 -3.0102  1.2972 -0.8430
  102OSM   H13G10354   3.382   1.336   9.141  0.4701  5.1178  0.3584
  102OSM   C14F10355   3.262   1.375   8.977 -0.3053  0.1584 -0.5793
  102OSM   H14F10356   3.153   1.388   8.964 -0.0935  3.2114  0.3096
  102OSM   H14G10357   3.287   1.279   8.926  0.9451 -0.5164  1.2234
  102OSM   C15F10358   3.354   1.488   8.933 -0.3498 -0.4395  0.9079
  102OSM   H15F10359   3.457   1.471   8.970 -0.0647 -1.2206 -0.2367
  102OSM   H15G10360   3.318   1.576   8.991  1.3208  0.6751  0.2806
  102OSM   C16F10361   3.340   1.521   8.785 -0.2646 -0.3774 -0.0931
  102OSM   H16F10362   3.232   1.541   8.765  0.0686  0.7427 -0.8703
  102OSM   H16G10363   3.355   1.434   8.717 -0.5202 -1.3387  1.0703
  102OSM   C17F10364   3.416   1.644   8.728  0.2119  0.4662  0.3752
  102OSM   H17F10365   3.375   1.736   8.774  1.0497  0.3116  1.4560
  102OSM   H17G10366   3.396   1.659   8.620 -1.3377  1.2233  0.7593
  102OSM   C18F10367   3.569   1.661   8.756  0.9477  0.5892 -0.1030
  102OSM   H18F10368   3.588   1.620   8.858 -1.5236 -0.0756  0.1128
  102OSM   H18G10369   3.596   1.769   8.760  2.3138  0.2311  0.9013
  102OSM   H18H10370   3.632   1.599   8.688 -1.5166 -0.3140 -1.6086
  103OSM      N10371   2.921   3.852  10.711 -0.0623 -0.0328  0.3604
  103OSM    C1510372   2.795   3.789  10.756 -0.1475  0.2815 -0.3608
  103OSM   H15A10373   2.762   3.718  10.681 -1.0125 -1.1771  1.3588
  103OSM   H15B10374   2.718   3.861  10.779  1.0224  1.1372  1.0061
  103OSM   H15C10375   2.814   3.734  10.847 -2.8073  0.7352  0.5116
  103OSM    C1410376   3.016   3.745  10.663  0.5789 -1.5511 -0.6264
  103OSM   H14A10377   2.968   3.668  10.604 -2.2250  0.2784 -0.8469
  103OSM   H14B10378   3.059   3.684  10.741 -1.4887 -1.3690  0.7043
  103OSM   H14C10379   3.094   3.788  10.603 -1.4487 -0.1949 -2.3942
  103OSM    C1310380   2.879   3.944  10.597  0.7997 -1.0247  0.0956
  103OSM   H13A10381   2.817   3.901  10.519  0.0960  0.3461 -0.1179
  103OSM   H13B10382   2.961   3.992  10.546 -0.5571 -0.9193 -2.0866
  103OSM   H13C10383   2.825   4.025  10.643  0.2218 -0.5513 -1.3572
  103OSM    C1210384   2.998   3.924  10.820 -0.0104  0.3524 -0.0172
  103OSM   H12A10385   3.079   3.976  10.770  3.6237 -4.0921  0.9369
  103OSM   H12B10386   3.042   3.846  10.881 -0.4594  0.2156  0.1363
  103OSM    C1110387   2.918   4.017  10.908  0.1624  0.3773 -0.3238
  103OSM   H11A10388   2.984   4.069  10.981 -0.4380 -0.0585  0.5416
  103OSM   H11B10389   2.849   3.952  10.965  0.3735  0.4419  0.0046
  103OSM      P10390   2.690   4.165  10.862 -0.1664  0.1080 -0.1789
  103OSM    O1310391   2.596   4.049  10.856  0.5720  0.3078  0.3203
  103OSM    O1410392   2.684   4.251  10.980 -0.2621 -0.6201  0.8152
  103OSM    O1110393   2.668   4.257  10.736  0.5704  0.1561 -0.1183
  103OSM    O1210394   2.844   4.119  10.840 -0.0943  0.2875  0.0852
  103OSM    C1S10395   2.774   4.341  10.682 -0.4233  0.7363  0.7302
  103OSM    H1S10396   2.875   4.295  10.687  1.1163  3.5077 -2.8164
  103OSM    H1T10397   2.774   4.446  10.717 -2.2689  1.1494 -0.4675
  103OSM     NF10398   2.862   4.425  10.460  1.0163 -0.7838 -0.1158
  103OSM    HNF10399   2.856   4.516  10.419  0.5090  0.0127  1.6836
  103OSM    C2S10400   2.752   4.364  10.526  0.1980 -0.0633  0.4480
  103OSM    H2S10401   2.748   4.261  10.484  1.8738  0.2560 -0.5587
  103OSM    C3S10402   2.613   4.432  10.500  0.4802  0.2983  0.2192
  103OSM    H3S10403   2.615   4.535  10.540  0.5599  0.3583  0.0579
  103OSM     O310404   2.501   4.367  10.567  0.0446 -0.0641 -0.1060
  103OSM    HO310405   2.539   4.301  10.625  0.7244  1.0220  0.7130
  103OSM    C4S10406   2.587   4.421  10.354 -0.1742  0.1833  0.4701
  103OSM    H4S10407   2.562   4.320  10.319  1.5207  0.2277 -0.9080
  103OSM    C5S10408   2.584   4.518  10.256  0.3915 -0.4294 -0.4535
  103OSM    H5S10409   2.615   4.621  10.280  1.3749 -0.9790  0.6669
  103OSM    C6S10410   2.566   4.488  10.114  0.0023  0.2347  0.4806
  103OSM    H6S10411   2.468   4.521  10.074 -0.5010 -0.3342  1.2533
  103OSM    H6T10412   2.574   4.378  10.096  3.1515  0.5883 -0.6885
  103OSM    C7S10413   2.684   4.544  10.023  0.0831 -0.3256  1.0305
  103OSM    H7S10414   2.774   4.508  10.076 -0.5966 -2.3811  0.8385
  103OSM    H7T10415   2.673   4.654  10.008  1.0837 -0.6209 -2.2154
  103OSM    C8S10416   2.661   4.485   9.879 -0.5953 -0.5161 -0.4422
  103OSM    H8S10417   2.556   4.511   9.852 -2.1359 -1.5346  3.9672
  103OSM    H8T10418   2.668   4.374   9.883  2.7855 -0.3257  0.5833
  103OSM    C9S10419   2.759   4.551   9.778 -0.0944  0.5168  0.3748
  103OSM    H9S10420   2.859   4.504   9.792  0.0002  0.1596 -1.3189
  103OSM    H9T10421   2.766   4.661   9.793  0.4912  0.5884 -0.3837
  103OSM   C10S10422   2.714   4.513   9.633 -0.0501 -0.7263  0.2191
  103OSM   H10S10423   2.604   4.514   9.616 -0.0441  0.9293  0.2004
  103OSM   H10T10424   2.755   4.411   9.612  3.0988  0.6024 -0.3971
  103OSM   C11S10425   2.776   4.616   9.526  0.8143 -0.1408 -0.1239
  103OSM   H11S10426   2.886   4.613   9.539  0.6336 -0.9566  1.4818
  103OSM   H11T10427   2.736   4.716   9.554  1.9510  0.1176  0.6043
  103OSM   C12S10428   2.742   4.575   9.379  0.0927  0.1325 -0.4051
  103OSM   H12S10429   2.762   4.467   9.361 -1.2017 -0.6668  2.6382
  103OSM   H12T10430   2.812   4.635   9.318  0.6344 -3.6760 -3.6970
  103OSM   C13S10431   2.590   4.602   9.338 -0.3834  0.5287 -1.3786
  103OSM   H13S10432   2.560   4.687   9.404  0.1583 -0.7263  0.5179
  103OSM   H13T10433   2.533   4.511   9.367  0.4142  0.1124 -1.1013
  103OSM   C14S10434   2.575   4.630   9.187 -0.3999  0.1035  0.3005
  103OSM   H14S10435   2.634   4.721   9.163 -1.8354  0.6277 -1.2631
  103OSM   H14T10436   2.468   4.650   9.169 -0.2831  0.2234 -0.2704
  103OSM   C15S10437   2.616   4.512   9.103 -0.5855  0.4244 -0.8535
  103OSM   H15S10438   2.538   4.436   9.127 -1.2041  1.6486  1.0845
  103OSM   H15T10439   2.717   4.479   9.133 -1.5704 -0.6770  1.3425
  103OSM   C16S10440   2.599   4.534   8.950  0.3692  0.2118 -1.3420
  103OSM   H16S10441   2.553   4.633   8.928  1.3401  1.0856  0.4886
  103OSM   H16T10442   2.518   4.463   8.924  0.4417 -0.4953  0.2907
  103OSM   C17S10443   2.728   4.503   8.864  0.3434 -0.4763 -0.1311
  103OSM   H17S10444   2.750   4.397   8.890  0.4037 -0.4594 -0.1132
  103OSM   H17T10445   2.806   4.574   8.898  1.1266 -0.7222 -1.3852
  103OSM   C18S10446   2.705   4.526   8.716  0.0862 -0.6071  0.4163
  103OSM   H18S10447   2.606   4.495   8.677 -0.2568  2.1329 -1.0262
  103OSM   H18T10448   2.774   4.477   8.645 -3.2070 -4.8209 -0.1189
  103OSM   H18U10449   2.715   4.634   8.690 -0.4910 -0.1291  2.1247
  103OSM    C1F10450   2.984   4.371  10.450  0.4690  0.0184  1.0943
  103OSM     OF10451   3.001   4.258  10.485  0.0154  0.0224 -0.3760
  103OSM    C2F10452   3.093   4.455  10.392  0.4245 -0.2908  0.5081
  103OSM    H2F10453   3.162   4.469  10.478 -1.2049  0.4737  1.7253
  103OSM    H2G10454   3.057   4.557  10.367 -0.3510 -0.6502  0.1282
  103OSM    C3F10455   3.167   4.385  10.279 -0.4330 -0.6010 -0.3293
  103OSM    H3F10456   3.207   4.284  10.300 -1.5317 -0.7374  1.1725
  103OSM    H3G10457   3.261   4.444  10.282 -2.0654  2.0145  1.2153
  103OSM    C4F10458   3.112   4.416  10.145  0.3392  0.1906 -0.3055
  103OSM    H4F10459   3.124   4.522  10.114 -1.8793  0.6582  0.2933
  103OSM    H4G10460   3.001   4.405  10.146  0.2914  0.2889 -2.4330
  103OSM    C5F10461   3.165   4.320  10.033 -0.0370 -0.3228 -0.0228
  103OSM    H5F10462   3.165   4.213  10.062  0.1161  0.2392  2.1739
  103OSM    H5G10463   3.263   4.353   9.993 -1.1348  3.7303  0.3999
  103OSM    C6F10464   3.083   4.326   9.902 -0.1992  0.1039 -0.2933
  103OSM    H6F10465   3.068   4.433   9.874  0.3526 -0.0412 -1.1338
  103OSM    H6G10466   2.981   4.291   9.929  0.4389 -1.5435  0.0303
  103OSM    C7F10467   3.136   4.240   9.789  0.4334 -0.6021  0.3785
  103OSM    H7F10468   3.128   4.137   9.831 -1.1597 -0.7058 -0.1807
  103OSM    H7G10469   3.246   4.257   9.778  0.0219  0.3700 -2.6702
  103OSM    C8F10470   3.070   4.242   9.647  0.0527  0.0219 -0.2204
  103OSM    H8F10471   2.959   4.241   9.654 -0.1365 -2.7210 -2.6970
  103OSM    H8G10472   3.083   4.144   9.597 -3.0990 -1.5425  1.8360
  103OSM    C9F10473   3.131   4.351   9.561 -0.8524  0.0089 -0.8864
  103OSM    H9F10474   3.194   4.426   9.612 -0.0582 -1.8361  0.9422
  103OSM   C10F10475   3.107   4.361   9.431 -0.0259  0.1171  0.6080
  103OSM   H10F10476   3.147   4.454   9.387 -2.8066  1.0584  0.0058
  103OSM   C11F10477   3.013   4.279   9.351  0.0521 -0.0936 -0.0008
  103OSM   H11F10478   2.934   4.346   9.311 -1.2385 -1.7580 -0.2854
  103OSM   H11G10479   2.952   4.217   9.419 -1.1571  0.3452 -0.6631
  103OSM   C12F10480   3.077   4.206   9.234 -0.1270  0.1520  0.4264
  103OSM   H12F10481   3.006   4.126   9.205  0.5791 -0.1775 -0.4100
  103OSM   H12G10482   3.170   4.160   9.273  0.6358  1.1725 -0.1762
  103OSM   C13F10483   3.113   4.292   9.114 -0.2411  0.0585  0.4873
  103OSM   H13F10484   3.203   4.347   9.150  1.4963 -1.3492 -1.5572
  103OSM   H13G10485   3.031   4.365   9.098 -1.7005 -1.4002  1.2127
  103OSM   C14F10486   3.149   4.223   8.972  0.1270  0.2670  0.6319
  103OSM   H14F10487   3.200   4.127   8.997  0.4736 -0.0341 -1.1707
  103OSM   H14G10488   3.213   4.292   8.913 -0.5011 -1.1822 -1.8000
  103OSM   C15F10489   3.023   4.217   8.891 -0.1774  0.1978 -0.3542
  103OSM   H15F10490   2.991   4.320   8.863  0.5918  0.8203  1.0348
  103OSM   H15G10491   2.948   4.165   8.955 -1.4471  1.7939 -0.4961
  103OSM   C16F10492   3.051   4.148   8.756 -0.5033  0.0394  0.3058
  103OSM   H16F10493   3.087   4.050   8.793 -2.2875 -0.5500  0.5168
  103OSM   H16G10494   3.142   4.197   8.713 -0.1132 -1.4207 -0.5698
  103OSM   C17F10495   2.950   4.123   8.648  0.0853  0.1672  1.0331
  103OSM   H17F10496   3.008   4.085   8.561 -2.0692  0.2798 -0.5033
  103OSM   H17G10497   2.906   4.217   8.610  1.3703  0.4618  0.2374
  103OSM   C18F10498   2.827   4.035   8.707 -0.2851  0.0894 -0.4596
  103OSM   H18F10499   2.845   3.925   8.706 -1.1002 -0.0571 -2.3968
  103OSM   H18G10500   2.735   4.066   8.653  1.3851  0.1493 -3.4131
  103OSM   H18H10501   2.804   4.058   8.813 -0.0495 -0.6466 -0.2499
  104OSM      N10502   4.711   3.426  11.170 -0.3781  0.1510 -0.2878
  104OSM    C1510503   4.563   3.451  11.191  0.1500  0.1148  0.2037
  104OSM   H15A10504   4.520   3.497  11.103  0.2173 -0.9565 -0.3924
  104OSM   H15B10505   4.545   3.525  11.268 -3.1422  0.6069 -0.9659
  104OSM   H15C10506   4.518   3.354  11.209  1.4936 -0.4226  0.6816
  104OSM    C1410507   4.790   3.550  11.187  0.3610  0.4391 -0.3106
  104OSM   H14A10508   4.894   3.533  11.163  0.1838 -1.1203 -0.0464
  104OSM   H14B10509   4.796   3.583  11.290 -0.8163 -2.3602  0.6886
  104OSM   H14C10510   4.773   3.634  11.121 -0.3575 -1.0316 -2.0182
  104OSM    C1310511   4.745   3.332  11.275 -0.4319  0.2450 -0.6063
  104OSM   H13A10512   4.850   3.307  11.265  0.3007  1.7940  2.4542
  104OSM   H13B10513   4.699   3.235  11.267  2.2222 -1.1708  0.5368
  104OSM   H13C10514   4.738   3.382  11.371 -0.1229  1.9103 -1.4294
  104OSM    C1210515   4.737   3.369  11.034  0.7441 -0.3895 -0.3592
  104OSM   H12A10516   4.690   3.272  11.034  2.5664 -1.3243  2.1628
  104OSM   H12B10517   4.842   3.346  11.030  0.1044 -4.2663  2.2548
  104OSM    C1110518   4.695   3.455  10.908  0.6280 -0.0481 -0.9474
  104OSM   H11A10519   4.595   3.497  10.930  0.9942 -0.0701  0.8470
  104OSM   H11B10520   4.698   3.385  10.822 -0.1162  0.7651 -1.6404
  104OSM      P10521   4.912   3.581  10.825  0.0300 -0.5380  0.1204
  104OSM    O1310522   4.959   3.722  10.839 -0.7113  0.4198  0.2624
  104OSM    O1410523   5.002   3.469  10.870  0.2075 -0.3375 -0.3409
  104OSM    O1110524   4.885   3.556  10.676  0.4432 -0.1149 -0.0186
  104OSM    O1210525   4.776   3.570  10.894  0.4263 -0.6155  0.0587
  104OSM    C1S10526   4.801   3.646  10.599 -0.0634  0.1432  0.4547
  104OSM    H1S10527   4.835   3.751  10.616  0.9744 -0.0195 -0.5387
  104OSM    H1T10528   4.695   3.647  10.633 -0.1229  1.3455  0.2630
  104OSM     NF10529   4.784   3.710  10.355  0.5285  0.2951  0.2470
  104OSM    HNF10530   4.703   3.695  10.298  2.3732  1.0757 -2.6695
  104OSM    C2S10531   4.809   3.598  10.449  0.3817 -0.3679 -0.1520
  104OSM    H2S10532   4.908   3.552  10.428  0.4598  0.7394 -2.4330
  104OSM    C3S10533   4.708   3.475  10.433 -0.2578 -0.1982 -1.0664
  104OSM    H3S10534   4.608   3.512  10.464  0.0210  1.7733 -2.4305
  104OSM     O310535   4.731   3.376  10.536 -0.4163  0.5595  0.3340
  104OSM    HO310536   4.792   3.420  10.596 -0.3389 -0.1529  0.7816
  104OSM    C4S10537   4.706   3.422  10.297 -0.0413 -0.6113  0.0910
  104OSM    H4S10538   4.614   3.443  10.241 -0.5267  0.2480  1.1865
  104OSM    C5S10539   4.781   3.320  10.245 -0.5985  0.0206 -0.2462
  104OSM    H5S10540   4.867   3.285  10.303 -0.4253 -0.3505 -0.7261
  104OSM    C6S10541   4.777   3.271  10.100  0.2521  0.6575  0.5087
  104OSM    H6S10542   4.673   3.236  10.087 -0.0080  1.5582  0.1500
  104OSM    H6T10543   4.849   3.186  10.089 -0.1627  0.1947  1.2827
  104OSM    C7S10544   4.828   3.364   9.986  0.8745 -0.9774  0.2597
  104OSM    H7S10545   4.932   3.399  10.006  0.9141 -0.9053 -0.0681
  104OSM    H7T10546   4.763   3.454   9.993  1.3601 -0.6506  0.6139
  104OSM    C8S10547   4.826   3.307   9.838  0.0724  0.0961 -0.1465
  104OSM    H8S10548   4.726   3.278   9.798  1.1753 -3.0274 -0.7733
  104OSM    H8T10549   4.876   3.208   9.836 -1.0392 -0.6127  2.9338
  104OSM    C9S10550   4.872   3.397   9.731  0.5209 -0.3238 -0.3063
  104OSM    H9S10551   4.979   3.420   9.752 -0.2184  3.2569 -0.0938
  104OSM    H9T10552   4.820   3.495   9.743  0.8244 -0.0608 -1.1186
  104OSM   C10S10553   4.868   3.324   9.590  0.9738 -0.1089 -0.1367
  104OSM   H10S10554   4.805   3.234   9.606 -0.8546  1.2323  0.4087
  104OSM   H10T10555   4.974   3.294   9.579  0.9410  0.5760 -2.6363
  104OSM   C11S10556   4.814   3.407   9.479 -0.6162  0.3678  0.2678
  104OSM   H11S10557   4.879   3.497   9.466 -1.6002  1.1356  0.6009
  104OSM   H11T10558   4.708   3.436   9.491 -1.0473 -0.5737 -1.1536
  104OSM   C12S10559   4.824   3.337   9.345 -0.0934 -0.3373  0.3425
  104OSM   H12S10560   4.772   3.239   9.344  1.9771 -1.4727  0.4974
  104OSM   H12T10561   4.931   3.314   9.325  0.2704  1.0075  0.6982
  104OSM   C13S10562   4.766   3.423   9.226 -0.3600 -0.0084 -1.0281
  104OSM   H13S10563   4.786   3.528   9.256 -2.1164  0.7078 -2.2806
  104OSM   H13T10564   4.656   3.408   9.219 -0.4213  0.3703 -0.8602
  104OSM   C14S10565   4.836   3.413   9.094  0.0986  0.1118 -0.3067
  104OSM   H14S10566   4.936   3.460   9.099  0.3691 -0.4740 -0.1630
  104OSM   H14T10567   4.778   3.473   9.021 -0.4401 -1.3129 -1.0836
  104OSM   C15S10568   4.846   3.273   9.040  0.6986  0.1652 -0.3088
  104OSM   H15S10569   4.745   3.230   9.057  0.3846  1.1003  0.2023
  104OSM   H15T10570   4.916   3.213   9.101 -0.4282 -1.3772 -0.4987
  104OSM   C16S10571   4.894   3.271   8.890  0.9185  0.5969  0.1515
  104OSM   H16S10572   4.937   3.170   8.874 -2.3143 -1.2891  2.8313
  104OSM   H16T10573   4.972   3.350   8.883  1.3039  0.2070  0.0568
  104OSM   C17S10574   4.785   3.284   8.787  0.0909  0.3738 -0.2007
  104OSM   H17S10575   4.844   3.277   8.694  2.5922 -1.8033  1.4673
  104OSM   H17T10576   4.735   3.382   8.806 -0.6075 -0.0491  0.1873
  104OSM   C18S10577   4.682   3.171   8.792 -0.2890  0.2160 -0.7771
  104OSM   H18S10578   4.621   3.184   8.700  1.0072  1.4494 -1.4940
  104OSM   H18T10579   4.618   3.177   8.882  1.2049 -0.9792  0.4043
  104OSM   H18U10580   4.730   3.071   8.787 -0.9571 -0.1823  0.6185
  104OSM    C1F10581   4.854   3.817  10.332 -0.0278  0.1711  0.3599
  104OSM     OF10582   4.933   3.857  10.414  0.1451  0.2037  0.3572
  104OSM    C2F10583   4.834   3.880  10.197 -0.6599 -0.2170  0.4575
  104OSM    H2F10584   4.813   3.989  10.197  2.0941  0.3423 -0.5704
  104OSM    H2G10585   4.745   3.835  10.150 -1.8974  1.1679  1.4065
  104OSM    C3F10586   4.959   3.860  10.105 -0.2370  0.0643 -0.0827
  104OSM    H3F10587   4.968   3.751  10.087 -0.8636  0.0572 -0.3741
  104OSM    H3G10588   5.047   3.900  10.160 -1.6049  0.0577  2.1917
  104OSM    C4F10589   4.927   3.917   9.961 -0.5369 -0.2236  0.1287
  104OSM    H4F10590   4.953   4.024   9.955 -0.0795 -0.2969  0.7494
  104OSM    H4G10591   4.817   3.910   9.944 -0.4007  0.0520 -0.9140
  104OSM    C5F10592   5.000   3.846   9.839 -0.0253 -0.0219  0.1880
  104OSM    H5F10593   4.982   3.737   9.839  1.9986 -0.4027 -1.4643
  104OSM    H5G10594   5.108   3.870   9.849 -0.0358  0.1272 -0.0580
  104OSM    C6F10595   4.972   3.903   9.687  0.1172  0.2018 -0.4830
  104OSM    H6F10596   4.988   4.013   9.684 -2.2458  0.5969  0.3580
  104OSM    H6G10597   4.872   3.875   9.648 -0.7336  0.2979  1.5256
  104OSM    C7F10598   5.059   3.834   9.588  0.3087 -0.3111 -0.2931
  104OSM    H7F10599   5.023   3.729   9.588 -2.9405  0.7499 -2.1426
  104OSM    H7G10600   5.158   3.820   9.636 -0.3960  0.1373  1.3260
  104OSM    C8F10601   5.060   3.899   9.449 -0.1343 -0.0659  0.3621
  104OSM    H8F10602   5.152   3.856   9.403  0.2547  0.0844  1.0018
  104OSM    H8G10603   5.080   4.008   9.458  0.2569 -0.0146 -0.9492
  104OSM    C9F10604   4.934   3.881   9.361 -0.0060 -0.1189 -1.2141
  104OSM    H9F10605   4.843   3.919   9.411  0.6981  0.8326 -0.6591
  104OSM   C10F10606   4.930   3.816   9.242 -0.3257  0.3740 -1.2144
  104OSM   H10F10607   4.834   3.830   9.190 -0.5419  0.3250 -0.8275
  104OSM   C11F10608   5.049   3.754   9.176  1.2784 -0.1525  0.0442
  104OSM   H11F10609   5.063   3.648   9.208  1.5787  0.4082  1.8266
  104OSM   H11G10610   5.149   3.796   9.201  1.5680  0.5358 -2.1281
  104OSM   C12F10611   5.027   3.759   9.023 -0.0714 -0.0449  0.0108
  104OSM   H12F10612   4.994   3.856   8.980  2.9726 -0.0445 -2.5402
  104OSM   H12G10613   4.941   3.699   8.989  2.0935 -1.8661 -2.4532
  104OSM   C13F10614   5.150   3.704   8.940 -0.2959  0.0363 -0.0344
  104OSM   H13F10615   5.116   3.694   8.835 -3.5906 -0.5437  1.0426
  104OSM   H13G10616   5.156   3.601   8.982 -2.2286 -0.7906 -1.6958
  104OSM   C14F10617   5.283   3.782   8.945 -0.2533  0.1321 -0.0714
  104OSM   H14F10618   5.368   3.714   8.964  0.2879 -0.1630 -3.4285
  104OSM   H14G10619   5.290   3.852   9.031  1.9488 -0.4639  0.2464
  104OSM   C15F10620   5.307   3.859   8.816  0.1335 -0.7849 -0.2668
  104OSM   H15F10621   5.219   3.924   8.795  0.4174  0.2704  1.6515
  104OSM   H15G10622   5.318   3.787   8.732 -3.1728 -1.0961 -0.4924
  104OSM   C16F10623   5.439   3.934   8.824  0.0728  0.0557  0.5313
  104OSM   H16F10624   5.526   3.869   8.847 -0.9763 -2.1034 -1.3449
  104OSM   H16G10625   5.428   3.998   8.914  1.2914 -0.8903  1.3704
  104OSM   C17F10626   5.487   4.021   8.710 -0.4104  0.8785  0.2485
  104OSM   H17F10627   5.565   4.094   8.741 -1.1373  2.3781 -1.3915
  104OSM   H17G10628   5.400   4.080   8.675 -0.0098  0.1554 -2.0247
  104OSM   C18F10629   5.545   3.938   8.594 -0.0740  0.0917  0.3433
  104OSM   H18F10630   5.629   3.874   8.629  1.3717  0.4611 -2.2614
  104OSM   H18G10631   5.586   4.007   8.517  0.8379 -1.0847 -0.2374
  104OSM   H18H10632   5.461   3.875   8.556 -0.4858  1.0575 -0.3671
  105OSM      N10633   1.266   6.270  10.838 -0.0418 -0.4908 -0.5380
  105OSM    C1510634   1.368   6.190  10.915 -0.1101  0.2541 -0.1136
  105OSM   H15A10635   1.468   6.231  10.909  0.5280 -1.6051 -3.1554
  105OSM   H15B10636   1.376   6.092  10.871  0.3762 -0.1284  0.8162
  105OSM   H15C10637   1.348   6.180  11.020  0.5340 -2.5602 -0.2035
  105OSM    C1410638   1.253   6.395  10.920 -1.3783  0.2624  0.2819
  105OSM   H14A10639   1.173   6.460  10.886 -0.1337  1.1258 -1.0959
  105OSM   H14B10640   1.346   6.451  10.915 -0.4403 -1.1949  1.0810
  105OSM   H14C10641   1.247   6.376  11.026  2.0735  0.0211  0.4844
  105OSM    C1310642   1.305   6.293  10.699 -0.0227 -0.3812  0.0653
  105OSM   H13A10643   1.219   6.332  10.646 -0.5818 -1.5564  0.0807
  105OSM   H13B10644   1.331   6.200  10.651 -1.2666 -1.2917  1.1112
  105OSM   H13C10645   1.387   6.362  10.688 -0.7950  0.4778 -0.3122
  105OSM    C1210646   1.130   6.192  10.835 -0.3938 -0.1124 -0.6195
  105OSM   H12A10647   1.104   6.175  10.938  1.6262 -0.5297 -0.1632
  105OSM   H12B10648   1.143   6.095  10.789  0.9384  0.5459 -1.6858
  105OSM    C1110649   1.007   6.248  10.762  0.6768  0.0730  0.5105
  105OSM   H11A10650   0.928   6.171  10.759  0.2967  0.3784  2.6300
  105OSM   H11B10651   1.018   6.265  10.652 -0.8843 -2.6395 -0.0995
  105OSM      P10652   0.890   6.356  10.966 -0.1612  0.3466 -0.0909
  105OSM    O1310653   0.951   6.251  11.051 -0.4554 -0.5790  0.4399
  105OSM    O1410654   0.884   6.493  11.022  0.2107 -0.3214  0.2947
  105OSM    O1110655   0.753   6.309  10.915 -0.0023 -0.1546  0.3325
  105OSM    O1210656   0.971   6.371  10.833 -0.4777  0.0898  0.3058
  105OSM    C1S10657   0.644   6.398  10.877 -0.4443 -0.4333 -0.3061
  105OSM    H1S10658   0.654   6.491  10.936 -1.1733  0.4261 -1.4989
  105OSM    H1T10659   0.546   6.347  10.886 -0.6354  0.2013  1.3365
  105OSM     NF10660   0.550   6.549  10.700  0.3916  0.2580 -0.2372
  105OSM    HNF10661   0.464   6.519  10.658  0.9238  0.5137 -1.5485
  105OSM    C2S10662   0.645   6.438  10.723 -0.5727  0.0444 -1.0431
  105OSM    H2S10663   0.747   6.465  10.687 -0.7714 -1.3232 -2.7097
  105OSM    C3S10664   0.618   6.311  10.643  0.6444 -0.0272  0.9205
  105OSM    H3S10665   0.511   6.284  10.658  0.8551 -2.2985 -1.3566
  105OSM     O310666   0.689   6.196  10.690  0.0764 -0.2977 -0.7347
  105OSM    HO310667   0.700   6.211  10.784 -0.1761 -1.2086 -0.5443
  105OSM    C4S10668   0.640   6.326  10.487  0.7759  0.1881 -0.6446
  105OSM    H4S10669   0.554   6.351  10.424  0.7253  3.1205  0.4965
  105OSM    C5S10670   0.763   6.312  10.430 -0.0910  0.0075 -0.0176
  105OSM    H5S10671   0.848   6.306  10.500  2.3879  2.4953 -2.6802
  105OSM    C6S10672   0.792   6.320  10.281  0.4024 -0.4380 -0.4787
  105OSM    H6S10673   0.862   6.240  10.250  0.0669 -1.1761  0.6451
  105OSM    H6T10674   0.839   6.419  10.261 -1.8809  0.8508  0.3917
  105OSM    C7S10675   0.670   6.304  10.183  1.3168  0.2357  0.5781
  105OSM    H7S10676   0.594   6.384  10.200  1.4661  0.0302  2.3010
  105OSM    H7T10677   0.616   6.210  10.210 -0.9326  1.9715  2.3433
  105OSM    C8S10678   0.705   6.308  10.037  0.3952 -0.9199  0.1114
  105OSM    H8S10679   0.760   6.213  10.022  2.1406 -0.6383  4.0757
  105OSM    H8T10680   0.779   6.389  10.020  0.8841 -1.0228  1.6878
  105OSM    C9S10681   0.597   6.322   9.929 -0.1046 -0.6444 -0.5339
  105OSM    H9S10682   0.543   6.415   9.958  0.3298 -0.3122 -0.7881
  105OSM    H9T10683   0.527   6.236   9.926 -2.8806  1.4571  0.8775
  105OSM   C10S10684   0.663   6.340   9.796 -0.8586 -0.0606 -0.1248
  105OSM   H10S10685   0.706   6.238   9.781 -1.2723 -0.8756  3.5200
  105OSM   H10T10686   0.749   6.409   9.802 -1.4922  0.6470  1.0520
  105OSM   C11S10687   0.560   6.375   9.688 -0.2363 -0.0903  0.1736
  105OSM   H11S10688   0.518   6.478   9.691  0.2791  0.0791  1.6521
  105OSM   H11T10689   0.470   6.314   9.711  0.1689 -0.5283  0.5909
  105OSM   C12S10690   0.602   6.341   9.538 -0.5753  0.0487 -0.3084
  105OSM   H12S10691   0.628   6.236   9.513  0.8272  0.5110 -0.8462
  105OSM   H12T10692   0.691   6.394   9.498 -1.4532  2.2414  0.5806
  105OSM   C13S10693   0.487   6.370   9.438 -0.3120 -0.4356  0.2151
  105OSM   H13S10694   0.441   6.466   9.470  0.9002  0.9573 -2.0830
  105OSM   H13T10695   0.406   6.295   9.436  0.3798 -1.1406 -2.9480
  105OSM   C14S10696   0.535   6.391   9.293  0.1607  0.4494 -0.0967
  105OSM   H14S10697   0.603   6.309   9.261 -1.1294 -0.3857 -0.7132
  105OSM   H14T10698   0.588   6.489   9.283 -1.4528  1.3672  0.1734
  105OSM   C15S10699   0.422   6.366   9.188 -0.9603 -0.2205 -0.4890
  105OSM   H15S10700   0.329   6.423   9.206 -0.5637  0.0948  0.6016
  105OSM   H15T10701   0.381   6.263   9.195  1.0265 -0.9572  1.1271
  105OSM   C16S10702   0.470   6.386   9.047  0.6245 -0.0655 -0.3154
  105OSM   H16S10703   0.542   6.305   9.025  0.8593 -0.6409  2.4091
  105OSM   H16T10704   0.522   6.484   9.049  2.8978 -1.2725  0.6284
  105OSM   C17S10705   0.365   6.385   8.936 -0.5042  0.1884 -0.1794
  105OSM   H17S10706   0.293   6.466   8.962  0.0468  0.5462  0.2596
  105OSM   H17T10707   0.307   6.290   8.938 -2.1118  1.1605  0.1917
  105OSM   C18S10708   0.427   6.428   8.802 -0.5837  1.0919  1.0345
  105OSM   H18S10709   0.465   6.532   8.793 -0.0499  0.8125 -0.0923
  105OSM   H18T10710   0.356   6.426   8.716 -1.1261 -2.9252  1.4419
  105OSM   H18U10711   0.502   6.356   8.763 -2.4116  0.7483 -2.0343
  105OSM    C1F10712   0.559   6.673  10.751  0.0774 -0.6427  0.8267
  105OSM     OF10713   0.650   6.700  10.833  0.0680  0.1141 -0.2197
  105OSM    C2F10714   0.448   6.765  10.722  0.2758  0.4288 -0.0361
  105OSM    H2F10715   0.412   6.806  10.819 -0.7357  1.5269 -0.8559
  105OSM    H2G10716   0.365   6.714  10.669 -0.2491  0.0921  1.1206
  105OSM    C3F10717   0.469   6.877  10.613  0.6934 -0.1622 -0.4956
  105OSM    H3F10718   0.535   6.947  10.669  1.2792 -0.6146 -0.6136
  105OSM    H3G10719   0.375   6.931  10.588  2.0977  2.9985  0.8262
  105OSM    C4F10720   0.535   6.843  10.485 -0.6756  0.0589  0.3458
  105OSM    H4F10721   0.627   6.782  10.496 -0.8542 -0.3809 -0.5448
  105OSM    H4G10722   0.565   6.931  10.424  3.6138 -0.8793  0.9708
  105OSM    C5F10723   0.435   6.763  10.396 -0.0433 -0.2333 -0.4156
  105OSM    H5F10724   0.335   6.811  10.402 -0.3077 -0.7544 -0.5639
  105OSM    H5G10725   0.434   6.657  10.430 -2.8223 -0.2686 -0.4598
  105OSM    C6F10726   0.471   6.750  10.246 -0.1975 -0.2683  0.4022
  105OSM    H6F10727   0.567   6.696  10.237 -0.4776 -0.3761 -2.2245
  105OSM    H6G10728   0.482   6.849  10.197 -1.7138 -1.2773 -2.0353
  105OSM    C7F10729   0.364   6.676  10.170 -0.1623 -0.1985 -0.7810
  105OSM    H7F10730   0.270   6.732  10.190 -1.6893 -2.0271 -2.6334
  105OSM    H7G10731   0.356   6.572  10.207  2.3209 -0.2112 -0.2152
  105OSM    C8F10732   0.379   6.679  10.010 -0.2461 -0.2405 -0.1125
  105OSM    H8F10733   0.309   6.606   9.966  2.6161 -2.1461 -1.6823
  105OSM    H8G10734   0.476   6.631   9.984  0.4242  1.0492 -0.0306
  105OSM    C9F10735   0.368   6.809   9.937 -0.0493  0.6609 -0.5930
  105OSM    H9F10736   0.397   6.900   9.992  0.5577 -0.6859  1.3813
  105OSM   C10F10737   0.353   6.820   9.802 -0.0522 -0.9782  0.3023
  105OSM   H10F10738   0.348   6.917   9.750 -0.9286 -1.6726 -0.9339
  105OSM   C11F10739   0.327   6.704   9.710 -0.2586 -0.2428 -0.0807
  105OSM   H11F10740   0.281   6.615   9.759 -1.1570 -0.0417 -0.5448
  105OSM   H11G10741   0.422   6.666   9.668  1.0306  0.8137  1.7869
  105OSM   C12F10742   0.235   6.734   9.595 -0.3067  0.1489 -0.0573
  105OSM   H12F10743   0.166   6.813   9.633 -0.7699 -0.6530  0.7936
  105OSM   H12G10744   0.170   6.648   9.564  0.6878  0.1612 -2.2422
  105OSM   C13F10745   0.314   6.777   9.468 -0.0894  0.4166 -0.1275
  105OSM   H13F10746   0.380   6.688   9.456  0.8739  1.0250  0.5063
  105OSM   H13G10747   0.379   6.863   9.496  1.8964 -1.1331  0.1888
  105OSM   C14F10748   0.215   6.807   9.356 -0.6132  0.5364 -0.3254
  105OSM   H14F10749   0.151   6.886   9.402  0.8455  1.3834  0.3028
  105OSM   H14G10750   0.153   6.717   9.336  0.5170 -0.0183 -1.3512
  105OSM   C15F10751   0.289   6.836   9.229  0.2218 -0.8943 -0.7103
  105OSM   H15F10752   0.352   6.745   9.221  2.0159  0.4422 -2.1331
  105OSM   H15G10753   0.353   6.926   9.240 -1.3347  0.3431 -1.4669
  105OSM   C16F10754   0.196   6.848   9.105 -0.0384  0.3240 -0.7447
  105OSM   H16F10755   0.118   6.927   9.116 -1.7296 -1.2507 -1.2529
  105OSM   H16G10756   0.134   6.756   9.104 -0.6371  0.6907  0.4929
  105OSM   C17F10757   0.271   6.855   8.977  0.5817  0.0192  0.7995
  105OSM   H17F10758   0.344   6.771   8.966  0.3518 -0.0792 -0.0444
  105OSM   H17G10759   0.330   6.948   8.968 -0.9130  0.8341 -0.7980
  105OSM   C18F10760   0.177   6.845   8.853  0.2438 -0.4246 -0.1125
  105OSM   H18F10761   0.137   6.741   8.860  1.3182 -0.7288  1.8660
  105OSM   H18G10762   0.236   6.854   8.759  1.6720  0.4928  0.8639
  105OSM   H18H10763   0.101   6.920   8.881 -1.1085 -2.0064  0.5649
  106OSM      N10764   6.648   5.644  11.165  0.7383 -0.2238 -0.2129
  106OSM    C1510765   6.610   5.787  11.140  0.7962  0.5473  0.3704
  106OSM   H15A10766   6.514   5.791  11.090  0.8229  0.1207  0.2846
  106OSM   H15B10767   6.676   5.843  11.075  0.9282  1.8887  1.6186
  106OSM   H15C10768   6.604   5.842  11.233 -1.2082  0.6167  0.2228
  106OSM    C1410769   6.777   5.644  11.240 -0.1753 -0.2054  0.0224
  106OSM   H14A10770   6.807   5.543  11.264 -0.7235 -0.5597 -0.7943
  106OSM   H14B10771   6.774   5.708  11.328  1.2775 -0.1858  0.0688
  106OSM   H14C10772   6.857   5.689  11.184 -0.0873 -0.0050  0.3053
  106OSM    C1310773   6.538   5.584  11.252 -0.2832  0.2819  0.0433
  106OSM   H13A10774   6.538   5.627  11.351  2.6838  2.5644 -0.8857
  106OSM   H13B10775   6.566   5.482  11.274 -0.3526  0.5341  1.3319
  106OSM   H13C10776   6.443   5.601  11.203 -0.7124 -0.9760  0.4245
  106OSM    C1210777   6.658   5.578  11.023  0.4848 -0.5074 -0.8446
  106OSM   H12A10778   6.725   5.494  11.034 -1.5163 -2.3733 -2.3900
  106OSM   H12B10779   6.697   5.645  10.949  2.4687 -1.0601 -0.3490
  106OSM    C1110780   6.520   5.518  10.962  0.5705 -0.3712  0.0856
  106OSM   H11A10781   6.496   5.435  11.032 -2.5477 -0.0551 -0.5516
  106OSM   H11B10782   6.542   5.472  10.863  2.1491  0.0999  0.1910
  106OSM      P10783   6.420   5.721  10.846 -0.2234 -0.0636  0.0106
  106OSM    O1310784   6.327   5.678  10.738 -0.5973 -0.1447 -0.0768
  106OSM    O1410785   6.388   5.854  10.908 -0.0018 -0.2456 -0.1028
  106OSM    O1110786   6.562   5.722  10.793 -0.4328 -0.0454  0.4924
  106OSM    O1210787   6.411   5.610  10.956  0.2253 -0.2916  0.0505
  106OSM    C1S10788   6.614   5.683  10.665 -0.5460 -0.1200  0.6709
  106OSM    H1S10789   6.550   5.599  10.628 -0.2063  0.5363 -1.4621
  106OSM    H1T10790   6.724   5.676  10.667 -0.4433  1.4569  1.2686
  106OSM     NF10791   6.628   5.749  10.436  0.4353  0.0847  0.1497
  106OSM    HNF10792   6.723   5.759  10.410  0.8279 -1.3463  1.0019
  106OSM    C2S10793   6.591   5.800  10.566 -0.2724  0.0778 -0.5413
  106OSM    H2S10794   6.484   5.830  10.573 -0.2613 -0.4748  2.4412
  106OSM    C3S10795   6.678   5.926  10.600  0.0402 -0.8190 -0.0957
  106OSM    H3S10796   6.786   5.900  10.611  0.8452  1.9124 -1.1622
  106OSM     O310797   6.644   5.988  10.727 -0.2560 -0.5833 -0.9105
  106OSM    HO310798   6.588   5.920  10.765  1.2128 -0.7218  1.0566
  106OSM    C4S10799   6.657   6.033  10.495  0.5246  0.3270 -0.3332
  106OSM    H4S10800   6.560   6.081  10.512 -1.3651 -2.8952 -1.5146
  106OSM    C5S10801   6.744   6.082  10.406  0.1864 -0.0156 -0.1151
  106OSM    H5S10802   6.837   6.026  10.395  0.4007  0.1433  0.8568
  106OSM    C6S10803   6.711   6.184  10.306 -0.8301 -0.2785 -0.3143
  106OSM    H6S10804   6.802   6.243  10.281 -2.2815  1.4528 -1.7040
  106OSM    H6T10805   6.647   6.264  10.349  0.5791  1.1196 -0.7311
  106OSM    C7S10806   6.643   6.116  10.190  0.1227 -0.6391  0.5494
  106OSM    H7S10807   6.544   6.095  10.235 -2.1195  1.1121 -3.2991
  106OSM    H7T10808   6.692   6.025  10.150  1.6888 -0.8292  2.8366
  106OSM    C8S10809   6.612   6.213  10.070 -0.0783  0.0840  0.1215
  106OSM    H8S10810   6.708   6.232  10.017 -0.9602 -0.1440 -1.5898
  106OSM    H8T10811   6.581   6.301  10.130 -2.1265 -0.2850 -0.3420
  106OSM    C9S10812   6.491   6.172   9.981  0.5330  0.0529 -0.1817
  106OSM    H9S10813   6.401   6.169  10.047 -0.5892  1.3480 -1.6095
  106OSM    H9T10814   6.511   6.078   9.927 -0.0704  0.0501 -0.4019
  106OSM   C10S10815   6.474   6.284   9.870  0.6985 -0.6292 -0.3058
  106OSM   H10S10816   6.555   6.296   9.794  1.4098  1.2888  0.7436
  106OSM   H10T10817   6.471   6.379   9.927  2.4242 -0.3821 -0.5751
  106OSM   C11S10818   6.354   6.251   9.786  0.0469 -0.0716 -0.0394
  106OSM   H11S10819   6.256   6.252   9.839  0.9252 -1.4063  1.6701
  106OSM   H11T10820   6.382   6.155   9.737  0.1733  0.9376 -2.0197
  106OSM   C12S10821   6.332   6.347   9.663 -0.3841  0.2841  0.3969
  106OSM   H12S10822   6.431   6.357   9.614 -0.8649  0.2190 -0.5925
  106OSM   H12T10823   6.295   6.447   9.694 -1.9515 -0.4975  1.0991
  106OSM   C13S10824   6.230   6.301   9.552  0.4119 -0.2863  0.5263
  106OSM   H13S10825   6.124   6.305   9.583  0.9166  0.0516  2.2449
  106OSM   H13T10826   6.249   6.192   9.539  1.3193  0.0742 -1.4656
  106OSM   C14S10827   6.245   6.376   9.415  0.1059  0.4359  0.3213
  106OSM   H14S10828   6.348   6.372   9.375  0.2886 -0.5080  0.8748
  106OSM   H14T10829   6.217   6.484   9.415  0.5409  0.5531 -1.2171
  106OSM   C15S10830   6.148   6.319   9.301  0.4020 -0.3629  0.1396
  106OSM   H15S10831   6.053   6.301   9.356  0.2966 -0.2521 -0.0052
  106OSM   H15T10832   6.184   6.217   9.273  0.9648  0.2283 -1.3385
  106OSM   C16S10833   6.131   6.418   9.184  0.9729 -0.4314  0.2284
  106OSM   H16S10834   6.223   6.480   9.174  0.2691  0.3399 -1.5211
  106OSM   H16T10835   6.037   6.475   9.198  1.5863 -0.2127  4.2814
  106OSM   C17S10836   6.100   6.353   9.049  0.0308  0.0590  0.4520
  106OSM   H17S10837   6.023   6.279   9.078 -1.2479  1.0482 -0.3605
  106OSM   H17T10838   6.187   6.298   9.006 -0.1298 -0.7399  1.1451
  106OSM   C18S10839   6.053   6.451   8.940  0.1397  0.0693  0.2290
  106OSM   H18S10840   6.127   6.484   8.864 -0.7354 -0.9547 -1.0952
  106OSM   H18T10841   5.983   6.530   8.975 -0.0840  0.2803 -0.6984
  106OSM   H18U10842   5.989   6.392   8.871  2.2056 -0.1055 -1.5872
  106OSM    C1F10843   6.554   5.674  10.354 -0.1046  0.0249  0.5651
  106OSM     OF10844   6.443   5.633  10.383  0.0769  0.6080 -0.0792
  106OSM    C2F10845   6.607   5.646  10.217  0.2282 -0.2472  0.8741
  106OSM    H2F10846   6.583   5.539  10.197  1.9656 -0.9530  2.4515
  106OSM    H2G10847   6.717   5.657  10.209  0.0509 -0.0398 -1.6317
  106OSM    C3F10848   6.538   5.739  10.118 -0.0421  0.3662 -0.4274
  106OSM    H3F10849   6.577   5.842  10.132 -0.3671  0.1673  2.0460
  106OSM    H3G10850   6.430   5.719  10.134 -0.5177  1.0028 -2.6749
  106OSM    C4F10851   6.565   5.691   9.972 -0.5439 -0.2704  0.0615
  106OSM    H4F10852   6.553   5.583   9.949  0.9144 -0.7397  1.4314
  106OSM    H4G10853   6.674   5.707   9.956 -0.5003  1.1135  1.6230
  106OSM    C5F10854   6.486   5.765   9.861 -0.2546 -0.0567 -0.8281
  106OSM    H5F10855   6.492   5.873   9.883 -1.0240 -0.0529 -0.5920
  106OSM    H5G10856   6.381   5.731   9.874 -0.8511  1.4881 -1.5401
  106OSM    C6F10857   6.536   5.728   9.722 -0.3633  0.4109 -0.6771
  106OSM    H6F10858   6.517   5.620   9.707  0.3506  0.4451 -1.8723
  106OSM    H6G10859   6.645   5.744   9.713 -0.4181  0.1501 -1.9618
  106OSM    C7F10860   6.466   5.808   9.615 -0.1168  0.4277 -0.7275
  106OSM    H7F10861   6.510   5.910   9.609 -0.1771  0.5604  0.9070
  106OSM    H7G10862   6.360   5.827   9.645  0.5063  2.1380  0.5207
  106OSM    C8F10863   6.476   5.742   9.472 -0.4680  0.1357  0.7745
  106OSM    H8F10864   6.399   5.790   9.408  0.0983  0.9889  0.7296
  106OSM    H8G10865   6.432   5.641   9.485 -2.6728  1.0095  0.3314
  106OSM    C9F10866   6.622   5.744   9.417 -0.6538 -0.1752  0.0123
  106OSM    H9F10867   6.696   5.794   9.481 -1.3043  0.5930  0.1708
  106OSM   C10F10868   6.663   5.685   9.298  0.7967  0.5551 -0.3327
  106OSM   H10F10869   6.770   5.681   9.271  0.6432 -0.7111 -0.7662
  106OSM   C11F10870   6.570   5.604   9.211  0.2679  0.2913 -0.1066
  106OSM   H11F10871   6.470   5.645   9.233  1.0128  3.3059 -1.9875
  106OSM   H11G10872   6.577   5.496   9.237  0.1982 -0.2159 -2.1079
  106OSM   C12F10873   6.613   5.619   9.061  0.5838  0.6545 -0.5894
  106OSM   H12F10874   6.546   5.554   9.002  2.1326  0.3123 -2.0051
  106OSM   H12G10875   6.720   5.589   9.068  0.9508  1.8428 -1.0967
  106OSM   C13F10876   6.612   5.760   9.000 -0.9792 -1.0331 -0.5694
  106OSM   H13F10877   6.682   5.825   9.058 -2.9941  0.9841 -0.3395
  106OSM   H13G10878   6.518   5.812   9.026  0.2900  0.6169  0.8688
  106OSM   C14F10879   6.633   5.767   8.851 -0.3306  0.5212 -0.0281
  106OSM   H14F10880   6.550   5.723   8.792 -0.6796 -0.3949  1.1146
  106OSM   H14G10881   6.726   5.714   8.821 -1.3551 -1.1358 -0.3649
  106OSM   C15F10882   6.641   5.915   8.802 -0.2600  0.5974 -0.1009
  106OSM   H15F10883   6.572   5.981   8.859  0.1262  1.0759 -0.1917
  106OSM   H15G10884   6.604   5.908   8.698  0.6940 -0.4495 -0.3787
  106OSM   C16F10885   6.790   5.968   8.814 -0.0750  0.1095 -0.3504
  106OSM   H16F10886   6.859   5.895   8.768  2.0920  0.9233  1.5136
  106OSM   H16G10887   6.827   5.987   8.917 -1.5021  1.2337 -0.0349
  106OSM   C17F10888   6.811   6.094   8.736  0.0229 -0.0534  0.1908
  106OSM   H17F10889   6.743   6.174   8.772 -0.1886 -0.9459  1.8499
  106OSM   H17G10890   6.788   6.075   8.630 -1.0914 -3.6537  1.0249
  106OSM   C18F10891   6.961   6.135   8.748  0.4134 -0.2209 -0.4613
  106OSM   H18F10892   6.975   6.166   8.854 -1.6680  1.2554 -0.5723
  106OSM   H18G10893   6.977   6.228   8.689  3.1370  0.3802  1.1574
  106OSM   H18H10894   7.037   6.064   8.709 -0.9994 -1.1458 -1.5939
  107OSM      N10895   2.552   3.482  11.215  0.1428 -0.3172  0.2274
  107OSM    C1510896   2.637   3.358  11.208  0.3581 -0.4217  0.5303
  107OSM   H15A10897   2.706   3.348  11.290 -0.6253  0.5122  1.5032
  107OSM   H15B10898   2.692   3.368  11.115  1.3413  1.9405  1.3202
  107OSM   H15C10899   2.581   3.266  11.205 -0.1831 -0.0915  0.4980
  107OSM    C1410900   2.470   3.475  11.339  0.3518  0.5975  0.0805
  107OSM   H14A10901   2.534   3.461  11.425  1.6618  1.3523 -0.7522
  107OSM   H14B10902   2.403   3.391  11.327  0.5760  0.2519  1.1984
  107OSM   H14C10903   2.409   3.563  11.353 -1.6904 -0.8839  0.7895
  107OSM    C1310904   2.642   3.602  11.213  0.1664  0.6110  1.1413
  107OSM   H13A10905   2.718   3.610  11.289  1.5164 -1.9386  0.1291
  107OSM   H13B10906   2.588   3.695  11.200  0.9437  0.6195 -2.6902
  107OSM   H13C10907   2.691   3.596  11.117 -0.7713  2.1736  0.5483
  107OSM    C1210908   2.452   3.483  11.098  0.1140  0.6944  0.2648
  107OSM   H12A10909   2.381   3.560  11.125 -1.3109 -0.2799 -0.6276
  107OSM   H12B10910   2.394   3.392  11.099 -1.4836  1.6977  0.1765
  107OSM    C1110911   2.509   3.507  10.959  0.0775  0.4090 -0.7578
  107OSM   H11A10912   2.562   3.603  10.944  0.8536 -0.0847 -1.2454
  107OSM   H11B10913   2.431   3.514  10.880  2.7959 -2.4581 -3.9015
  107OSM      P10914   2.551   3.284  10.823  0.0199 -0.4182  0.1051
  107OSM    O1310915   2.658   3.187  10.803 -0.0199  0.2393  0.6705
  107OSM    O1410916   2.429   3.227  10.877 -0.1280  0.2148  0.0507
  107OSM    O1110917   2.509   3.365  10.691  0.0039 -0.2958 -0.1172
  107OSM    O1210918   2.596   3.397  10.929 -0.6225 -1.1715 -0.4159
  107OSM    C1S10919   2.581   3.478  10.640 -0.0905 -0.2724  0.0686
  107OSM    H1S10920   2.691   3.471  10.649  0.0344  1.2672 -0.1091
  107OSM    H1T10921   2.560   3.572  10.696  1.2674  0.6376 -0.9141
  107OSM     NF10922   2.650   3.603  10.437  0.8087 -0.4167 -0.8184
  107OSM    HNF10923   2.618   3.698  10.431  0.7570 -0.4459 -0.9987
  107OSM    C2S10924   2.559   3.502  10.488 -0.1705 -0.5951  0.0366
  107OSM    H2S10925   2.588   3.408  10.436  0.6753 -0.0502 -0.4926
  107OSM    C3S10926   2.402   3.526  10.469 -0.6600 -0.2491 -0.1055
  107OSM    H3S10927   2.367   3.621  10.515  1.3250  0.4344  0.0327
  107OSM     O310928   2.319   3.420  10.520 -0.2484 -0.5441  0.0342
  107OSM    HO310929   2.388   3.361  10.549  1.2230  0.8924 -0.4756
  107OSM    C4S10930   2.386   3.530  10.317  1.0255  0.0517 -0.0110
  107OSM    H4S10931   2.360   3.434  10.272  0.9073 -0.4258  1.0608
  107OSM    C5S10932   2.387   3.646  10.248  0.1739 -0.8220  0.1668
  107OSM    H5S10933   2.413   3.735  10.306 -2.4914  0.1851 -0.1197
  107OSM    C6S10934   2.375   3.665  10.100 -0.1765 -0.5239 -0.5394
  107OSM    H6S10935   2.479   3.685  10.067  0.5761 -0.9180  1.4901
  107OSM    H6T10936   2.309   3.754  10.099  0.9810  0.3535 -0.4658
  107OSM    C7S10937   2.303   3.561  10.015 -0.2051  0.3226 -0.4939
  107OSM    H7S10938   2.202   3.532  10.054  1.3572  0.3046  3.8759
  107OSM    H7T10939   2.378   3.479  10.023 -0.0164  0.6702  1.5442
  107OSM    C8S10940   2.287   3.604   9.871  1.0517  0.5006 -0.0270
  107OSM    H8S10941   2.258   3.521   9.803  2.1649  1.4509 -1.7044
  107OSM    H8T10942   2.385   3.634   9.827 -0.1109  0.8713 -2.4240
  107OSM    C9S10943   2.206   3.732   9.848 -0.1408  0.1748 -0.6995
  107OSM    H9S10944   2.256   3.816   9.901 -1.1577  1.4446 -1.7146
  107OSM    H9T10945   2.100   3.727   9.879  0.4156 -0.8286  1.0740
  107OSM   C10S10946   2.217   3.787   9.697 -1.0797  0.3061  0.1457
  107OSM   H10S10947   2.326   3.787   9.676 -1.2962  0.3822 -0.9770
  107OSM   H10T10948   2.183   3.892   9.704 -1.3292  0.4518 -2.7383
  107OSM   C11S10949   2.135   3.710   9.588  0.0533  0.6032  0.0744
  107OSM   H11S10950   2.042   3.768   9.569 -0.7689 -0.2037  1.5192
  107OSM   H11T10951   2.107   3.608   9.622  1.3177 -0.0654 -0.8736
  107OSM   C12S10952   2.207   3.700   9.453 -0.1663 -0.2314 -0.1994
  107OSM   H12S10953   2.312   3.666   9.463 -0.1518  0.2139  1.2852
  107OSM   H12T10954   2.206   3.805   9.415 -0.2044  0.4255  1.5696
  107OSM   C13S10955   2.138   3.612   9.343 -0.5746 -0.3012 -0.3224
  107OSM   H13S10956   2.040   3.657   9.318  0.2469  0.2596 -2.6572
  107OSM   H13T10957   2.128   3.508   9.381  1.8332  0.2775  2.0740
  107OSM   C14S10958   2.211   3.612   9.208 -0.3247  0.6876 -1.0451
  107OSM   H14S10959   2.249   3.713   9.183 -0.6252  0.8949 -0.6595
  107OSM   H14T10960   2.142   3.587   9.125 -2.3362  0.0487  0.7625
  107OSM   C15S10961   2.326   3.512   9.224 -0.2796 -0.2212 -0.7323
  107OSM   H15S10962   2.287   3.414   9.258  1.9788 -0.2903  1.9283
  107OSM   H15T10963   2.397   3.552   9.300 -0.4878 -0.6927 -0.2939
  107OSM   C16S10964   2.418   3.495   9.097  0.0041  0.3632  0.1507
  107OSM   H16S10965   2.496   3.420   9.121 -0.2397  0.3032  0.7613
  107OSM   H16T10966   2.462   3.593   9.073 -0.2097  0.2024 -0.9246
  107OSM   C17S10967   2.333   3.435   8.983 -0.3020  0.3169  0.2481
  107OSM   H17S10968   2.402   3.412   8.899 -0.3232 -0.8069  0.5284
  107OSM   H17T10969   2.258   3.507   8.943  0.0322 -0.5501 -2.0310
  107OSM   C18S10970   2.258   3.311   9.012  0.3642  0.3270  0.1063
  107OSM   H18S10971   2.323   3.248   9.077  0.6120  0.1160 -0.3439
  107OSM   H18T10972   2.236   3.267   8.913  1.6297 -0.6793  0.2624
  107OSM   H18U10973   2.164   3.325   9.070  0.0970 -1.4432  0.1384
  107OSM    C1F10974   2.771   3.567  10.401  0.5451  0.6369 -0.6735
  107OSM     OF10975   2.810   3.453  10.419 -0.0241 -0.7832 -0.3814
  107OSM    C2F10976   2.858   3.669  10.341 -0.4010 -0.5956  0.4545
  107OSM    H2F10977   2.918   3.726  10.414  0.6074 -0.4086 -0.5075
  107OSM    H2G10978   2.786   3.746  10.306 -0.9555 -1.7575 -1.0108
  107OSM    C3F10979   2.941   3.619  10.220 -0.3654 -0.0624  0.2688
  107OSM    H3F10980   2.875   3.591  10.136  1.8192 -3.8705 -0.2694
  107OSM    H3G10981   3.004   3.532  10.248 -0.8710 -0.1140  1.2767
  107OSM    C4F10982   3.029   3.736  10.166  1.0321  0.3838 -0.1267
  107OSM    H4F10983   3.110   3.750  10.240 -0.3408  0.2622  1.4391
  107OSM    H4G10984   2.969   3.829  10.149 -0.3364 -0.6121 -0.8474
  107OSM    C5F10985   3.099   3.694  10.036 -0.3770  0.0870  0.0717
  107OSM    H5F10986   3.029   3.693   9.950  0.7284 -1.6739 -0.8256
  107OSM    H5G10987   3.133   3.590  10.052 -2.6079 -0.7732 -0.5491
  107OSM    C6F10988   3.222   3.781  10.001 -0.1062 -0.1847  0.6819
  107OSM    H6F10989   3.277   3.785  10.097 -0.3793 -1.7968  0.9238
  107OSM    H6G10990   3.192   3.884   9.976 -2.0122 -1.3162 -1.9296
  107OSM    C7F10991   3.315   3.728   9.892 -0.2036 -0.0482  0.5734
  107OSM    H7F10992   3.322   3.619   9.916 -1.6909 -0.3101 -0.1260
  107OSM    H7G10993   3.419   3.758   9.919 -0.3900 -0.0525  1.3100
  107OSM    C8F10994   3.282   3.758   9.745 -0.6799 -0.3386 -0.1046
  107OSM    H8F10995   3.175   3.734   9.725 -0.7846 -0.2448  0.3278
  107OSM    H8G10996   3.334   3.693   9.672 -0.8058  1.7355 -2.1051
  107OSM    C9F10997   3.299   3.906   9.711  0.2332  0.3747  0.0236
  107OSM    H9F10998   3.322   3.974   9.795  2.9850 -0.4039 -0.0607
  107OSM   C10F10999   3.309   3.958   9.587 -0.0668 -0.1053  0.2810
  107OSM   H10F11000   3.331   4.065   9.591  1.7768 -0.4709  0.2275
  107OSM   C11F11001   3.302   3.891   9.458  0.1670 -0.2447 -0.3350
  107OSM   H11F11002   3.232   3.949   9.394 -0.6998  0.9838  1.7038
  107OSM   H11G11003   3.268   3.787   9.474  2.4695 -1.0666 -0.5769
  107OSM   C12F11004   3.452   3.882   9.395 -0.2495 -0.2954 -0.0367
  107OSM   H12F11005   3.504   3.791   9.432  1.8359  0.3639 -1.2185
  107OSM   H12G11006   3.516   3.971   9.414  0.2878 -0.9879  1.4894
  107OSM   C13F11007   3.432   3.865   9.245 -1.1565  0.0067  0.0476
  107OSM   H13F11008   3.369   3.952   9.216 -2.4911 -0.9336  0.0665
  107OSM   H13G11009   3.371   3.777   9.218 -2.5053  0.9937 -0.1586
  107OSM   C14F11010   3.569   3.865   9.180 -0.3894 -0.7675  0.5680
  107OSM   H14F11011   3.635   3.780   9.207  0.1895 -0.6756 -0.5308
  107OSM   H14G11012   3.619   3.957   9.216 -2.4904  0.1804  1.1186
  107OSM   C15F11013   3.566   3.874   9.028  0.7573 -0.0352  0.6594
  107OSM   H15F11014   3.511   3.965   8.997 -1.6970 -1.5225  0.5357
  107OSM   H15G11015   3.498   3.792   8.998 -0.2862  0.8246  0.6719
  107OSM   C16F11016   3.699   3.869   8.945 -0.1657 -0.1922  0.0950
  107OSM   H16F11017   3.757   3.784   8.987 -1.0950 -1.0432 -0.3209
  107OSM   H16G11018   3.770   3.954   8.951  0.4856 -0.8425  1.8871
  107OSM   C17F11019   3.682   3.835   8.794 -0.0733  0.4632  0.6324
  107OSM   H17F11020   3.782   3.807   8.755  0.1383  0.2032  1.3490
  107OSM   H17G11021   3.641   3.929   8.750  0.3287  1.3388  2.0972
  107OSM   C18F11022   3.590   3.722   8.767  0.0453 -0.3450  0.0152
  107OSM   H18F11023   3.593   3.633   8.834  1.3806 -0.4922 -0.2279
  107OSM   H18G11024   3.601   3.672   8.668  1.8364 -2.0860  1.0592
  107OSM   H18H11025   3.482   3.747   8.772 -0.6260 -2.6111 -1.9600
  108OSM      N11026   0.018   4.037  10.796  0.1033  0.0489 -0.4240
  108OSM    C1511027   0.072   3.906  10.750 -0.7635 -0.0004 -0.0504
  108OSM   H15A11028   0.150   3.863  10.811  0.2132 -0.8029 -1.8433
  108OSM   H15B11029   0.117   3.940  10.658 -3.8511  1.8128 -0.9644
  108OSM   H15C11030  -0.004   3.829  10.746 -1.2998  0.2665  3.4309
  108OSM    C1411031  -0.028   4.009  10.944 -0.4171  0.3769  0.5149
  108OSM   H14A11032  -0.094   3.923  10.945 -0.9096  0.6863 -2.3532
  108OSM   H14B11033  -0.075   4.098  10.981  0.8178  0.3551  2.1928
  108OSM   H14C11034   0.059   4.000  11.007  1.3144 -1.2183 -2.0079
  108OSM    C1311035   0.137   4.124  10.805  0.1280 -0.5157  0.3845
  108OSM   H13A11036   0.112   4.215  10.858 -0.9347 -0.2794 -0.5089
  108OSM   H13B11037   0.170   4.165  10.711  0.1213 -0.4148  0.4267
  108OSM   H13C11038   0.219   4.066  10.843  1.0553 -0.9442 -2.1886
  108OSM    C1211039  -0.096   4.083  10.708 -0.0488 -0.2869 -0.3275
  108OSM   H12A11040  -0.135   4.167  10.763  2.8928 -0.0378  1.4437
  108OSM   H12B11041  -0.174   4.008  10.701  0.6135 -0.8422 -1.8634
  108OSM    C1111042  -0.059   4.107  10.563 -0.0428  0.5253  0.8683
  108OSM   H11A11043  -0.145   4.126  10.495 -0.4174 -0.3421  1.0990
  108OSM   H11B11044  -0.009   4.018  10.519  1.7065  1.6839  0.4345
  108OSM      P11045  -0.024   4.367  10.570 -0.0741 -0.1690 -0.5476
  108OSM    O1311046  -0.114   4.376  10.685 -0.0610 -0.3596 -0.2103
  108OSM    O1411047   0.074   4.477  10.553  0.3432  1.1031 -0.5188
  108OSM    O1111048  -0.115   4.360  10.432 -0.2537  0.4553  0.5498
  108OSM    O1211049   0.039   4.218  10.561  0.5908  0.2618 -0.2091
  108OSM    C1S11050  -0.257   4.403  10.448  0.2156 -1.2264  0.2649
  108OSM    H1S11051  -0.260   4.499  10.505  0.9589 -1.0782  0.0605
  108OSM    H1T11052  -0.314   4.327  10.507 -0.8246  0.6528  1.7383
  108OSM     NF11053  -0.473   4.453  10.345 -0.1911 -0.5466  0.3182
  108OSM    HNF11054  -0.533   4.373  10.349  1.2846 -1.8349 -1.7725
  108OSM    C2S11055  -0.332   4.418  10.313 -0.2598  0.4778  0.2705
  108OSM    H2S11056  -0.292   4.503  10.253 -0.9502  1.0128  0.5623
  108OSM    C3S11057  -0.312   4.282  10.229 -0.5486  0.7680 -0.5193
  108OSM    H3S11058  -0.349   4.194  10.286  1.6593 -0.1963 -0.5259
  108OSM     O311059  -0.178   4.249  10.194 -0.3122  0.9807 -0.2456
  108OSM    HO311060  -0.132   4.298  10.263  0.9552  1.2188 -1.2395
  108OSM    C4S11061  -0.392   4.307  10.105  0.4772  0.1197 -0.5377
  108OSM    H4S11062  -0.349   4.384  10.039 -0.5271  0.8644 -0.3266
  108OSM    C5S11063  -0.511   4.248  10.079  0.3379 -0.5050  0.4661
  108OSM    H5S11064  -0.549   4.186  10.161  0.1834  0.6445  1.2813
  108OSM    C6S11065  -0.596   4.251   9.952  0.2636  0.4593  0.2461
  108OSM    H6S11066  -0.682   4.313   9.984  1.3296  2.3931 -0.5739
  108OSM    H6T11067  -0.637   4.151   9.926  0.0811  0.2665  1.2906
  108OSM    C7S11068  -0.540   4.318   9.830  0.0270  0.5454 -0.4304
  108OSM    H7S11069  -0.432   4.294   9.820 -0.2658 -1.2279  0.4701
  108OSM    H7T11070  -0.552   4.428   9.830 -0.6530  0.4692  0.0358
  108OSM    C8S11071  -0.587   4.264   9.695 -0.2268 -0.1432  0.7785
  108OSM    H8S11072  -0.698   4.272   9.692 -0.1407  1.5817  1.4944
  108OSM    H8T11073  -0.573   4.154   9.692 -1.0608 -0.2179 -1.8244
  108OSM    C9S11074  -0.505   4.332   9.581 -0.0129 -0.4013  0.2873
  108OSM    H9S11075  -0.400   4.299   9.592 -0.1873 -1.3874 -0.9231
  108OSM    H9T11076  -0.510   4.443   9.577  0.3286 -0.3943  0.0926
  108OSM   C10S11077  -0.555   4.284   9.443  0.2194  0.6222 -0.9660
  108OSM   H10S11078  -0.654   4.335   9.434  0.7935  2.1892  1.3150
  108OSM   H10T11079  -0.568   4.173   9.442  2.7913  0.2692  0.9511
  108OSM   C11S11080  -0.472   4.326   9.318 -0.0010  0.0007  0.2036
  108OSM   H11S11081  -0.372   4.279   9.321 -0.5128 -1.1610 -0.6692
  108OSM   H11T11082  -0.468   4.437   9.316 -0.5116  0.0091 -0.3482
  108OSM   C12S11083  -0.538   4.265   9.187 -0.0780  0.2860 -0.4110
  108OSM   H12S11084  -0.642   4.302   9.195 -0.2319 -0.0274 -0.9616
  108OSM   H12T11085  -0.541   4.154   9.186 -2.5326  0.3227 -0.2991
  108OSM   C13S11086  -0.462   4.305   9.064 -0.0358 -0.0509  0.0802
  108OSM   H13S11087  -0.361   4.259   9.060 -0.1652 -0.3456  0.1419
  108OSM   H13T11088  -0.446   4.414   9.057  1.6511 -0.3536 -1.1835
  108OSM   C14S11089  -0.539   4.265   8.935  0.1408  0.3932 -0.7106
  108OSM   H14S11090  -0.643   4.304   8.928 -0.3859 -1.3007 -3.1077
  108OSM   H14T11091  -0.545   4.155   8.939  2.1595  0.2508 -0.7498
  108OSM   C15S11092  -0.458   4.305   8.811  0.0190  0.8877 -0.2946
  108OSM   H15S11093  -0.352   4.282   8.836 -0.7892 -1.0993  1.4461
  108OSM   H15T11094  -0.474   4.409   8.775  0.4146  0.8760 -0.5135
  108OSM   C16S11095  -0.506   4.214   8.695  0.4040  0.3486 -0.1488
  108OSM   H16S11096  -0.601   4.259   8.658  0.3548  1.2731  1.0831
  108OSM   H16T11097  -0.525   4.113   8.736  1.4782  0.1881 -0.0306
  108OSM   C17S11098  -0.413   4.198   8.573  0.2353 -0.1595 -0.1947
  108OSM   H17S11099  -0.401   4.292   8.515 -0.9471 -1.7221 -3.0418
  108OSM   H17T11100  -0.455   4.118   8.509 -3.0880  1.1146  0.3025
  108OSM   C18S11101  -0.270   4.162   8.612 -0.3578  0.0479  0.0912
  108OSM   H18S11102  -0.216   4.148   8.516 -1.0754 -1.2273 -0.1476
  108OSM   H18T11103  -0.267   4.071   8.676 -2.0922 -0.9342 -1.1644
  108OSM   H18U11104  -0.217   4.248   8.657  1.2217 -0.5464 -0.5679
  108OSM    C1F11105  -0.515   4.574  10.394  0.1337  0.2998  0.1566
  108OSM     OF11106  -0.433   4.659  10.415 -0.7323 -0.2971  0.0376
  108OSM    C2F11107  -0.660   4.593  10.410  0.5477  0.3918 -0.4048
  108OSM    H2F11108  -0.682   4.606  10.518  1.8007 -1.7276  0.1385
  108OSM    H2G11109  -0.717   4.503  10.378  2.4052 -0.3532 -1.7534
  108OSM    C3F11110  -0.703   4.707  10.318  0.4016 -0.1567  0.0148
  108OSM    H3F11111  -0.650   4.804  10.329 -0.0712 -0.1110  2.0438
  108OSM    H3G11112  -0.808   4.735  10.341  0.9792  1.8282  0.2928
  108OSM    C4F11113  -0.692   4.655  10.174  0.4812  0.4399  0.4089
  108OSM    H4F11114  -0.740   4.555  10.168 -0.7486  1.0363  0.1059
  108OSM    H4G11115  -0.584   4.634  10.164  0.1007 -2.1979  1.5263
  108OSM    C5F11116  -0.732   4.750  10.065 -0.0679 -0.4016 -0.3694
  108OSM    H5F11117  -0.678   4.847  10.064  0.3288 -0.6377 -2.2799
  108OSM    H5G11118  -0.840   4.775  10.070  0.3229  1.2805 -0.0882
  108OSM    C6F11119  -0.691   4.670   9.936  1.2009  0.4421 -0.5002
  108OSM    H6F11120  -0.759   4.583   9.929 -1.2873  2.2773  0.2112
  108OSM    H6G11121  -0.589   4.626   9.949  1.5502  1.6308  0.8620
  108OSM    C7F11122  -0.697   4.755   9.810  0.5890 -0.1205  0.1418
  108OSM    H7F11123  -0.633   4.845   9.825  0.8563 -0.7091  2.8399
  108OSM    H7G11124  -0.800   4.791   9.789 -0.3435 -2.9279 -0.3818
  108OSM    C8F11125  -0.654   4.674   9.684  0.4486 -0.5366  0.3081
  108OSM    H8F11126  -0.563   4.613   9.699  1.6632  1.3455  0.7378
  108OSM    H8G11127  -0.607   4.743   9.611  1.0697 -0.5438  0.7024
  108OSM    C9F11128  -0.759   4.583   9.621 -0.0191  0.0255 -0.0928
  108OSM    H9F11129  -0.811   4.515   9.690 -0.7529 -1.4131 -2.0142
  108OSM   C10F11130  -0.809   4.590   9.494  0.1492 -0.5915 -0.3191
  108OSM   H10F11131  -0.889   4.522   9.463 -1.2505  0.6482  0.5075
  108OSM   C11F11132  -0.768   4.678   9.382 -0.7204 -0.4855 -0.6747
  108OSM   H11F11133  -0.676   4.736   9.403  0.2196 -2.6117  1.2905
  108OSM   H11G11134  -0.851   4.751   9.370 -0.7806 -0.3837  0.2791
  108OSM   C12F11135  -0.757   4.604   9.257  0.1829  0.0339 -0.0217
  108OSM   H12F11136  -0.859   4.566   9.235 -0.9672  2.4943  0.9270
  108OSM   H12G11137  -0.689   4.515   9.259  1.4633  0.9493 -1.6563
  108OSM   C13F11138  -0.718   4.689   9.137 -0.0052 -0.3065  0.3761
  108OSM   H13F11139  -0.628   4.746   9.170 -0.3156  0.3022  0.1732
  108OSM   H13G11140  -0.810   4.747   9.115  0.9137  0.7295 -0.8718
  108OSM   C14F11141  -0.676   4.616   9.007 -0.6865  0.1786 -0.3197
  108OSM   H14F11142  -0.765   4.557   8.978 -0.4070 -0.0932 -0.6190
  108OSM   H14G11143  -0.584   4.563   9.041 -0.3394  1.3635  0.6388
  108OSM   C15F11144  -0.646   4.712   8.890 -0.8337  0.0724  0.1426
  108OSM   H15F11145  -0.728   4.786   8.882 -0.3776  0.6963  1.1217
  108OSM   H15G11146  -0.639   4.643   8.803 -0.6671 -0.6737  0.7348
  108OSM   C16F11147  -0.507   4.788   8.902 -0.6556 -0.8390 -0.4345
  108OSM   H16F11148  -0.417   4.724   8.906 -1.3869 -1.8293  0.2824
  108OSM   H16G11149  -0.504   4.845   8.997 -0.4685 -0.4370 -0.6748
  108OSM   C17F11150  -0.504   4.897   8.792  0.5590 -0.1158  1.2641
  108OSM   H17F11151  -0.604   4.945   8.800  0.0986 -1.1109  1.5592
  108OSM   H17G11152  -0.495   4.854   8.690 -1.8512 -0.8880  1.3467
  108OSM   C18F11153  -0.392   4.996   8.817  0.8190  0.5354 -0.3121
  108OSM   H18F11154  -0.300   4.934   8.819  1.7114  1.8622  0.1225
  108OSM   H18G11155  -0.417   5.052   8.911 -2.7854 -0.6322 -0.4699
  108OSM   H18H11156  -0.375   5.079   8.746 -0.2818  1.1955  0.1721
  109OSM      N11157   5.242   2.629  11.168  0.0645  0.7984  0.4988
  109OSM    C1511158   5.125   2.685  11.236  0.7082 -0.0233  0.2605
  109OSM   H15A11159   5.101   2.635  11.328 -2.1842 -1.1408 -1.0354
  109OSM   H15B11160   5.034   2.674  11.178  0.1434  2.3989  0.6175
  109OSM   H15C11161   5.143   2.790  11.252 -0.0607 -0.0445  1.3136
  109OSM    C1411162   5.372   2.632  11.248  0.2771  0.2553  0.0977
  109OSM   H14A11163   5.402   2.734  11.268 -0.9710  0.5284  0.6235
  109OSM   H14B11164   5.446   2.577  11.191 -0.9247 -2.4848  1.1079
  109OSM   H14C11165   5.349   2.585  11.342  2.8685 -1.2783 -0.0081
  109OSM    C1311166   5.206   2.483  11.136 -0.2971  0.4535  0.3415
  109OSM   H13A11167   5.112   2.478  11.084 -0.9380  0.8478  1.4528
  109OSM   H13B11168   5.182   2.433  11.228 -0.7981 -3.1173 -1.6523
  109OSM   H13C11169   5.282   2.429  11.081 -0.4252  0.6425 -0.0247
  109OSM    C1211170   5.255   2.699  11.033  0.0592  0.1955 -0.7297
  109OSM   H12A11171   5.267   2.803  11.057  0.2534  0.4058 -1.7239
  109OSM   H12B11172   5.160   2.681  10.985  0.4597 -1.9940 -0.7671
  109OSM    C1111173   5.374   2.662  10.941 -0.3574 -0.2940 -0.4355
  109OSM   H11A11174   5.352   2.713  10.845  2.9377  1.4020 -0.3873
  109OSM   H11B11175   5.379   2.553  10.918 -0.7617 -0.6403  1.0682
  109OSM      P11176   5.538   2.860  10.993 -0.2858 -0.1105 -0.4331
  109OSM    O1311177   5.490   2.924  11.119  0.2013  0.3540  0.0129
  109OSM    O1411178   5.680   2.860  10.963 -0.1898  0.3899 -0.3042
  109OSM    O1111179   5.447   2.913  10.873 -0.4825  0.1131 -0.0909
  109OSM    O1211180   5.497   2.702  11.000  0.2608  0.1650  0.1805
  109OSM    C1S11181   5.490   3.019  10.795 -0.5993 -0.4219  0.6160
  109OSM    H1S11182   5.598   3.042  10.806 -0.7595  0.5872  0.1326
  109OSM    H1T11183   5.428   3.110  10.806 -0.1473 -0.2213  1.4687
  109OSM     NF11184   5.557   3.059  10.549 -0.0186 -0.2862 -0.1129
  109OSM    HNF11185   5.517   3.133  10.495  1.2323  1.2423  0.9887
  109OSM    C2S11186   5.472   2.982  10.642 -0.5706 -0.0520  0.1813
  109OSM    H2S11187   5.502   2.876  10.628 -2.1200 -0.6865  1.4764
  109OSM    C3S11188   5.325   3.005  10.603  0.8348  0.3142  0.3885
  109OSM    H3S11189   5.314   3.115  10.600 -0.1883  0.1891 -1.0358
  109OSM     O311190   5.229   2.950  10.698  0.0185 -0.0610 -0.1378
  109OSM    HO311191   5.284   2.915  10.768  0.8067 -1.2933 -1.3542
  109OSM    C4S11192   5.287   2.948  10.468  0.3362  0.3727 -0.1406
  109OSM    H4S11193   5.310   2.841  10.469 -1.1339  0.0473 -0.8746
  109OSM    C5S11194   5.245   3.008  10.356  0.8284 -0.1019 -0.0478
  109OSM    H5S11195   5.244   3.118  10.348  2.0468  0.0164  1.1885
  109OSM    C6S11196   5.228   2.925  10.236 -0.5758 -0.6250  0.6272
  109OSM    H6S11197   5.127   2.879  10.243  0.4851 -2.8866  1.6449
  109OSM    H6T11198   5.307   2.848  10.225 -1.5947 -1.4526 -1.1026
  109OSM    C7S11199   5.242   3.002  10.110  0.7415 -0.0613 -0.0179
  109OSM    H7S11200   5.316   3.085  10.113 -0.8443  1.3581  1.2510
  109OSM    H7T11201   5.147   3.056  10.093  1.0384 -0.1813 -2.1374
  109OSM    C8S11202   5.243   2.909   9.992 -0.1692  0.0498  0.5982
  109OSM    H8S11203   5.173   2.824  10.007 -0.1611 -0.1634 -0.5321
  109OSM    H8T11204   5.345   2.865   9.990 -0.6074 -1.0163  1.4267
  109OSM    C9S11205   5.222   2.969   9.858  0.3264 -0.3827 -0.5172
  109OSM    H9S11206   5.300   3.046   9.841  1.1912 -1.3164 -0.8906
  109OSM    H9T11207   5.120   3.011   9.870  0.8265 -0.0683  3.2123
  109OSM   C10S11208   5.221   2.843   9.757 -0.1293 -0.6332  0.2346
  109OSM   H10S11209   5.144   2.768   9.787 -0.0429  0.2403  2.7953
  109OSM   H10T11210   5.307   2.775   9.772  1.1740  0.4532 -2.0179
  109OSM   C11S11211   5.211   2.897   9.605 -0.2176 -0.0336 -0.2901
  109OSM   H11S11212   5.219   2.812   9.533 -1.4583 -0.8440  0.4968
  109OSM   H11T11213   5.305   2.952   9.583  0.0138  0.3735  1.6832
  109OSM   C12S11214   5.099   2.994   9.575 -0.1215  0.5880  0.0387
  109OSM   H12S11215   5.154   3.090   9.581  1.7201 -0.5864  2.6876
  109OSM   H12T11216   5.016   2.984   9.647  1.7516 -1.0182  2.0271
  109OSM   C13S11217   5.032   2.959   9.440  0.4241 -0.6998 -0.4459
  109OSM   H13S11218   4.936   3.013   9.425  1.8503  2.0299 -0.0542
  109OSM   H13T11219   5.003   2.852   9.444 -1.1130 -0.3461 -1.5831
  109OSM   C14S11220   5.132   2.981   9.328 -0.3818 -0.2749 -0.2920
  109OSM   H14S11221   5.229   2.935   9.355 -0.7589 -0.5836  0.5463
  109OSM   H14T11222   5.172   3.085   9.321 -2.9884  0.7866 -0.1861
  109OSM   C15S11223   5.088   2.922   9.199  0.6690  0.5977 -0.4864
  109OSM   H15S11224   4.996   2.978   9.171 -0.2034  0.3914  1.8180
  109OSM   H15T11225   5.072   2.815   9.225 -0.4336  0.5022 -1.5266
  109OSM   C16S11226   5.185   2.947   9.079  0.2091  0.1128 -0.3953
  109OSM   H16S11227   5.209   3.055   9.070  1.2385  0.1937  2.8480
  109OSM   H16T11228   5.130   2.917   8.987  0.1454  0.4949 -0.4810
  109OSM   C17S11229   5.308   2.862   9.088  0.0131  0.3664 -0.0195
  109OSM   H17S11230   5.262   2.761   9.099  0.7217  0.0294 -0.1263
  109OSM   H17T11231   5.363   2.895   9.179 -2.8981 -0.2712  2.0252
  109OSM   C18S11232   5.407   2.851   8.964 -0.6032  0.0073  0.0791
  109OSM   H18S11233   5.437   2.953   8.933 -0.8850 -0.6819 -2.5810
  109OSM   H18T11234   5.360   2.795   8.881  1.5390 -1.3476 -0.2636
  109OSM   H18U11235   5.501   2.800   8.992 -0.6305 -0.5568 -0.8431
  109OSM    C1F11236   5.685   3.042  10.540  0.4955  0.3182 -0.5880
  109OSM     OF11237   5.748   2.986  10.628  0.0975  0.4719  0.7641
  109OSM    C2F11238   5.756   3.087  10.412 -0.1332 -0.2326 -0.5720
  109OSM    H2F11239   5.697   3.164  10.358 -0.8260  0.0563  0.5892
  109OSM    H2G11240   5.779   2.994  10.356 -0.9316 -1.2539  0.7832
  109OSM    C3F11241   5.882   3.161  10.454  0.7471 -0.1572 -0.3413
  109OSM    H3F11242   5.948   3.093  10.513 -2.0214 -1.0259  1.8982
  109OSM    H3G11243   5.861   3.247  10.521  1.0184 -0.5370  0.2359
  109OSM    C4F11244   5.956   3.224  10.339  0.0870  0.6780 -0.0730
  109OSM    H4F11245   6.047   3.274  10.377  1.7277 -1.5102 -1.0543
  109OSM    H4G11246   5.885   3.294  10.291 -0.5711 -0.1397 -0.3078
  109OSM    C5F11247   5.997   3.131  10.222  1.0531  0.3747 -1.2414
  109OSM    H5F11248   6.027   3.037  10.273 -0.1540  1.0755  0.8108
  109OSM    H5G11249   6.089   3.167  10.170  2.4796 -0.5274  0.5898
  109OSM    C6F11250   5.889   3.091  10.120  0.3805  0.2900  0.0810
  109OSM    H6F11251   5.800   3.042  10.164  0.2828  1.6146  1.4286
  109OSM    H6G11252   5.933   3.028  10.040  0.7676 -0.1561  0.6424
  109OSM    C7F11253   5.836   3.214  10.038  0.3104  0.3474  0.4725
  109OSM    H7F11254   5.915   3.270   9.983 -0.9315  0.4184 -1.3034
  109OSM    H7G11255   5.796   3.283  10.115 -0.8290 -0.5574  0.7126
  109OSM    C8F11256   5.731   3.184   9.933  0.4048  0.3767 -0.5567
  109OSM    H8F11257   5.653   3.126   9.986  1.4516  0.3634  1.0003
  109OSM    H8G11258   5.782   3.124   9.855  1.3198 -0.4203  0.6206
  109OSM    C9F11259   5.668   3.312   9.875  0.0613  0.2584 -0.6050
  109OSM    H9F11260   5.641   3.382   9.955  1.7810 -1.6328  1.6889
  109OSM   C10F11261   5.647   3.349   9.743  0.3688  0.2898 -0.2747
  109OSM   H10F11262   5.591   3.442   9.729  0.4763  0.4981  0.6724
  109OSM   C11F11263   5.680   3.272   9.616  0.0622 -0.0925  0.2389
  109OSM   H11F11264   5.590   3.260   9.551  1.3441 -1.0443 -1.3755
  109OSM   H11G11265   5.724   3.174   9.644  0.3356 -0.6431 -1.9838
  109OSM   C12F11266   5.788   3.349   9.542 -0.4326 -0.3106  0.0656
  109OSM   H12F11267   5.878   3.375   9.603 -0.1125 -2.9959  0.7718
  109OSM   H12G11268   5.736   3.438   9.501  2.2815  1.2946 -0.0661
  109OSM   C13F11269   5.864   3.271   9.426  0.3132  0.4802 -0.2872
  109OSM   H13F11270   5.894   3.171   9.464 -1.8282 -0.0277  0.1710
  109OSM   H13G11271   5.954   3.330   9.401  0.6759 -0.3674 -1.0176
  109OSM   C14F11272   5.776   3.255   9.298 -0.1863  0.1158 -0.2775
  109OSM   H14F11273   5.748   3.359   9.270  0.7438  0.6484  0.7190
  109OSM   H14G11274   5.687   3.194   9.326  0.1533  0.2398  1.1050
  109OSM   C15F11275   5.857   3.204   9.172 -0.7485  0.5567  0.4632
  109OSM   H15F11276   5.916   3.120   9.214 -2.5192 -1.0448 -0.1638
  109OSM   H15G11277   5.939   3.274   9.145  1.6228 -2.6334 -0.9700
  109OSM   C16F11278   5.768   3.144   9.064 -0.3622  0.2562 -0.1020
  109OSM   H16F11279   5.686   3.215   9.042 -0.8841  0.4016  2.1251
  109OSM   H16G11280   5.709   3.056   9.101 -1.8542  1.8872  1.5139
  109OSM   C17F11281   5.826   3.111   8.929  0.1383  0.4811 -0.4463
  109OSM   H17F11282   5.869   3.207   8.894  2.5639  0.0325  1.1864
  109OSM   H17G11283   5.736   3.096   8.865 -0.3325  3.3118 -0.5115
  109OSM   C18F11284   5.932   3.008   8.936  0.5934 -0.1597  0.3807
  109OSM   H18F11285   6.000   3.021   9.023  0.8203 -0.0568  0.1907
  109OSM   H18G11286   5.990   2.998   8.841 -0.5191 -0.1818 -0.3024
  109OSM   H18H11287   5.885   2.909   8.952  3.7524 -1.5031  1.8303
  110OSM      N11288   5.235   1.136  11.293  0.8587  0.0571 -0.2504
  110OSM    C1511289   5.295   1.033  11.381 -0.3058 -0.4833  0.0920
  110OSM   H15A11290   5.239   1.012  11.471 -0.8273 -1.2894 -0.4176
  110OSM   H15B11291   5.395   1.061  11.410 -0.4866 -0.3516  0.5847
  110OSM   H15C11292   5.304   0.944  11.320  2.6268  0.8781 -1.5844
  110OSM    C1411293   5.100   1.095  11.245  0.1482  0.1915 -0.0391
  110OSM   H14A11294   5.055   1.173  11.185 -0.6018 -0.7557 -0.7177
  110OSM   H14B11295   5.030   1.082  11.326 -0.3897  2.2083 -0.1666
  110OSM   H14C11296   5.111   1.007  11.183  2.7276 -0.5243  1.3670
  110OSM    C1311297   5.238   1.267  11.373  0.7174  0.5389  0.4582
  110OSM   H13A11298   5.339   1.277  11.412  1.0396  1.1103 -0.5065
  110OSM   H13B11299   5.162   1.282  11.448 -0.4603  1.1781 -0.8524
  110OSM   H13C11300   5.223   1.344  11.299  1.5131  2.0028  1.7780
  110OSM    C1211301   5.327   1.150  11.171  0.2275  0.4034  0.2288
  110OSM   H12A11302   5.346   1.053  11.127  1.3985  1.0259 -0.6842
  110OSM   H12B11303   5.425   1.182  11.206 -0.5608  2.7632  0.3482
  110OSM    C1111304   5.283   1.227  11.045  0.4719  0.1670 -0.4758
  110OSM   H11A11305   5.193   1.180  11.000 -0.9716  1.7385  0.7497
  110OSM   H11B11306   5.373   1.230  10.980  2.1181 -1.3006  1.6561
  110OSM      P11307   5.264   1.483  10.994  0.1827  0.2564 -0.1907
  110OSM    O1311308   5.133   1.484  10.922 -0.0150 -0.0332  0.0094
  110OSM    O1411309   5.303   1.590  11.087 -0.2436  0.2100 -0.8627
  110OSM    O1111310   5.385   1.465  10.895  0.0656  0.4285  0.0332
  110OSM    O1211311   5.262   1.360  11.083  0.1920  0.1765 -0.5435
  110OSM    C1S11312   5.368   1.421  10.756 -0.8215 -0.4615 -0.1209
  110OSM    H1S11313   5.317   1.504  10.703 -0.3285 -0.3608 -0.4431
  110OSM    H1T11314   5.318   1.323  10.745  0.1357 -0.9504 -0.1607
  110OSM     NF11315   5.473   1.368  10.544  0.1484 -0.0423 -0.0588
  110OSM    HNF11316   5.499   1.273  10.527 -0.0784  0.1253 -1.4174
  110OSM    C2S11317   5.506   1.409  10.680  0.3267 -0.2056 -0.7699
  110OSM    H2S11318   5.546   1.512  10.675  2.8676 -1.0659  0.7718
  110OSM    C3S11319   5.611   1.319  10.747  1.6246  0.3126  0.3871
  110OSM    H3S11320   5.578   1.213  10.734  0.9920  0.0385  3.7046
  110OSM     O311321   5.637   1.338  10.890  0.7226 -0.3088 -0.0132
  110OSM    HO311322   5.579   1.406  10.926  0.0803 -1.1468  0.5524
  110OSM    C4S11323   5.742   1.340  10.664  0.2773  0.0169  0.0276
  110OSM    H4S11324   5.769   1.267  10.586 -1.2755 -1.7086  1.0646
  110OSM    C5S11325   5.842   1.430  10.704 -0.5472 -0.4333  0.1110
  110OSM    H5S11326   5.823   1.490  10.794 -0.2657  0.4899 -0.4351
  110OSM    C6S11327   5.979   1.447  10.642 -0.3058 -0.0937  1.2035
  110OSM    H6S11328   6.057   1.424  10.718  1.0987 -2.8677 -0.9789
  110OSM    H6T11329   6.005   1.552  10.615  2.6327 -1.5366 -1.9917
  110OSM    C7S11330   6.007   1.358  10.520 -0.5518 -0.4590  0.4226
  110OSM    H7S11331   5.955   1.398  10.430 -0.4260 -1.4421 -0.0884
  110OSM    H7T11332   5.976   1.254  10.546 -1.2770  0.1553  2.0728
  110OSM    C8S11333   6.156   1.343  10.486  0.2750 -0.3750 -0.1681
  110OSM    H8S11334   6.174   1.245  10.436 -1.9780 -1.0381  0.2512
  110OSM    H8T11335   6.211   1.340  10.582 -0.1166 -1.4484  0.0347
  110OSM    C9S11336   6.215   1.463  10.430 -0.3881 -0.2487  0.4173
  110OSM    H9S11337   6.323   1.443  10.409 -1.2812 -1.6931 -3.3753
  110OSM    H9T11338   6.202   1.557  10.487 -2.1052  1.4678 -2.6422
  110OSM   C10S11339   6.151   1.507  10.295  0.0375 -0.1058 -0.1439
  110OSM   H10S11340   6.054   1.559  10.309  1.1673  1.4981  2.0890
  110OSM   H10T11341   6.128   1.412  10.242  1.4102 -0.2559 -0.4939
  110OSM   C11S11342   6.245   1.590  10.209 -0.2069  0.4251  0.0555
  110OSM   H11S11343   6.225   1.577  10.100  1.4578 -0.0398 -0.2180
  110OSM   H11T11344   6.350   1.553  10.212 -0.6556 -0.8524  0.1487
  110OSM   C12S11345   6.245   1.745  10.235  0.0990 -0.3604 -0.4631
  110OSM   H12S11346   6.171   1.754  10.317 -1.6973 -1.3925 -1.9173
  110OSM   H12T11347   6.188   1.800  10.157  0.4922  2.8216  1.4347
  110OSM   C13S11348   6.375   1.798  10.287  0.0355  0.4413  0.3567
  110OSM   H13S11349   6.463   1.783  10.221 -0.6440  3.0769 -1.2013
  110OSM   H13T11350   6.382   1.746  10.385 -0.6509  3.1014  1.8447
  110OSM   C14S11351   6.376   1.947  10.317  0.6144 -0.0746 -0.2093
  110OSM   H14S11352   6.274   1.985  10.335  0.6212  0.2635 -0.8903
  110OSM   H14T11353   6.391   1.994  10.218  2.9605 -2.2171 -0.9537
  110OSM   C15S11354   6.486   1.984  10.418 -0.1762 -0.5984  0.4480
  110OSM   H15S11355   6.582   1.963  10.367 -1.5548 -2.1855 -1.5588
  110OSM   H15T11356   6.493   1.919  10.508 -1.4461  0.5615  1.4120
  110OSM   C16S11357   6.488   2.134  10.457  0.8347  0.1912 -0.5598
  110OSM   H16S11358   6.394   2.150  10.513  0.5872  1.5741 -1.3244
  110OSM   H16T11359   6.500   2.198  10.366 -0.5747  1.6400  0.2531
  110OSM   C17S11360   6.596   2.158  10.563 -0.3423 -0.4679  0.4684
  110OSM   H17S11361   6.604   2.076  10.637  0.4155 -0.3483  0.5245
  110OSM   H17T11362   6.572   2.248  10.624  1.6194 -0.9184  1.9668
  110OSM   C18S11363   6.735   2.186  10.501  0.5650  0.3037 -0.0261
  110OSM   H18S11364   6.758   2.112  10.420 -0.3188 -0.8067  0.7179
  110OSM   H18T11365   6.807   2.173  10.585  0.6340  1.1931  0.0514
  110OSM   H18U11366   6.740   2.294  10.478  2.0924  0.8632  2.7536
  110OSM    C1F11367   5.407   1.444  10.452 -0.2542 -0.0898  1.7764
  110OSM     OF11368   5.392   1.564  10.474  0.3265 -0.6907 -0.0941
  110OSM    C2F11369   5.355   1.375  10.328  0.2210  0.1217 -0.4435
  110OSM    H2F11370   5.254   1.414  10.303 -0.3902  1.4836  3.7804
  110OSM    H2G11371   5.325   1.272  10.359 -1.0497  1.0713  1.6291
  110OSM    C3F11372   5.464   1.365  10.220  0.2176 -0.1566 -0.4619
  110OSM    H3F11373   5.550   1.320  10.274 -0.0116  0.7056  0.6269
  110OSM    H3G11374   5.494   1.464  10.180  1.3530 -0.3618 -0.1222
  110OSM    C4F11375   5.440   1.266  10.104 -0.4623 -0.2058 -0.0888
  110OSM    H4F11376   5.408   1.169  10.147  1.1911 -0.1162  1.4048
  110OSM    H4G11377   5.538   1.241  10.057 -0.2454  2.7497 -1.3132
  110OSM    C5F11378   5.344   1.320   9.992 -0.2471  0.5501  0.5524
  110OSM    H5F11379   5.266   1.385  10.038 -1.1082  1.2140 -1.7947
  110OSM    H5G11380   5.299   1.235   9.937  1.8077 -0.7860  0.9162
  110OSM    C6F11381   5.421   1.414   9.910 -0.5811 -0.4025  0.0457
  110OSM    H6F11382   5.497   1.356   9.854 -0.8622 -0.3203 -0.4230
  110OSM    H6G11383   5.483   1.484   9.969 -4.0832  1.1004  2.1246
  110OSM    C7F11384   5.329   1.487   9.807  0.1624 -0.0184  0.9089
  110OSM    H7F11385   5.287   1.583   9.845  2.3920  0.5989  1.9033
  110OSM    H7G11386   5.252   1.410   9.785 -0.5742  0.6539  1.0991
  110OSM    C8F11387   5.403   1.521   9.683  0.4921 -0.2874  0.5446
  110OSM    H8F11388   5.337   1.520   9.593  0.4980 -1.4827  0.5442
  110OSM    H8G11389   5.478   1.441   9.668 -0.6211 -1.1484 -0.5406
  110OSM    C9F11390   5.484   1.645   9.672 -0.4169 -0.5683  0.0450
  110OSM    H9F11391   5.591   1.622   9.664  0.2870  2.1033  1.1569
  110OSM   C10F11392   5.443   1.772   9.677 -0.3454 -0.6636 -0.8610
  110OSM   H10F11393   5.511   1.859   9.683 -0.4799 -0.6367  0.3115
  110OSM   C11F11394   5.301   1.818   9.697 -0.1999 -0.1841 -0.0206
  110OSM   H11F11395   5.304   1.929   9.683  2.2396 -0.2025  0.1757
  110OSM   H11G11396   5.269   1.809   9.803  0.9598 -2.9116  0.1178
  110OSM   C12F11397   5.190   1.768   9.605 -0.3021  0.2715  0.3139
  110OSM   H12F11398   5.095   1.820   9.631 -0.8291 -1.5328  2.1731
  110OSM   H12G11399   5.165   1.661   9.624  0.6055 -0.2740 -1.4687
  110OSM   C13F11400   5.223   1.776   9.456 -0.2747  0.6919  0.3466
  110OSM   H13F11401   5.313   1.712   9.439 -0.8862  0.6293 -3.0208
  110OSM   H13G11402   5.242   1.880   9.422  0.5774 -0.0410 -1.4817
  110OSM   C14F11403   5.113   1.709   9.368  0.2043  0.1283  0.0140
  110OSM   H14F11404   5.012   1.755   9.377 -0.6239 -1.2116 -2.1852
  110OSM   H14G11405   5.111   1.605   9.406  0.6197  0.9080  2.2279
  110OSM   C15F11406   5.156   1.697   9.214 -0.2709  0.2390  0.3911
  110OSM   H15F11407   5.102   1.604   9.186 -1.1162  1.1869 -1.2434
  110OSM   H15G11408   5.263   1.675   9.195  0.2705  0.9915  2.4508
  110OSM   C16F11409   5.101   1.815   9.121  0.6249 -0.2296  0.1508
  110OSM   H16F11410   4.992   1.826   9.143  0.0572  2.0255 -3.3721
  110OSM   H16G11411   5.106   1.780   9.016  0.4169 -2.3366  0.8302
  110OSM   C17F11412   5.168   1.950   9.157  0.1590  0.3779  0.8865
  110OSM   H17F11413   5.279   1.947   9.168  0.0263 -0.1854  2.0587
  110OSM   H17G11414   5.123   1.976   9.255  1.1240 -0.2083  1.5014
  110OSM   C18F11415   5.142   2.061   9.051 -0.7478 -0.2183 -0.1506
  110OSM   H18F11416   5.145   2.164   9.093 -0.1428  0.0178 -0.7532
  110OSM   H18G11417   5.042   2.048   9.004  1.3146 -1.1374 -4.5484
  110OSM   H18H11418   5.218   2.072   8.971 -0.5377  0.9029  0.1985
  111OSM      N11419   0.217   6.175  10.837 -0.2176  0.1503  0.3489
  111OSM    C1511420   0.271   6.288  10.918  0.0695  0.7269  0.3119
  111OSM   H15A11421   0.373   6.265  10.949  0.1269 -0.8648 -1.0029
  111OSM   H15B11422   0.211   6.310  11.005 -1.3297  1.3245 -0.7894
  111OSM   H15C11423   0.264   6.372  10.851  2.1023  0.5264 -0.1791
  111OSM    C1411424   0.307   6.153  10.715 -0.0847  0.3604  0.6874
  111OSM   H14A11425   0.409   6.129  10.740  0.5491  2.6658  0.4855
  111OSM   H14B11426   0.323   6.242  10.656  1.5330 -1.5208 -1.8042
  111OSM   H14C11427   0.264   6.075  10.655  2.0028 -0.4252  0.1822
  111OSM    C1311428   0.218   6.050  10.921 -0.0450  0.7158  0.3156
  111OSM   H13A11429   0.314   6.008  10.948  0.4316  0.9631 -0.9642
  111OSM   H13B11430   0.175   5.977  10.854  0.7636  0.5526 -0.0378
  111OSM   H13C11431   0.166   6.050  11.016  2.6184 -2.1401  1.8586
  111OSM    C1211432   0.073   6.194  10.795 -0.7238  0.1531 -0.2486
  111OSM   H12A11433   0.010   6.213  10.881 -0.8320  0.9876 -0.5138
  111OSM   H12B11434   0.034   6.103  10.751 -1.0981 -0.3137  1.0351
  111OSM    C1111435   0.035   6.306  10.695  0.7327  0.1135 -0.7566
  111OSM   H11A11436  -0.076   6.313  10.694  0.6052 -1.4883 -0.2154
  111OSM   H11B11437   0.075   6.272  10.597 -1.8217 -1.7081 -1.2314
  111OSM      P11438   0.137   6.536  10.648 -0.2089  0.4245  0.2102
  111OSM    O1311439   0.127   6.666  10.711 -0.0705 -0.0831 -0.0145
  111OSM    O1411440   0.274   6.490  10.609  0.6727 -0.1230  0.1984
  111OSM    O1111441   0.056   6.526  10.512 -0.0057  0.8312  0.1232
  111OSM    O1211442   0.080   6.435  10.746 -0.4504 -0.1085 -0.3337
  111OSM    C1S11443  -0.080   6.561  10.492  0.8167  0.5406 -0.4391
  111OSM    H1S11444  -0.121   6.604  10.586  0.8904  1.4871 -0.8413
  111OSM    H1T11445  -0.132   6.466  10.469 -0.8187  1.3161  0.0066
  111OSM     NF11446  -0.234   6.686  10.373 -0.1071 -0.6132  0.4010
  111OSM    HNF11447  -0.304   6.643  10.316  0.2271  2.5194 -2.5259
  111OSM    C2S11448  -0.098   6.644  10.369 -0.3287 -0.2959  0.9162
  111OSM    H2S11449  -0.031   6.733  10.363 -1.8579  0.7354 -1.4143
  111OSM    C3S11450  -0.056   6.566  10.246 -0.2974  0.5785  0.2254
  111OSM    H3S11451  -0.107   6.468  10.241 -1.0134  0.7739  3.0039
  111OSM     O311452   0.080   6.524  10.251 -0.3248 -0.0616 -0.7392
  111OSM    HO311453   0.100   6.523  10.345 -0.3227  0.4294 -0.7340
  111OSM    C4S11454  -0.079   6.662  10.133 -0.0226  0.2931 -0.1629
  111OSM    H4S11455  -0.020   6.755  10.130  1.4350 -0.6496 -1.0732
  111OSM    C5S11456  -0.177   6.633  10.049 -1.1825  0.3653  0.3376
  111OSM    H5S11457  -0.228   6.538  10.072  0.6205 -0.3401  1.4921
  111OSM    C6S11458  -0.218   6.715   9.925  0.0582 -0.5594 -0.5070
  111OSM    H6S11459  -0.166   6.814   9.925 -1.7441  0.4159 -1.4977
  111OSM    H6T11460  -0.324   6.748   9.920  0.3667  0.5657  0.3400
  111OSM    C7S11461  -0.200   6.638   9.789 -0.3506  0.2709 -0.5942
  111OSM    H7S11462  -0.265   6.548   9.790  0.6650 -0.4653  0.3649
  111OSM    H7T11463  -0.096   6.602   9.780  0.1274  1.3017  0.5235
  111OSM    C8S11464  -0.220   6.738   9.668  0.5224 -0.3352 -0.2720
  111OSM    H8S11465  -0.152   6.825   9.681 -1.0652  1.1508 -1.5935
  111OSM    H8T11466  -0.325   6.769   9.689  0.7236  0.9710 -1.1241
  111OSM    C9S11467  -0.231   6.676   9.524  0.9999  0.7844 -0.3599
  111OSM    H9S11468  -0.287   6.580   9.527  0.4262  1.1189 -0.4433
  111OSM    H9T11469  -0.124   6.649   9.510  0.7645 -1.0565  1.0925
  111OSM   C10S11470  -0.283   6.771   9.411 -0.2662  0.4217 -0.2164
  111OSM   H10S11471  -0.234   6.748   9.314 -0.8477 -0.1153 -0.3876
  111OSM   H10T11472  -0.268   6.871   9.457  0.0736 -0.4678  1.6570
  111OSM   C11S11473  -0.430   6.743   9.381 -0.2029  0.0211 -0.4634
  111OSM   H11S11474  -0.495   6.763   9.469 -0.6726 -0.5316 -0.6794
  111OSM   H11T11475  -0.448   6.635   9.361 -0.4958  0.4723 -2.7261
  111OSM   C12S11476  -0.472   6.836   9.274  0.4097  0.1636  0.7491
  111OSM   H12S11477  -0.390   6.847   9.199 -0.4235 -0.4587 -0.2580
  111OSM   H12T11478  -0.480   6.940   9.312 -2.0244 -0.1339  1.1014
  111OSM   C13S11479  -0.608   6.787   9.212 -0.0283  0.4808  0.0953
  111OSM   H13S11480  -0.681   6.732   9.274 -0.7495  1.4980  0.1549
  111OSM   H13T11481  -0.569   6.698   9.157  0.7164 -0.0364  1.4265
  111OSM   C14S11482  -0.674   6.890   9.121  0.0876  0.0301 -0.6916
  111OSM   H14S11483  -0.694   6.981   9.181 -1.4635 -1.5262  1.2205
  111OSM   H14T11484  -0.772   6.852   9.086 -1.7397  3.2691  0.6849
  111OSM   C15S11485  -0.585   6.919   8.996 -0.3157  0.8349  0.2022
  111OSM   H15S11486  -0.563   6.833   8.929  0.4853  0.2543  1.2197
  111OSM   H15T11487  -0.493   6.961   9.041 -0.4158 -0.6108  1.7862
  111OSM   C16S11488  -0.656   7.039   8.934 -0.3416 -0.0653  0.2213
  111OSM   H16S11489  -0.684   7.121   9.004 -2.3099 -2.5794  2.4687
  111OSM   H16T11490  -0.750   7.008   8.882 -0.8812  3.3978 -1.0395
  111OSM   C17S11491  -0.579   7.118   8.825 -0.2442  0.2464 -0.3245
  111OSM   H17S11492  -0.590   7.065   8.728 -0.1298  0.2892 -0.3628
  111OSM   H17T11493  -0.471   7.130   8.851 -0.2577 -1.4759  0.6090
  111OSM   C18S11494  -0.634   7.259   8.806  0.8228  0.2574 -0.0733
  111OSM   H18S11495  -0.606   7.308   8.710  1.2035 -1.4440 -0.8329
  111OSM   H18T11496  -0.610   7.322   8.895  3.2158 -1.4793  0.5605
  111OSM   H18U11497  -0.744   7.245   8.794  1.0840 -3.4910  1.3184
  111OSM    C1F11498  -0.268   6.798  10.447  0.6216  0.6713 -0.0956
  111OSM     OF11499  -0.199   6.863  10.521 -0.4786  0.0348  0.7863
  111OSM    C2F11500  -0.407   6.834  10.418  0.1377  0.3433 -0.0550
  111OSM    H2F11501  -0.461   6.865  10.510 -0.0726  1.5974 -0.5950
  111OSM    H2G11502  -0.465   6.748  10.380  2.1098 -0.3522 -1.5714
  111OSM    C3F11503  -0.418   6.961  10.322 -0.6076  0.1421 -0.1738
  111OSM    H3F11504  -0.426   7.049  10.389 -0.2743  0.1102 -0.0911
  111OSM    H3G11505  -0.515   6.957  10.268 -0.1046  1.4287 -1.1841
  111OSM    C4F11506  -0.303   6.992  10.231  0.1392 -0.0455 -0.7648
  111OSM    H4F11507  -0.323   6.922  10.147 -2.0410  1.8598 -1.9058
  111OSM    H4G11508  -0.204   6.982  10.280  0.6416  1.2492 -1.4849
  111OSM    C5F11509  -0.298   7.135  10.156 -0.0257 -0.0244  0.2364
  111OSM    H5F11510  -0.243   7.211  10.216 -0.3332 -0.4675  1.1060
  111OSM    H5G11511  -0.400   7.174  10.136  0.0414 -0.1831 -0.4147
  111OSM    C6F11512  -0.229   7.115  10.025 -0.1198 -0.5557  0.3184
  111OSM    H6F11513  -0.244   7.204   9.960 -0.9817 -0.1082  1.1196
  111OSM    H6G11514  -0.260   7.028   9.963 -1.2275 -0.7104  1.0670
  111OSM    C7F11515  -0.075   7.119  10.042 -0.6560 -0.1370  0.7677
  111OSM    H7F11516  -0.029   7.045  10.110 -0.0049  0.4590  0.9826
  111OSM    H7G11517  -0.039   7.217  10.079 -1.0659  0.2429  0.1787
  111OSM    C8F11518   0.001   7.094   9.907 -0.2735 -0.2770  0.0746
  111OSM    H8F11519  -0.052   7.020   9.843 -1.0143  2.3697 -2.4207
  111OSM    H8G11520   0.103   7.054   9.926 -1.1391 -2.6914 -0.1860
  111OSM    C9F11521   0.014   7.222   9.828 -0.2801 -0.3118 -0.2783
  111OSM    H9F11522   0.053   7.304   9.890 -1.4608  1.1555 -1.4595
  111OSM   C10F11523  -0.006   7.234   9.694  0.0220 -0.8060 -0.1527
  111OSM   H10F11524  -0.007   7.335   9.650 -3.8145 -1.1345 -0.9613
  111OSM   C11F11525  -0.068   7.125   9.602  0.1557 -0.3242 -0.0524
  111OSM   H11F11526  -0.163   7.088   9.646  0.6366 -1.5664 -0.0356
  111OSM   H11G11527  -0.011   7.030   9.604 -0.0844 -0.4573  0.7899
  111OSM   C12F11528  -0.104   7.158   9.455 -0.5687 -0.4293 -0.5278
  111OSM   H12F11529  -0.180   7.238   9.444 -0.2042 -0.0088 -0.0183
  111OSM   H12G11530  -0.151   7.063   9.420 -3.8660  1.0906 -0.4588
  111OSM   C13F11531   0.015   7.193   9.367 -0.5321  0.7152  0.3549
  111OSM   H13F11532  -0.006   7.141   9.271 -0.4056  1.1475  0.0940
  111OSM   H13G11533   0.108   7.147   9.407  1.3112  1.3126 -3.0275
  111OSM   C14F11534   0.034   7.343   9.354 -0.3776 -0.5214  0.1364
  111OSM   H14F11535   0.047   7.386   9.455 -2.3485  1.1667 -0.2851
  111OSM   H14G11536  -0.057   7.389   9.309  0.3783 -0.1564 -1.0329
  111OSM   C15F11537   0.146   7.373   9.251  0.5663  0.0680 -1.3095
  111OSM   H15F11538   0.241   7.324   9.283  1.1311  1.5799 -0.6256
  111OSM   H15G11539   0.174   7.481   9.252 -2.3282  0.8468 -0.5533
  111OSM   C16F11540   0.109   7.326   9.108  0.1363 -0.1213 -0.3378
  111OSM   H16F11541   0.009   7.373   9.099  0.9572  2.5425  3.3236
  111OSM   H16G11542   0.098   7.215   9.106  0.2043 -0.1226 -0.8529
  111OSM   C17F11543   0.212   7.365   9.000 -0.4022  0.3761 -0.6458
  111OSM   H17F11544   0.208   7.475   8.986  1.7112  0.4446 -0.9387
  111OSM   H17G11545   0.177   7.323   8.904 -0.3771  1.5095 -1.1502
  111OSM   C18F11546   0.353   7.307   9.018  1.0537 -0.2994  0.4092
  111OSM   H18F11547   0.421   7.331   8.934 -0.5807  0.2965 -0.7697
  111OSM   H18G11548   0.356   7.199   9.042 -1.4317 -0.1804  1.3982
  111OSM   H18H11549   0.397   7.357   9.108  0.6543  0.5336  0.1463
  112OSM      N11550   6.514   4.623  10.961 -0.3998 -0.1417 -0.1481
  112OSM    C1511551   6.404   4.717  10.964  0.4589 -0.5796  0.0768
  112OSM   H15A11552   6.312   4.668  10.939 -0.2143  1.5143 -1.6796
  112OSM   H15B11553   6.410   4.800  10.895 -1.6723 -0.1973  0.3161
  112OSM   H15C11554   6.389   4.758  11.063 -0.7552 -0.4942 -0.1413
  112OSM    C1411555   6.651   4.689  10.970  0.2880  0.0838  0.1224
  112OSM   H14A11556   6.728   4.620  11.003 -1.1051 -0.5253  2.1739
  112OSM   H14B11557   6.653   4.770  11.040  0.9279  1.0354 -0.9760
  112OSM   H14C11558   6.684   4.741  10.881 -0.4761  0.2479 -0.0701
  112OSM    C1311559   6.511   4.529  11.081 -0.0519  0.1175 -0.6227
  112OSM   H13A11560   6.493   4.596  11.164 -1.0403  0.7733 -1.3499
  112OSM   H13B11561   6.606   4.479  11.091  0.7844  1.3739 -2.0874
  112OSM   H13C11562   6.428   4.461  11.071  0.1353  0.0886 -2.0629
  112OSM    C1211563   6.506   4.537  10.830 -0.0370  0.1640 -0.4762
  112OSM   H12A11564   6.590   4.469  10.830  0.4399  0.7237  1.2823
  112OSM   H12B11565   6.511   4.610  10.751 -0.5949  0.4717 -0.2334
  112OSM    C1111566   6.373   4.455  10.797 -1.0832 -0.6132  0.3161
  112OSM   H11A11567   6.369   4.413  10.694 -0.7391  1.7086 -0.6582
  112OSM   H11B11568   6.293   4.532  10.806  1.4500  2.1331 -0.0152
  112OSM      P11569   6.412   4.211  10.912 -0.5281 -0.0646 -0.0813
  112OSM    O1311570   6.545   4.231  10.960  0.5696 -0.3205  0.0899
  112OSM    O1411571   6.326   4.135  11.003  0.3723  0.1955  0.0569
  112OSM    O1111572   6.410   4.145  10.766 -0.0758 -0.0468  0.0478
  112OSM    O1211573   6.341   4.347  10.895  0.3784 -0.4623 -0.5236
  112OSM    C1S11574   6.290   4.132  10.692 -0.1917  0.1855 -0.2597
  112OSM    H1S11575   6.238   4.227  10.665 -0.9215  0.5244  2.2049
  112OSM    H1T11576   6.214   4.084  10.757  0.5831  1.7806  1.8795
  112OSM     NF11577   6.157   4.042  10.497  0.3525  0.3643  0.7515
  112OSM    HNF11578   6.091   3.981  10.539  0.0170  0.9296  1.0531
  112OSM    C2S11579   6.290   4.046  10.559 -0.1513 -0.6617  0.0005
  112OSM    H2S11580   6.366   4.093  10.492 -0.4065 -2.9340 -1.9918
  112OSM    C3S11581   6.360   3.903  10.588  0.3435  0.1749  0.1779
  112OSM    H3S11582   6.286   3.838  10.641 -0.4854 -0.9379 -2.2935
  112OSM     O311583   6.473   3.917  10.670  0.4453  0.5238 -0.3722
  112OSM    HO311584   6.460   4.009  10.694 -0.6388  0.5052 -0.8328
  112OSM    C4S11585   6.402   3.833  10.462 -0.1514 -0.0205  0.2103
  112OSM    H4S11586   6.507   3.852  10.436  0.0037 -1.9227 -0.6790
  112OSM    C5S11587   6.339   3.725  10.418 -1.0280 -0.2062  0.4885
  112OSM    H5S11588   6.260   3.681  10.481  0.3175 -2.6032  0.5480
  112OSM    C6S11589   6.381   3.639  10.303  0.2848 -0.3178  0.1520
  112OSM    H6S11590   6.289   3.590  10.264  0.4877 -1.8750  1.5473
  112OSM    H6T11591   6.455   3.558  10.322  2.5464  1.6871  0.1726
  112OSM    C7S11592   6.439   3.731  10.196 -0.1206 -0.8967  0.5281
  112OSM    H7S11593   6.535   3.777  10.227 -0.0821 -1.6220  1.5126
  112OSM    H7T11594   6.372   3.820  10.196 -0.6530 -1.2981  0.2453
  112OSM    C8S11595   6.449   3.657  10.061 -0.4224  0.3368 -0.0559
  112OSM    H8S11596   6.442   3.718   9.969  1.7114  2.3558  1.0464
  112OSM    H8T11597   6.371   3.578  10.064 -0.2439  0.1959  1.0214
  112OSM    C9S11598   6.588   3.583  10.050  0.4143  0.2899  0.1538
  112OSM    H9S11599   6.599   3.521  10.141 -0.8707  0.4701  0.4487
  112OSM    H9T11600   6.660   3.667  10.055 -0.0556  1.0402 -3.6566
  112OSM   C10S11601   6.614   3.506   9.921 -0.3724 -0.8102  0.8580
  112OSM   H10S11602   6.545   3.419   9.918 -1.3805  0.0131 -0.2375
  112OSM   H10T11603   6.717   3.465   9.929  1.3056  2.5373 -2.2880
  112OSM   C11S11604   6.596   3.587   9.788  0.0706 -0.1397 -0.5063
  112OSM   H11S11605   6.653   3.682   9.799  1.0202 -0.4361 -2.6132
  112OSM   H11T11606   6.488   3.613   9.794  0.6964  3.6074 -3.7459
  112OSM   C12S11607   6.633   3.510   9.663 -0.3275  0.6313 -0.1475
  112OSM   H12S11608   6.562   3.425   9.659 -0.4805  0.6043  2.3227
  112OSM   H12T11609   6.733   3.462   9.669 -0.2203  1.0366  1.5271
  112OSM   C13S11610   6.628   3.599   9.541  0.0803 -0.3818  0.1001
  112OSM   H13S11611   6.721   3.660   9.540  1.0026 -1.7404 -3.0453
  112OSM   H13T11612   6.548   3.674   9.561  0.1446 -0.4710  0.7004
  112OSM   C14S11613   6.618   3.533   9.408 -0.5606 -0.2705 -0.7323
  112OSM   H14S11614   6.522   3.480   9.390 -0.9543 -0.2200  1.1665
  112OSM   H14T11615   6.696   3.454   9.408  0.6069  0.8116  2.0180
  112OSM   C15S11616   6.633   3.631   9.287  0.2524 -0.3439  0.4707
  112OSM   H15S11617   6.628   3.568   9.196 -0.7325 -0.1784  0.4064
  112OSM   H15T11618   6.733   3.677   9.298  0.5338 -1.2177  1.7718
  112OSM   C16S11619   6.523   3.736   9.291  0.4137  0.3328  0.3929
  112OSM   H16S11620   6.547   3.809   9.372  1.8932 -1.1533  1.3311
  112OSM   H16T11621   6.426   3.694   9.326  0.4027  0.9900  1.1830
  112OSM   C17S11622   6.497   3.821   9.167 -0.5137  0.4527 -0.1354
  112OSM   H17S11623   6.464   3.752   9.087 -0.8948 -0.3068  0.6738
  112OSM   H17T11624   6.583   3.864   9.112  0.6545 -0.8957  0.6256
  112OSM   C18S11625   6.404   3.940   9.204 -0.3466 -0.2184 -0.5111
  112OSM   H18S11626   6.300   3.901   9.193 -0.7771 -0.1531  2.8858
  112OSM   H18T11627   6.428   4.024   9.135  0.4671  1.6644  1.9840
  112OSM   H18U11628   6.421   3.965   9.311  1.4581 -1.6690 -0.4425
  112OSM    C1F11629   6.108   4.144  10.439  0.4599 -0.4203 -0.2400
  112OSM     OF11630   6.183   4.240  10.415 -0.7659  0.1149  0.2058
  112OSM    C2F11631   5.964   4.142  10.417 -0.3548  0.0077 -0.1228
  112OSM    H2F11632   5.917   4.197  10.501  2.0066  0.7529  0.7274
  112OSM    H2G11633   5.930   4.037  10.430  1.6552 -0.8686 -1.7492
  112OSM    C3F11634   5.933   4.189  10.277 -0.0635 -0.1614  1.0808
  112OSM    H3F11635   5.997   4.143  10.199  0.0934 -0.9792  1.6765
  112OSM    H3G11636   5.936   4.299  10.261 -2.3727 -0.5238 -2.1935
  112OSM    C4F11637   5.799   4.144  10.219 -0.3736  0.3650 -0.6775
  112OSM    H4F11638   5.716   4.191  10.276 -1.0686  0.1274 -1.4893
  112OSM    H4G11639   5.790   4.034  10.229  1.0463  0.4634  2.2031
  112OSM    C5F11640   5.771   4.178  10.070 -0.5502  0.2475  0.4319
  112OSM    H5F11641   5.670   4.140  10.044 -0.3467  0.3352 -0.4831
  112OSM    H5G11642   5.851   4.134  10.008 -1.6757 -0.8999 -0.2284
  112OSM    C6F11643   5.775   4.326  10.046 -0.4651 -0.1828 -0.0881
  112OSM    H6F11644   5.878   4.363  10.062 -0.8411  1.6022 -1.5344
  112OSM    H6G11645   5.706   4.369  10.122 -0.7282 -2.9354  1.2849
  112OSM    C7F11646   5.722   4.356   9.903  0.8734  0.0833 -0.1912
  112OSM    H7F11647   5.684   4.460   9.891 -2.0264 -0.8328  0.7465
  112OSM    H7G11648   5.640   4.287   9.872  2.0877 -1.4060 -0.1410
  112OSM    C8F11649   5.840   4.325   9.801  0.5774  0.6949 -0.0036
  112OSM    H8F11650   5.857   4.216   9.815  0.2236  0.7268  0.7011
  112OSM    H8G11651   5.933   4.374   9.838  1.9164 -1.2216 -0.7261
  112OSM    C9F11652   5.805   4.358   9.656  0.1586  0.0203 -0.2048
  112OSM    H9F11653   5.805   4.464   9.627  2.2746  0.4014  1.1114
  112OSM   C10F11654   5.759   4.266   9.562  1.1781  0.1237 -0.1910
  112OSM   H10F11655   5.719   4.303   9.466 -0.2047 -0.8602  0.0020
  112OSM   C11F11656   5.743   4.113   9.571 -1.2054  0.1917 -0.3259
  112OSM   H11F11657   5.652   4.076   9.519 -0.8564  0.5000 -1.1695
  112OSM   H11G11658   5.728   4.083   9.677  0.3731  3.9255  1.0252
  112OSM   C12F11659   5.869   4.047   9.519  0.5512 -0.5031 -0.2724
  112OSM   H12F11660   5.861   3.936   9.520 -1.9456 -0.3593  1.4443
  112OSM   H12G11661   5.953   4.072   9.587 -0.7574 -0.9390  1.5614
  112OSM   C13F11662   5.907   4.077   9.367  1.0128 -0.0428 -0.2385
  112OSM   H13F11663   5.998   4.019   9.341  0.7736 -0.2449 -0.6436
  112OSM   H13G11664   5.917   4.185   9.344 -2.4730  0.1073 -1.4003
  112OSM   C14F11665   5.802   4.017   9.278  0.4025 -0.0830  0.1631
  112OSM   H14F11666   5.700   4.043   9.316 -0.0443 -4.0769  2.0011
  112OSM   H14G11667   5.797   3.906   9.282  3.1880 -0.2268  0.4480
  112OSM   C15F11668   5.818   4.060   9.130  0.7209  0.4541 -0.3094
  112OSM   H15F11669   5.793   4.168   9.125  0.2085  0.5169  2.4939
  112OSM   H15G11670   5.747   3.998   9.070 -1.7020  0.5457  2.3375
  112OSM   C16F11671   5.957   4.029   9.066  0.3257 -0.3017 -0.3660
  112OSM   H16F11672   5.975   3.919   9.068  5.2410  0.3998  0.8542
  112OSM   H16G11673   6.027   4.079   9.137 -1.2030  2.6714 -0.8611
  112OSM   C17F11674   5.971   4.071   8.914 -0.6277 -0.6786  0.7621
  112OSM   H17F11675   6.076   4.048   8.887 -0.7181  0.1468 -0.3072
  112OSM   H17G11676   5.964   4.181   8.903 -2.8095 -0.4963  3.4282
  112OSM   C18F11677   5.884   3.997   8.820 -0.0539  0.1849 -0.3316
  112OSM   H18F11678   5.916   4.012   8.714 -0.7282  2.3173 -0.2546
  112OSM   H18G11679   5.778   4.028   8.828  0.0216  0.8624 -1.6475
  112OSM   H18H11680   5.892   3.889   8.843  0.9878  0.7548  2.0937
  113OSM      N11681   6.478   3.278  11.247  0.2489 -0.4911  0.0097
  113OSM    C1511682   6.459   3.404  11.323 -0.3166 -0.4631  0.2227
  113OSM   H15A11683   6.529   3.479  11.290 -3.0162  1.6074 -0.9588
  113OSM   H15B11684   6.465   3.395  11.431 -2.5848 -0.1114  0.3904
  113OSM   H15C11685   6.370   3.454  11.288  1.5262  1.9248 -1.2021
  113OSM    C1411686   6.600   3.209  11.296  0.0944  0.1947 -0.0379
  113OSM   H14A11687   6.694   3.262  11.286  1.7110 -1.9881  2.8892
  113OSM   H14B11688   6.611   3.123  11.232  0.2888 -0.8989  1.4526
  113OSM   H14C11689   6.591   3.182  11.400  0.5566  1.0229  0.2177
  113OSM    C1311690   6.351   3.196  11.274 -0.5495  0.2602 -0.2515
  113OSM   H13A11691   6.332   3.126  11.193 -0.4489  0.4403 -0.4313
  113OSM   H13B11692   6.261   3.252  11.295 -1.1607 -1.0035  0.6445
  113OSM   H13C11693   6.367   3.149  11.370  0.0117  1.2871  0.1527
  113OSM    C1211694   6.497   3.321  11.097  0.9604 -0.2347 -0.0513
  113OSM   H12A11695   6.588   3.380  11.097  0.6366  0.2619  0.4081
  113OSM   H12B11696   6.414   3.381  11.063  0.5391  0.9043  2.8896
  113OSM    C1111697   6.532   3.212  10.996 -0.5040  0.9754 -0.3132
  113OSM   H11A11698   6.527   3.247  10.890  1.1445  1.2609 -0.3162
  113OSM   H11B11699   6.449   3.141  11.016 -1.5095  1.6716 -1.8690
  113OSM      P11700   6.795   3.175  10.971 -0.2179 -0.0669 -0.5111
  113OSM    O1311701   6.828   3.325  10.971  0.0642  0.0527  0.4980
  113OSM    O1411702   6.894   3.094  11.047 -0.3129 -0.2740  0.3996
  113OSM    O1111703   6.792   3.119  10.823 -0.0893 -0.0748 -0.1319
  113OSM    O1211704   6.650   3.142  11.023  0.0426  0.4358 -0.4223
  113OSM    C1S11705   6.912   3.086  10.758 -0.0728 -0.0682  0.4930
  113OSM    H1S11706   6.959   2.995  10.800  0.0977 -0.5389 -0.6894
  113OSM    H1T11707   6.986   3.170  10.758 -1.1624  0.9326 -1.3151
  113OSM     NF11708   6.999   2.992  10.548  0.1927 -0.7060 -0.2320
  113OSM    HNF11709   7.063   3.045  10.492  1.3490  0.3810  2.0704
  113OSM    C2S11710   6.878   3.049  10.607 -0.6193 -0.1127 -0.2565
  113OSM    H2S11711   6.796   2.974  10.609  1.5062 -2.4936  0.6534
  113OSM    C3S11712   6.817   3.181  10.542 -0.3839 -0.5763 -0.2623
  113OSM    H3S11713   6.892   3.263  10.552 -1.8965  0.6947  1.0727
  113OSM     O311714   6.697   3.219  10.597  0.3132 -0.1074  0.1816
  113OSM    HO311715   6.702   3.178  10.684 -0.1084 -2.5454 -0.8911
  113OSM    C4S11716   6.799   3.157  10.394  0.2314 -0.0255 -0.3391
  113OSM    H4S11717   6.723   3.081  10.367 -0.1456  1.0038 -2.2835
  113OSM    C5S11718   6.867   3.210  10.293 -0.7678 -0.5969  0.8149
  113OSM    H5S11719   6.949   3.282  10.308 -1.3928  0.8583 -2.3272
  113OSM    C6S11720   6.839   3.178  10.148 -0.0853  0.0793 -0.1846
  113OSM    H6S11721   6.829   3.275  10.095  0.3237 -0.3339 -1.0261
  113OSM    H6T11722   6.742   3.124  10.143 -0.2962  0.4494 -0.0713
  113OSM    C7S11723   6.954   3.096  10.076 -0.1823 -0.0799 -0.0908
  113OSM    H7S11724   6.975   3.015  10.149  0.7118 -0.4423 -0.7462
  113OSM    H7T11725   7.052   3.148  10.074 -0.2277  0.2755  3.0803
  113OSM    C8S11726   6.906   3.041   9.941 -0.6460  0.1174  0.4220
  113OSM    H8S11727   6.799   3.017   9.958 -0.2286 -1.9699  0.2517
  113OSM    H8T11728   6.963   2.951   9.909  0.7972  1.2759 -0.3496
  113OSM    C9S11729   6.909   3.141   9.822  0.3765  0.1136  0.7276
  113OSM    H9S11730   7.010   3.186   9.821  1.2097 -1.6921 -1.6720
  113OSM    H9T11731   6.838   3.224   9.843 -0.3606 -1.1240  3.3656
  113OSM   C10S11732   6.887   3.072   9.685 -0.9637 -0.6284  0.5697
  113OSM   H10S11733   6.799   3.006   9.676  1.8106 -4.5525  0.9936
  113OSM   H10T11734   6.969   3.000   9.664 -1.2439 -0.8674  0.3041
  113OSM   C11S11735   6.880   3.182   9.576 -0.5418 -0.1245 -0.0485
  113OSM   H11S11736   6.976   3.238   9.565 -0.5204 -0.2026 -0.2722
  113OSM   H11T11737   6.790   3.244   9.598  0.1297  0.4365  1.1681
  113OSM   C12S11738   6.855   3.123   9.436 -0.4316  0.4421  0.3832
  113OSM   H12S11739   6.780   3.042   9.430  0.4297 -0.1909 -2.7256
  113OSM   H12T11740   6.952   3.075   9.408  0.6209  0.8296  3.2390
  113OSM   C13S11741   6.815   3.225   9.326 -0.6550 -0.0252 -0.0479
  113OSM   H13S11742   6.868   3.321   9.344 -3.0028  0.8821  2.1957
  113OSM   H13T11743   6.707   3.247   9.318 -0.5148  0.5295 -0.4782
  113OSM   C14S11744   6.863   3.172   9.193  0.0065  0.5740 -0.5531
  113OSM   H14S11745   6.809   3.076   9.181  0.4026  0.0279  1.8158
  113OSM   H14T11746   6.972   3.160   9.204  0.0993 -0.1100 -2.1223
  113OSM   C15S11747   6.844   3.262   9.066 -0.1099  0.3340  0.5463
  113OSM   H15S11748   6.836   3.365   9.109  0.4342  0.0914  1.2421
  113OSM   H15T11749   6.747   3.237   9.018  1.8152 -1.2187 -2.6386
  113OSM   C16S11750   6.956   3.267   8.960  0.0462 -0.1289  0.9109
  113OSM   H16S11751   6.973   3.161   8.930  0.4172  0.6283 -1.6800
  113OSM   H16T11752   7.045   3.318   9.003  0.0173  0.4633  0.2689
  113OSM   C17S11753   6.933   3.350   8.840  0.0778 -0.1210 -0.1225
  113OSM   H17S11754   6.931   3.457   8.870 -3.3264 -0.4290  0.9067
  113OSM   H17T11755   6.842   3.313   8.788  2.4269  0.4060 -4.8783
  113OSM   C18S11756   7.033   3.332   8.725 -0.2959 -0.5558 -0.1943
  113OSM   H18S11757   7.007   3.409   8.650  0.8251 -0.3606 -0.3919
  113OSM   H18T11758   7.021   3.229   8.684  2.4147 -0.7295 -0.6111
  113OSM   H18U11759   7.141   3.349   8.744 -0.6076  0.8492  0.4208
  113OSM    C1F11760   7.039   2.870  10.582 -0.2199 -0.3473  0.4706
  113OSM     OF11761   6.965   2.796  10.643  0.3419  0.3270 -0.0497
  113OSM    C2F11762   7.179   2.833  10.549  0.1437 -0.2429  0.4940
  113OSM    H2F11763   7.237   2.844  10.644 -1.3872 -0.0017  1.4202
  113OSM    H2G11764   7.216   2.900  10.469  0.8711  0.4023  1.3510
  113OSM    C3F11765   7.179   2.684  10.508  0.4981  0.2317 -0.3208
  113OSM    H3F11766   7.129   2.634  10.594  3.2431 -0.6054  0.8421
  113OSM    H3G11767   7.283   2.645  10.520  0.0568 -0.3561  1.8650
  113OSM    C4F11768   7.110   2.643  10.378 -0.3317 -0.2293  0.4895
  113OSM    H4F11769   7.000   2.646  10.385 -0.2575  1.6418  1.1322
  113OSM    H4G11770   7.140   2.539  10.353 -0.6189 -0.5143  1.3336
  113OSM    C5F11771   7.152   2.728  10.261 -0.1142  0.7592 -0.3571
  113OSM    H5F11772   7.264   2.730  10.260 -0.0445 -1.2293  0.3991
  113OSM    H5G11773   7.117   2.829  10.288  0.0811  1.4836 -2.6970
  113OSM    C6F11774   7.093   2.694  10.130 -1.0020  0.1157  0.4788
  113OSM    H6F11775   6.991   2.740  10.130 -2.4018 -2.8552  0.6355
  113OSM    H6G11776   7.079   2.585  10.110  0.0477  0.3349 -1.5457
  113OSM    C7F11777   7.176   2.746  10.010  0.3765  0.5533  1.1611
  113OSM    H7F11778   7.284   2.722  10.021  0.1559 -1.2649 -0.2924
  113OSM    H7G11779   7.178   2.857  10.013 -0.3145  0.5254  2.8131
  113OSM    C8F11780   7.113   2.695   9.875 -0.4226 -0.2042 -0.4251
  113OSM    H8F11781   7.004   2.719   9.872 -0.3222  0.8264  2.7471
  113OSM    H8G11782   7.128   2.585   9.878 -0.9560 -0.3104 -1.4456
  113OSM    C9F11783   7.184   2.743   9.749  0.3077 -0.3088  0.4935
  113OSM    H9F11784   7.270   2.812   9.750  0.3377 -0.2565  4.4747
  113OSM   C10F11785   7.136   2.710   9.630  0.1960  0.2330 -0.0968
  113OSM   H10F11786   7.200   2.735   9.544  1.0615  2.1627  1.0620
  113OSM   C11F11787   7.008   2.629   9.613  0.0109 -0.1828  0.0529
  113OSM   H11F11788   6.936   2.686   9.550 -0.2344 -0.9892 -0.4063
  113OSM   H11G11789   6.941   2.618   9.701 -1.3293 -1.1331 -1.0391
  113OSM   C12F11790   7.037   2.489   9.548 -0.8836  0.1003 -0.0630
  113OSM   H12F11791   7.120   2.501   9.475  0.3518 -2.1604  0.9116
  113OSM   H12G11792   6.953   2.461   9.481  0.4742 -3.0624 -0.5049
  113OSM   C13F11793   7.062   2.360   9.641 -0.0573  0.1804  0.5393
  113OSM   H13F11794   7.160   2.393   9.683 -1.0766  3.9694  0.1185
  113OSM   H13G11795   7.072   2.269   9.578 -4.5120 -1.5532  2.1749
  113OSM   C14F11796   6.959   2.336   9.747 -0.7810 -0.7335  0.0013
  113OSM   H14F11797   6.866   2.336   9.687 -0.1816  2.6654 -1.0159
  113OSM   H14G11798   6.957   2.412   9.827  0.8438  0.0876 -0.7047
  113OSM   C15F11799   6.986   2.199   9.810  0.6399  0.3876  0.4860
  113OSM   H15F11800   7.079   2.207   9.871  1.1112 -1.8833  0.1337
  113OSM   H15G11801   6.993   2.130   9.723 -2.3157  2.6694 -1.6704
  113OSM   C16F11802   6.868   2.160   9.898  1.0120 -0.0271  0.1620
  113OSM   H16F11803   6.889   2.061   9.942 -0.6497 -0.1345  0.7447
  113OSM   H16G11804   6.773   2.147   9.843 -0.2967 -2.0922  2.8105
  113OSM   C17F11805   6.849   2.249  10.024 -0.6479 -1.1269  0.1619
  113OSM   H17F11806   6.822   2.353   9.994  1.1780 -0.7481 -0.2656
  113OSM   H17G11807   6.947   2.265  10.074 -0.3889 -3.3259  0.3798
  113OSM   C18F11808   6.740   2.186  10.109 -0.0766 -0.3788  0.4575
  113OSM   H18F11809   6.681   2.265  10.161 -2.3804 -0.4124 -1.9770
  113OSM   H18G11810   6.785   2.122  10.188  0.1751  0.8823  1.3538
  113OSM   H18H11811   6.656   2.137  10.055  0.6760  0.2117 -1.2851
  114OSM      N11812   0.723   1.273  11.508 -0.0989 -0.0983  0.0904
  114OSM    C1511813   0.798   1.362  11.602 -0.4422  0.3461 -0.4521
  114OSM   H15A11814   0.786   1.328  11.704  0.5296 -1.5664 -0.9562
  114OSM   H15B11815   0.786   1.469  11.587  0.5647  0.4386 -0.6332
  114OSM   H15C11816   0.901   1.338  11.579 -0.5860  0.4192 -1.1875
  114OSM    C1411817   0.739   1.131  11.544  0.0743 -0.0858 -0.1883
  114OSM   H14A11818   0.838   1.089  11.532 -0.3275 -0.9012 -0.7096
  114OSM   H14B11819   0.663   1.065  11.504 -0.2668 -0.5237  1.1539
  114OSM   H14C11820   0.722   1.123  11.651  0.6460 -0.7559 -0.1421
  114OSM    C1311821   0.578   1.322  11.519 -0.3919 -0.1019 -0.0624
  114OSM   H13A11822   0.585   1.426  11.491 -1.1891 -0.8806 -3.3932
  114OSM   H13B11823   0.547   1.320  11.622  4.2421 -1.7133  1.4612
  114OSM   H13C11824   0.521   1.272  11.442  2.0869 -2.7775 -0.2625
  114OSM    C1211825   0.773   1.296  11.365 -0.6545 -0.6944 -0.3014
  114OSM   H12A11826   0.719   1.232  11.297 -0.7477 -0.5580 -0.3536
  114OSM   H12B11827   0.877   1.265  11.361 -0.6685 -1.3211  2.7884
  114OSM    C1111828   0.769   1.441  11.304 -0.1912  0.2655  0.6445
  114OSM   H11A11829   0.671   1.489  11.324 -0.4984  0.0604 -0.3441
  114OSM   H11B11830   0.781   1.442  11.194  0.1201  2.0900  0.6842
  114OSM      P11831   0.875   1.663  11.408 -0.0173 -0.0599  0.6043
  114OSM    O1311832   0.781   1.678  11.526  0.1221  0.1395  0.7382
  114OSM    O1411833   1.007   1.715  11.440  0.4750  0.2194  0.1491
  114OSM    O1111834   0.820   1.751  11.294 -0.6359  0.1191  0.4031
  114OSM    O1211835   0.880   1.519  11.353  0.6076 -0.6713  0.0346
  114OSM    C1S11836   0.876   1.795  11.175 -0.2200  0.1143  0.0765
  114OSM    H1S11837   0.986   1.781  11.181 -0.4871 -2.6614 -0.7736
  114OSM    H1T11838   0.852   1.903  11.166 -1.0800 -0.0768 -0.0416
  114OSM     NF11839   0.912   1.746  10.939 -0.4046  0.4765  0.5760
  114OSM    HNF11840   0.891   1.824  10.881 -1.4911 -1.0411 -1.1416
  114OSM    C2S11841   0.820   1.725  11.048 -0.4006  0.0507  0.2176
  114OSM    H2S11842   0.813   1.618  11.076  2.0749 -0.2507 -0.2359
  114OSM    C3S11843   0.678   1.786  11.026  0.1356  0.9432  0.5110
  114OSM    H3S11844   0.680   1.892  10.992 -1.0356  1.9427  3.4057
  114OSM     O311845   0.609   1.799  11.155 -0.0730 -0.0007 -0.5708
  114OSM    HO311846   0.681   1.775  11.214  0.0751  0.5416 -0.5254
  114OSM    C4S11847   0.595   1.705  10.934 -0.1467  0.1542  0.7609
  114OSM    H4S11848   0.547   1.766  10.856 -0.0163 -1.5895 -0.7285
  114OSM    C5S11849   0.562   1.573  10.953  0.0043 -0.9342 -0.2511
  114OSM    H5S11850   0.597   1.525  11.046  0.3141  0.2407  0.2428
  114OSM    C6S11851   0.497   1.474  10.862 -0.2724  0.5107  0.3847
  114OSM    H6S11852   0.406   1.438  10.916  1.3466 -1.6393  1.7612
  114OSM    H6T11853   0.563   1.386  10.847 -0.3639  0.9110 -2.6423
  114OSM    C7S11854   0.451   1.520  10.721  0.4023  0.1284 -0.5368
  114OSM    H7S11855   0.534   1.567  10.664  2.4881  0.0223  2.2785
  114OSM    H7T11856   0.378   1.603  10.730  0.4360  0.0745  0.2794
  114OSM    C8S11857   0.390   1.403  10.639 -0.4791 -0.1793 -0.3031
  114OSM    H8S11858   0.471   1.327  10.629 -0.6168 -0.1779 -1.5199
  114OSM    H8T11859   0.380   1.437  10.533 -2.9732  4.3580  1.2529
  114OSM    C9S11860   0.261   1.340  10.695  0.4404 -0.0961  0.0744
  114OSM    H9S11861   0.186   1.416  10.666 -0.3214 -1.1067 -0.6626
  114OSM    H9T11862   0.281   1.325  10.803  1.0086  1.4416  0.1835
  114OSM   C10S11863   0.209   1.211  10.627  0.0723  0.5145  0.0769
  114OSM   H10S11864   0.110   1.185  10.668  0.2718 -0.6508 -0.1802
  114OSM   H10T11865   0.268   1.117  10.636  0.0700  0.3962 -1.0013
  114OSM   C11S11866   0.187   1.233  10.473 -0.8264  0.1412  0.4829
  114OSM   H11S11867   0.153   1.337  10.455 -0.3575  0.1641 -0.3469
  114OSM   H11T11868   0.097   1.174  10.445 -0.4301  0.0540 -0.6485
  114OSM   C12S11869   0.301   1.192  10.386 -0.0897 -0.6849 -1.0274
  114OSM   H12S11870   0.347   1.098  10.423  0.2188  0.4863  1.6467
  114OSM   H12T11871   0.375   1.276  10.381 -0.5636 -0.2533 -0.8049
  114OSM   C13S11872   0.251   1.187  10.238  0.3333  0.3090 -0.3282
  114OSM   H13S11873   0.171   1.109  10.237  0.7395 -0.1038 -1.4202
  114OSM   H13T11874   0.345   1.157  10.187  0.9395 -1.3440  1.6858
  114OSM   C14S11875   0.202   1.323  10.176  0.4761  0.2759  0.6295
  114OSM   H14S11876   0.229   1.405  10.246  0.6125  0.5436  0.2620
  114OSM   H14T11877   0.092   1.310  10.164  0.9151 -1.3271 -1.8493
  114OSM   C15S11878   0.266   1.346  10.041 -0.0278 -0.4118  0.0856
  114OSM   H15S11879   0.373   1.315  10.042 -0.2253 -1.1934  2.3658
  114OSM   H15T11880   0.262   1.455  10.024  0.7088 -0.4831 -0.5493
  114OSM   C16S11881   0.172   1.280   9.933 -0.0914 -0.9863 -0.4994
  114OSM   H16S11882   0.066   1.312   9.946 -0.8574 -4.4843  2.8009
  114OSM   H16T11883   0.182   1.172   9.957 -0.7518 -1.2949 -1.5886
  114OSM   C17S11884   0.197   1.332   9.789  0.1805  0.0032 -0.4584
  114OSM   H17S11885   0.165   1.263   9.708 -0.8569  0.9080 -0.8342
  114OSM   H17T11886   0.306   1.344   9.771  0.0668  0.1700 -1.0445
  114OSM   C18S11887   0.145   1.470   9.761 -0.1778 -0.2648  0.0598
  114OSM   H18S11888   0.166   1.503   9.657 -0.6715  0.3009  0.1372
  114OSM   H18T11889   0.196   1.543   9.827 -0.8265  1.1024 -0.9189
  114OSM   H18U11890   0.037   1.469   9.786 -0.4702  1.8676 -1.0118
  114OSM    C1F11891   1.026   1.691  10.945 -0.0422  0.5712 -0.7648
  114OSM     OF11892   1.050   1.594  11.018 -0.2155  0.0261 -0.3713
  114OSM    C2F11893   1.136   1.755  10.857 -0.9480 -0.0856  0.3969
  114OSM    H2F11894   1.204   1.671  10.828 -0.0960  0.8130 -0.2965
  114OSM    H2G11895   1.196   1.823  10.922  0.8808  0.1242 -1.4290
  114OSM    C3F11896   1.077   1.832  10.735  0.1762 -0.9599  0.0473
  114OSM    H3F11897   1.068   1.938  10.767  1.4856 -1.3527  1.7902
  114OSM    H3G11898   0.982   1.790  10.694 -0.5315  1.1182 -0.5179
  114OSM    C4F11899   1.169   1.824  10.612 -0.1506  0.1492  0.2195
  114OSM    H4F11900   1.149   1.728  10.559 -2.3082 -0.2075  1.6105
  114OSM    H4G11901   1.277   1.818  10.639 -0.4029 -1.0200  1.0057
  114OSM    C5F11902   1.156   1.947  10.521  0.4894 -0.5031  0.0454
  114OSM    H5F11903   1.163   2.036  10.588  2.1837 -1.3124  0.9480
  114OSM    H5G11904   1.050   1.945  10.485  1.3593  1.3083 -2.8761
  114OSM    C6F11905   1.250   1.940  10.400 -0.3371 -0.6469  0.7710
  114OSM    H6F11906   1.334   1.878  10.435 -1.0196 -1.1548  1.5252
  114OSM    H6G11907   1.286   2.043  10.379  1.8373 -1.5332  0.0432
  114OSM    C7F11908   1.180   1.880  10.278 -0.1085 -0.2236 -0.3306
  114OSM    H7F11909   1.093   1.939  10.242 -0.6122 -0.0801  1.0995
  114OSM    H7G11910   1.136   1.782  10.307 -1.7219  1.0197  1.5717
  114OSM    C8F11911   1.276   1.841  10.164  0.3103 -0.4681 -0.2887
  114OSM    H8F11912   1.229   1.768  10.095  0.6590 -0.5606 -0.4334
  114OSM    H8G11913   1.353   1.778  10.213  2.5048  0.5890 -2.2648
  114OSM    C9F11914   1.335   1.956  10.088 -0.5611  0.2784 -0.1657
  114OSM    H9F11915   1.360   2.042  10.152 -1.1204  0.1348  0.2535
  114OSM   C10F11916   1.374   1.951   9.959 -0.7583  0.0087  0.7262
  114OSM   H10F11917   1.422   2.034   9.906 -3.2655 -0.7817 -2.9086
  114OSM   C11F11918   1.359   1.843   9.860 -0.4922 -0.6132  0.3011
  114OSM   H11F11919   1.310   1.754   9.903 -1.2402  0.6971  2.2579
  114OSM   H11G11920   1.465   1.817   9.837 -0.8201 -0.7187 -1.1102
  114OSM   C12F11921   1.292   1.877   9.723 -0.8780  0.2719  0.1848
  114OSM   H12F11922   1.188   1.914   9.735 -0.4656  1.2808  0.7774
  114OSM   H12G11923   1.294   1.783   9.664  0.8633  0.3624  0.0650
  114OSM   C13F11924   1.373   1.989   9.636  0.3245  0.5114 -0.2241
  114OSM   H13F11925   1.483   1.981   9.647  0.4100  2.2527  0.3558
  114OSM   H13G11926   1.338   2.089   9.670 -1.2988 -0.4207  0.9264
  114OSM   C14F11927   1.332   1.975   9.484 -0.2771  0.2224 -0.6224
  114OSM   H14F11928   1.333   1.867   9.457  1.7196  0.0975 -0.1246
  114OSM   H14G11929   1.395   2.033   9.413 -0.7931 -0.6487 -1.8047
  114OSM   C15F11930   1.186   2.004   9.468  0.3941  0.4386  0.2978
  114OSM   H15F11931   1.144   2.075   9.542  1.8281  0.3626  1.2182
  114OSM   H15G11932   1.125   1.913   9.485 -0.9695  1.0264 -1.4209
  114OSM   C16F11933   1.138   2.060   9.328 -0.1992 -0.0450 -0.5527
  114OSM   H16F11934   1.215   2.135   9.299 -1.5750  0.8743 -1.8605
  114OSM   H16G11935   1.040   2.107   9.347 -0.2470 -0.6759  0.8031
  114OSM   C17F11936   1.121   1.963   9.215 -0.3577 -0.0418  0.0680
  114OSM   H17F11937   1.044   1.889   9.245 -1.2509  0.3369 -1.2609
  114OSM   H17G11938   1.214   1.904   9.197 -0.7290 -0.5433 -0.2040
  114OSM   C18F11939   1.083   2.030   9.077 -0.0846  0.4662 -0.4459
  114OSM   H18F11940   0.983   2.072   9.100  0.7695  0.7649  2.8888
  114OSM   H18G11941   1.068   1.969   8.985 -1.0936  0.3119 -0.1749
  114OSM   H18H11942   1.150   2.116   9.053 -0.8758  1.0761 -0.4970
  115OSM      N11943   2.074   4.558   6.232  0.1543 -0.1872 -0.4709
  115OSM    C1511944   1.974   4.609   6.328 -0.0898  0.0942  0.8309
  115OSM   H15A11945   1.872   4.576   6.313 -0.3305  0.9485  0.5645
  115OSM   H15B11946   1.968   4.717   6.322  1.1069  0.0893 -0.8091
  115OSM   H15C11947   2.000   4.592   6.432  1.4632  1.8892  0.7793
  115OSM    C1411948   2.205   4.625   6.255  1.3036 -0.3385 -0.3241
  115OSM   H14A11949   2.269   4.610   6.169  0.9249  0.9348 -0.8455
  115OSM   H14B11950   2.263   4.595   6.341  0.0870  1.3719  1.1317
  115OSM   H14C11951   2.189   4.732   6.259 -0.8979 -0.5920 -1.4182
  115OSM    C1311952   2.090   4.407   6.254 -0.6180  0.6866  1.3213
  115OSM   H13A11953   2.016   4.348   6.203 -0.9483  0.5023  2.0112
  115OSM   H13B11954   2.076   4.384   6.358  3.1481  0.2122  1.7969
  115OSM   H13C11955   2.183   4.387   6.203 -1.0291  2.4884 -0.1669
  115OSM    C1211956   2.037   4.594   6.086 -0.4630 -0.1150  0.1658
  115OSM   H12A11957   1.954   4.536   6.050 -0.5648  0.9839 -1.4117
  115OSM   H12B11958   2.124   4.574   6.024 -1.3320  2.0415 -1.8331
  115OSM    C1111959   1.979   4.741   6.072 -0.2889  0.3242  0.8015
  115OSM   H11A11960   1.887   4.752   6.134 -0.2850  0.9723  0.6868
  115OSM   H11B11961   1.940   4.760   5.970  0.8013  0.3460  0.3843
  115OSM      P11962   2.040   4.996   6.097 -0.0732 -0.0877 -0.1312
  115OSM    O1311963   2.139   5.054   6.001  0.1302  0.1411 -0.3307
  115OSM    O1411964   1.898   5.012   6.072 -0.2770  0.8010  0.1184
  115OSM    O1111965   2.074   5.042   6.248 -0.5518  0.0507 -0.1758
  115OSM    O1211966   2.073   4.840   6.102 -0.9514 -0.0704  0.1078
  115OSM    C1S11967   2.012   4.970   6.361 -0.0881  0.3486 -0.6859
  115OSM    H1S11968   2.059   4.871   6.377 -3.5226 -1.4454 -1.4129
  115OSM    H1T11969   1.905   4.948   6.341  0.2152 -2.7108  0.8680
  115OSM     NF11970   2.004   4.982   6.609 -0.2980  0.1905 -0.2379
  115OSM    HNF11971   1.927   5.014   6.664 -1.4142 -2.0917 -0.3945
  115OSM    C2S11972   2.033   5.060   6.488 -0.1794 -0.3064 -0.0260
  115OSM    H2S11973   2.143   5.075   6.491 -0.1957  0.5519 -2.2960
  115OSM    C3S11974   1.956   5.193   6.487 -0.0009  0.3755 -0.1655
  115OSM    H3S11975   1.850   5.175   6.514  0.0125  0.0818 -0.3152
  115OSM     O311976   1.952   5.267   6.362 -0.2638 -0.2796 -0.1360
  115OSM    HO311977   2.018   5.222   6.309  1.0269 -1.6273  2.4936
  115OSM    C4S11978   2.024   5.282   6.603  0.2835  0.0804  0.3828
  115OSM    H4S11979   1.968   5.270   6.697 -0.2473  0.6517  0.1394
  115OSM    C5S11980   2.114   5.379   6.580  0.9488 -0.1805  0.4737
  115OSM    H5S11981   2.157   5.378   6.478 -2.7603 -0.1084 -1.2048
  115OSM    C6S11982   2.176   5.476   6.676 -0.0685  0.5680  0.1771
  115OSM    H6S11983   2.136   5.578   6.656 -1.8050 -0.3777 -1.3624
  115OSM    H6T11984   2.281   5.491   6.645  0.4254 -1.9746  0.5204
  115OSM    C7S11985   2.157   5.437   6.819  0.5171 -0.0058 -0.2975
  115OSM    H7S11986   2.198   5.340   6.855 -0.7057  0.1000  1.4804
  115OSM    H7T11987   2.048   5.421   6.837  0.1398  1.6317 -1.0204
  115OSM    C8S11988   2.207   5.547   6.912 -0.2073 -0.8775  0.7096
  115OSM    H8S11989   2.125   5.622   6.903  0.5562  0.1059  1.7514
  115OSM    H8T11990   2.304   5.595   6.889 -1.2817  2.0251  1.9534
  115OSM    C9S11991   2.205   5.495   7.053 -0.3500 -0.2296  0.0144
  115OSM    H9S11992   2.270   5.404   7.056 -0.5865 -0.3560  2.0597
  115OSM    H9T11993   2.100   5.462   7.071  0.0354 -1.4188  0.1729
  115OSM   C10S11994   2.259   5.598   7.144 -0.7761  0.1029 -0.6097
  115OSM   H10S11995   2.368   5.621   7.134 -1.1031  1.5774 -0.9188
  115OSM   H10T11996   2.244   5.564   7.249  1.7761  0.8887  0.0505
  115OSM   C11S11997   2.196   5.735   7.142 -0.5630  0.3194  0.0899
  115OSM   H11S11998   2.088   5.722   7.117 -1.1478  0.9874  2.1330
  115OSM   H11T11999   2.219   5.799   7.055  1.8927 -1.9309 -0.9938
  115OSM   C12S12000   2.195   5.802   7.283  0.4472 -0.4278 -0.4552
  115OSM   H12S12001   2.173   5.911   7.281 -1.8475 -0.8879 -0.8782
  115OSM   H12T12002   2.291   5.801   7.340 -0.0741  0.8341  0.4626
  115OSM   C13S12003   2.088   5.747   7.381 -0.6186  0.1361 -0.3460
  115OSM   H13S12004   2.103   5.639   7.406  1.2412  0.4998  0.2128
  115OSM   H13T12005   1.987   5.757   7.336 -1.1722  0.0365  0.8402
  115OSM   C14S12006   2.086   5.832   7.513  0.4633  0.5275  0.0072
  115OSM   H14S12007   1.999   5.804   7.576 -1.0250  0.0376 -2.1896
  115OSM   H14T12008   2.075   5.940   7.486  1.5076  0.7018  0.2896
  115OSM   C15S12009   2.208   5.818   7.603 -0.4426 -0.0340 -0.1138
  115OSM   H15S12010   2.301   5.846   7.548 -0.6982  2.9807  0.9027
  115OSM   H15T12011   2.224   5.710   7.623  0.3808  0.2497  0.8098
  115OSM   C16S12012   2.194   5.891   7.739 -0.2597 -0.5052  0.5970
  115OSM   H16S12013   2.276   5.847   7.800 -0.2017 -1.2134  0.0167
  115OSM   H16T12014   2.096   5.870   7.786 -0.1302 -0.2753  0.9719
  115OSM   C17S12015   2.203   6.049   7.735 -0.3592  0.2829 -0.3401
  115OSM   H17S12016   2.201   6.084   7.840  0.3031  0.5178 -0.4040
  115OSM   H17T12017   2.115   6.092   7.682  0.2594 -0.3394 -1.9185
  115OSM   C18S12018   2.322   6.097   7.650 -0.0918  0.3554  1.1323
  115OSM   H18S12019   2.314   6.064   7.544 -2.8693 -0.2926  1.5091
  115OSM   H18T12020   2.419   6.060   7.690  0.7256 -0.0608 -1.1541
  115OSM   H18U12021   2.339   6.207   7.657 -2.4325  0.9449 -1.3913
  115OSM    C1F12022   2.081   4.880   6.660 -0.2173 -0.2242  0.8732
  115OSM     OF12023   2.183   4.838   6.604 -0.1635  0.4300 -0.1815
  115OSM    C2F12024   2.037   4.820   6.788  0.2301  0.2350 -0.0091
  115OSM    H2F12025   1.986   4.722   6.778 -2.5671  1.6363  0.1190
  115OSM    H2G12026   1.964   4.890   6.835  0.4294  0.8504 -0.6049
  115OSM    C3F12027   2.159   4.820   6.888 -0.1031 -0.1597  0.5294
  115OSM    H3F12028   2.234   4.744   6.856  0.9342 -0.4688  3.5429
  115OSM    H3G12029   2.114   4.780   6.981 -3.3506  1.1381 -0.4345
  115OSM    C4F12030   2.237   4.955   6.924  0.9204 -0.5611 -0.0345
  115OSM    H4F12031   2.296   4.965   6.831 -0.6175 -2.6268 -1.2775
  115OSM    H4G12032   2.305   4.929   7.008  0.6966 -0.5351  0.1559
  115OSM    C5F12033   2.142   5.070   6.951  0.4841 -0.0678 -0.6771
  115OSM    H5F12034   2.075   5.092   6.865 -0.1858  2.3121  0.4062
  115OSM    H5G12035   2.202   5.161   6.975 -0.7253  0.2023  1.4877
  115OSM    C6F12036   2.060   5.050   7.072  0.3532 -0.1509 -0.8507
  115OSM    H6F12037   2.122   5.000   7.149  0.3544  0.0007 -0.7538
  115OSM    H6G12038   1.964   4.996   7.055 -1.0450  2.2763 -0.9718
  115OSM    C7F12039   2.027   5.181   7.132 -0.0693  0.2875  0.1974
  115OSM    H7F12040   1.995   5.245   7.046 -1.0093 -0.6318 -0.1452
  115OSM    H7G12041   2.116   5.224   7.182  0.9888 -1.9752  0.3131
  115OSM    C8F12042   1.913   5.186   7.232 -0.0391  1.0154  0.0419
  115OSM    H8F12043   1.834   5.132   7.176  1.9020 -0.3105 -1.4833
  115OSM    H8G12044   1.863   5.285   7.246  0.0641  0.7070  2.9964
  115OSM    C9F12045   1.932   5.106   7.363 -0.0145  0.4715 -0.2309
  115OSM    H9F12046   1.936   4.996   7.356  0.7090  0.4516  0.3567
  115OSM   C10F12047   1.952   5.164   7.478 -0.1234 -0.0418  0.2239
  115OSM   H10F12048   1.979   5.102   7.564  0.0774 -1.9927 -1.2013
  115OSM   C11F12049   1.961   5.311   7.499  0.2121 -0.3146 -0.4392
  115OSM   H11F12050   1.959   5.381   7.413 -0.8770 -0.1948 -0.3189
  115OSM   H11G12051   2.060   5.325   7.548 -0.7511  0.0464  1.4434
  115OSM   C12F12052   1.863   5.358   7.611  0.2897 -0.1406 -0.0160
  115OSM   H12F12053   1.858   5.288   7.696  0.5605 -2.2762 -1.7098
  115OSM   H12G12054   1.764   5.362   7.560  0.6853  1.0094 -0.7147
  115OSM   C13F12055   1.888   5.499   7.646  0.4888 -0.2635  0.4300
  115OSM   H13F12056   1.874   5.555   7.551 -1.3132 -0.6052  0.4755
  115OSM   H13G12057   1.988   5.522   7.689  0.0432 -0.3085  1.4880
  115OSM   C14F12058   1.791   5.560   7.752 -0.3193  0.1934  0.8740
  115OSM   H14F12059   1.687   5.559   7.714  0.5134 -0.2680 -1.4852
  115OSM   H14G12060   1.828   5.665   7.751 -0.3209  0.1970 -1.2584
  115OSM   C15F12061   1.812   5.504   7.886 -0.2113 -0.4746  1.1050
  115OSM   H15F12062   1.920   5.502   7.913 -0.2318  0.0564  1.2259
  115OSM   H15G12063   1.793   5.394   7.883 -0.6336 -0.3713 -0.3868
  115OSM   C16F12064   1.727   5.575   7.987  0.9249 -0.3387 -0.6813
  115OSM   H16F12065   1.621   5.550   7.964  0.4726  0.5552  0.3534
  115OSM   H16G12066   1.748   5.684   7.974  0.5287  0.0585  1.6524
  115OSM   C17F12067   1.755   5.538   8.139  0.7575 -0.4666  0.5191
  115OSM   H17F12068   1.862   5.511   8.148  1.0990  0.3141 -1.0309
  115OSM   H17G12069   1.702   5.443   8.163 -1.1579 -0.1475 -2.1446
  115OSM   C18F12070   1.704   5.646   8.235 -1.0856 -0.1982 -0.4146
  115OSM   H18F12071   1.598   5.663   8.206 -1.6804  2.3262  2.9441
  115OSM   H18G12072   1.765   5.738   8.220 -1.5896  0.0254 -1.1482
  115OSM   H18H12073   1.708   5.603   8.337 -0.0994 -1.1661 -0.8496
  116OSM      N12074   1.188   2.842   6.284 -0.3476 -0.4217 -0.4414
  116OSM    C1512075   1.122   2.887   6.166  0.0045  0.5364  0.7423
  116OSM   H15A12076   1.189   2.886   6.081 -1.4599 -0.3503 -0.4248
  116OSM   H15B12077   1.080   2.985   6.179  0.7988  1.2479 -1.8682
  116OSM   H15C12078   1.055   2.806   6.141  0.8210 -0.0748  0.5118
  116OSM    C1412079   1.208   2.700   6.269  0.2459 -0.0976 -0.2616
  116OSM   H14A12080   1.253   2.675   6.173  0.5335  0.1301 -0.1866
  116OSM   H14B12081   1.121   2.638   6.287 -0.2386  0.8440  0.6705
  116OSM   H14C12082   1.279   2.667   6.344  0.9791 -1.7016 -1.6208
  116OSM    C1312083   1.326   2.900   6.294 -0.7021 -0.7489 -0.1869
  116OSM   H13A12084   1.381   2.881   6.203 -2.0145  0.6560 -1.3042
  116OSM   H13B12085   1.387   2.862   6.374 -0.6528  1.3690  0.8161
  116OSM   H13C12086   1.326   3.008   6.283  0.8940 -0.7311 -0.1682
  116OSM    C1212087   1.102   2.869   6.401 -0.4009  0.2495  0.5724
  116OSM   H12A12088   1.088   2.975   6.420  1.6383  0.8797 -1.1791
  116OSM   H12B12089   1.145   2.823   6.488 -0.4625 -1.9518 -0.5416
  116OSM    C1112090   0.958   2.804   6.406  0.1886  0.7584  0.4637
  116OSM   H11A12091   0.897   2.849   6.325  0.3875 -1.4073 -0.9432
  116OSM   H11B12092   0.905   2.827   6.500  0.0518  1.5592  0.1914
  116OSM      P12093   0.846   2.572   6.369  0.3745  0.3208  0.5504
  116OSM    O1312094   0.758   2.637   6.272  0.4414 -0.5955  0.0536
  116OSM    O1412095   0.889   2.435   6.331  0.4652 -0.0318  0.2232
  116OSM    O1112096   0.779   2.560   6.509 -0.0651 -0.3720 -0.5984
  116OSM    O1212097   0.963   2.662   6.394 -0.1479 -0.1281  0.2625
  116OSM    C1S12098   0.839   2.480   6.617 -0.3806 -0.2313 -0.1177
  116OSM    H1S12099   0.917   2.418   6.569  1.5963  2.0952 -0.0156
  116OSM    H1T12100   0.767   2.405   6.657 -1.7286  1.3346  0.4697
  116OSM     NF12101   0.997   2.480   6.794  0.0088 -0.1751 -0.0489
  116OSM    HNF12102   0.974   2.431   6.878 -0.1140 -1.1522 -0.6442
  116OSM    C2S12103   0.903   2.563   6.725  0.3597  0.0962 -0.1942
  116OSM    H2S12104   0.953   2.648   6.674  0.0041  0.7790  0.5808
  116OSM    C3S12105   0.791   2.626   6.806 -0.4331  0.4719 -0.6883
  116OSM    H3S12106   0.732   2.548   6.858 -0.9266  2.7749  2.3798
  116OSM     O312107   0.696   2.689   6.726 -0.4211 -0.4033 -0.8740
  116OSM    HO312108   0.722   2.654   6.641 -1.8498 -3.4254 -0.1204
  116OSM    C4S12109   0.852   2.725   6.909 -0.0386  0.0415  0.2998
  116OSM    H4S12110   0.923   2.801   6.871 -0.6269  0.3499 -0.1979
  116OSM    C5S12111   0.842   2.708   7.045  0.4604 -1.2788  0.0898
  116OSM    H5S12112   0.780   2.630   7.091  0.3128  0.5236  3.1118
  116OSM    C6S12113   0.903   2.805   7.140 -0.0040  1.1963 -0.8864
  116OSM    H6S12114   1.011   2.784   7.152 -0.2524  0.9660  1.0075
  116OSM    H6T12115   0.846   2.791   7.234  1.4522 -1.1389 -0.3321
  116OSM    C7S12116   0.892   2.956   7.106  0.6218 -0.3881  0.3954
  116OSM    H7S12117   0.791   2.994   7.083  1.2670  0.2944 -1.4568
  116OSM    H7T12118   0.950   2.984   7.015 -1.2557 -2.9352 -1.6798
  116OSM    C8S12119   0.946   3.042   7.220 -0.0395 -0.0156 -0.2593
  116OSM    H8S12120   0.937   3.150   7.196  0.7677  0.4865  1.6153
  116OSM    H8T12121   1.056   3.039   7.234 -0.1914  3.8371  2.4819
  116OSM    C9S12122   0.889   3.012   7.361  0.8471 -0.1664  0.0687
  116OSM    H9S12123   0.944   2.927   7.407 -0.0872 -0.3519  0.8764
  116OSM    H9T12124   0.780   2.989   7.357  1.5275 -3.8885  1.4151
  116OSM   C10S12125   0.916   3.132   7.452  0.0398 -0.5241  0.1219
  116OSM   H10S12126   0.856   3.221   7.424  0.7490  0.0785  0.4929
  116OSM   H10T12127   1.019   3.173   7.454 -0.3584  0.5181 -0.4866
  116OSM   C11S12128   0.883   3.113   7.601  0.1745 -0.5817 -0.2183
  116OSM   H11S12129   0.808   3.031   7.607 -2.6045  1.9628  2.3691
  116OSM   H11T12130   0.844   3.203   7.655  0.2207  0.1856 -1.4337
  116OSM   C12S12131   1.004   3.045   7.688 -0.2694  0.0938 -0.3174
  116OSM   H12S12132   1.098   3.096   7.659  0.4795 -0.6012  0.8392
  116OSM   H12T12133   1.014   2.940   7.653 -3.2696 -0.1623 -0.5135
  116OSM   C13S12134   0.991   3.054   7.845  0.2296 -0.6451 -0.4639
  116OSM   H13S12135   0.980   3.161   7.874  0.7917 -1.3915  2.7006
  116OSM   H13T12136   1.079   2.999   7.884 -0.2869 -1.9894 -1.1529
  116OSM   C14S12137   0.867   2.983   7.894  0.8909  0.1817  0.2829
  116OSM   H14S12138   0.862   2.888   7.835 -0.5837 -0.5209  1.5123
  116OSM   H14T12139   0.779   3.047   7.871  1.2512  0.0723 -1.4852
  116OSM   C15S12140   0.881   2.938   8.037  0.0650  0.7633 -0.1112
  116OSM   H15S12141   0.903   3.034   8.089  0.9216  1.0067 -0.9169
  116OSM   H15T12142   0.973   2.877   8.046 -1.4045 -1.4865  0.0816
  116OSM   C16S12143   0.761   2.863   8.107  0.6254 -0.6038  0.7823
  116OSM   H16S12144   0.722   2.782   8.042  3.6374  0.8809 -3.1145
  116OSM   H16T12145   0.675   2.931   8.119  0.5583 -0.4930 -0.2657
  116OSM   C17S12146   0.810   2.801   8.239 -0.4621 -0.1265 -0.0427
  116OSM   H17S12147   0.840   2.887   8.302 -1.0903  0.1391 -0.0948
  116OSM   H17T12148   0.898   2.735   8.223 -2.8272 -3.0802 -1.6706
  116OSM   C18S12149   0.706   2.717   8.321 -0.0470  0.2160 -0.2448
  116OSM   H18S12150   0.695   2.618   8.272 -0.0279  1.2506 -2.4213
  116OSM   H18T12151   0.611   2.772   8.336 -1.0378 -2.1862  2.7642
  116OSM   H18U12152   0.746   2.673   8.415 -1.0171 -1.3138 -0.5221
  116OSM    C1F12153   1.122   2.463   6.751 -0.5516  0.2927  0.6216
  116OSM     OF12154   1.166   2.530   6.655  0.1239  0.7316  0.0756
  116OSM    C2F12155   1.215   2.355   6.812  0.1865  0.0144 -0.1358
  116OSM    H2F12156   1.298   2.331   6.742 -0.0722 -0.7251 -0.1937
  116OSM    H2G12157   1.151   2.264   6.824  1.0716 -0.6172 -0.1363
  116OSM    C3F12158   1.258   2.401   6.948 -0.3622  0.5839 -1.3676
  116OSM    H3F12159   1.294   2.315   7.008  0.7412  2.9614  1.4847
  116OSM    H3G12160   1.173   2.444   7.007  0.0835 -0.1785 -0.1571
  116OSM    C4F12161   1.369   2.508   6.945  0.6673 -0.1752  0.6734
  116OSM    H4F12162   1.335   2.601   6.896  0.2027 -1.0123 -0.6159
  116OSM    H4G12163   1.452   2.470   6.882 -1.2696  0.2647 -2.2069
  116OSM    C5F12164   1.408   2.554   7.083 -0.2733 -0.0077 -0.2571
  116OSM    H5F12165   1.502   2.612   7.077 -0.1802 -0.1931 -0.6365
  116OSM    H5G12166   1.436   2.470   7.151 -0.5947  2.2919  2.7920
  116OSM    C6F12167   1.305   2.642   7.166  0.3474 -0.0991  0.4162
  116OSM    H6F12168   1.240   2.571   7.221  0.2196 -0.2247  0.1015
  116OSM    H6G12169   1.236   2.689   7.094 -0.1729  0.9387  1.5904
  116OSM    C7F12170   1.369   2.745   7.253 -0.1324  0.0913  0.1087
  116OSM    H7F12171   1.282   2.798   7.296 -0.6061 -0.2577 -0.4252
  116OSM    H7G12172   1.429   2.814   7.189 -1.5190  0.2382 -1.0520
  116OSM    C8F12173   1.443   2.669   7.362 -0.3872 -0.9100  0.6750
  116OSM    H8F12174   1.515   2.593   7.326 -0.3151 -0.6311  0.2267
  116OSM    H8G12175   1.368   2.617   7.425 -1.1563 -1.6555 -0.8109
  116OSM    C9F12176   1.511   2.764   7.453 -0.6601 -0.1144 -0.3261
  116OSM    H9F12177   1.618   2.785   7.439  0.1982 -1.6276  3.4743
  116OSM   C10F12178   1.452   2.834   7.551  0.2083 -0.7049 -0.4393
  116OSM   H10F12179   1.508   2.908   7.611 -0.9287  1.5359 -2.0505
  116OSM   C11F12180   1.300   2.836   7.596 -0.4407  0.6166 -0.2321
  116OSM   H11F12181   1.237   2.837   7.505  0.7440 -2.6701 -1.1171
  116OSM   H11G12182   1.272   2.925   7.658 -2.1129  0.1773 -0.3158
  116OSM   C12F12183   1.268   2.722   7.694  0.6229  0.2852  0.4089
  116OSM   H12F12184   1.293   2.627   7.643  1.5795  1.4561 -1.3693
  116OSM   H12G12185   1.163   2.699   7.720  1.2435 -0.7816  2.0341
  116OSM   C13F12186   1.351   2.724   7.827  0.0667  0.1032 -0.1583
  116OSM   H13F12187   1.348   2.829   7.862  0.5732  1.3475 -3.6661
  116OSM   H13G12188   1.456   2.698   7.801  0.3169  1.6947 -0.7623
  116OSM   C14F12189   1.295   2.651   7.945 -0.3012 -0.5958 -0.2332
  116OSM   H14F12190   1.297   2.545   7.912  1.9202  0.0988 -2.5760
  116OSM   H14G12191   1.188   2.678   7.957  0.0476  1.2227 -0.9384
  116OSM   C15F12192   1.368   2.668   8.072  0.6582 -0.2691 -0.6218
  116OSM   H15F12193   1.409   2.771   8.060 -2.0218  0.7610 -1.4604
  116OSM   H15G12194   1.455   2.601   8.086  0.5192 -0.1930  0.6690
  116OSM   C16F12195   1.267   2.643   8.190  0.0515 -0.0907 -0.2241
  116OSM   H16F12196   1.270   2.534   8.211 -2.1913 -0.0195  0.6622
  116OSM   H16G12197   1.160   2.658   8.162  0.5762  3.2519 -0.6200
  116OSM   C17F12198   1.305   2.725   8.315  0.2821  0.1276  0.1362
  116OSM   H17F12199   1.415   2.739   8.325  0.2730  0.6403 -0.4851
  116OSM   H17G12200   1.268   2.662   8.399  0.1149 -0.8647 -0.6640
  116OSM   C18F12201   1.245   2.864   8.318 -0.7951 -0.1921  0.8316
  116OSM   H18F12202   1.140   2.871   8.285 -0.4855  0.1228 -0.0867
  116OSM   H18G12203   1.299   2.932   8.250  0.0809 -1.7682 -0.0828
  116OSM   H18H12204   1.252   2.897   8.424  0.8909 -0.2530  0.7555
  117OSM      N12205   6.182   5.571   6.102  0.2494 -0.2452 -0.2121
  117OSM    C1512206   6.173   5.426   6.058  0.7769  0.3374  0.2864
  117OSM   H15A12207   6.166   5.414   5.951 -0.4810  0.2224  0.3728
  117OSM   H15B12208   6.089   5.379   6.108 -1.8020  2.2894 -2.0510
  117OSM   H15C12209   6.256   5.364   6.087  0.1927  0.4602  2.2906
  117OSM    C1412210   6.316   5.610   6.038  0.2049 -0.1271  0.1946
  117OSM   H14A12211   6.390   5.539   6.071 -0.3648 -1.1467 -0.7148
  117OSM   H14B12212   6.352   5.710   6.057  1.6848 -0.7338  0.6072
  117OSM   H14C12213   6.306   5.589   5.932  1.2810 -1.2897  0.3212
  117OSM    C1312214   6.064   5.656   6.060 -0.3205  0.0758  0.1698
  117OSM   H13A12215   5.976   5.615   6.107 -0.4956 -0.4649 -0.6335
  117OSM   H13B12216   6.052   5.642   5.954 -0.0065 -2.0430  0.3977
  117OSM   H13C12217   6.066   5.760   6.090 -0.3485 -0.2934  1.4869
  117OSM    C1212218   6.206   5.577   6.253  0.8791  0.0791  0.0509
  117OSM   H12A12219   6.285   5.509   6.282  0.6819 -0.8212 -1.4515
  117OSM   H12B12220   6.121   5.529   6.300  1.0840 -0.1262  0.2093
  117OSM    C1112221   6.243   5.716   6.313 -0.2516  0.1394  0.2831
  117OSM   H11A12222   6.210   5.721   6.418 -0.7888 -1.9708  0.2396
  117OSM   H11B12223   6.187   5.796   6.260  2.3172  1.4673 -0.5185
  117OSM      P12224   6.487   5.668   6.389 -0.5724 -0.2092  0.4480
  117OSM    O1312225   6.524   5.540   6.320 -0.3691 -0.2811  0.3206
  117OSM    O1412226   6.598   5.765   6.420 -0.1411 -0.6266  0.0078
  117OSM    O1112227   6.416   5.629   6.523 -0.5178  0.0919  0.7920
  117OSM    O1212228   6.381   5.748   6.304 -0.0352 -0.0019 -0.1873
  117OSM    C1S12229   6.465   5.530   6.612  0.1707 -0.8638  0.3006
  117OSM    H1S12230   6.575   5.520   6.606  0.5445  0.2517  3.7930
  117OSM    H1T12231   6.420   5.430   6.598 -0.5083 -0.5552  0.2576
  117OSM     NF12232   6.518   5.514   6.850 -0.5401 -0.0842  0.7754
  117OSM    HNF12233   6.495   5.421   6.876  4.0635 -1.6315 -0.1137
  117OSM    C2S12234   6.425   5.570   6.747  0.0043 -0.6814 -0.1955
  117OSM    H2S12235   6.445   5.679   6.754 -3.7882  0.0638  0.2296
  117OSM    C3S12236   6.277   5.537   6.761 -0.0823  0.0180 -0.2813
  117OSM    H3S12237   6.257   5.429   6.743  0.2832 -0.1848  0.5262
  117OSM     O312238   6.195   5.611   6.665 -0.1898  0.6484 -0.0849
  117OSM    HO312239   6.260   5.623   6.595 -1.3975  2.0161 -1.0173
  117OSM    C4S12240   6.235   5.571   6.903 -1.2854  0.1762  0.3809
  117OSM    H4S12241   6.247   5.483   6.968  2.4173  2.3712  2.9047
  117OSM    C5S12242   6.183   5.687   6.953  0.0974  0.0971  0.5392
  117OSM    H5S12243   6.162   5.775   6.892 -1.9916 -0.3252  0.5948
  117OSM    C6S12244   6.146   5.710   7.101  0.6573 -0.2535 -1.0081
  117OSM    H6S12245   6.063   5.641   7.128 -0.4985  0.9564 -1.4269
  117OSM    H6T12246   6.103   5.810   7.120 -0.8507 -1.0002 -0.4022
  117OSM    C7S12247   6.252   5.670   7.197  0.7223 -0.3329  0.2815
  117OSM    H7S12248   6.351   5.709   7.165 -0.0025  0.4096 -1.0811
  117OSM    H7T12249   6.260   5.559   7.196  2.0047 -0.2653 -2.4507
  117OSM    C8S12250   6.228   5.725   7.339 -1.1938  0.0319 -0.3958
  117OSM    H8S12251   6.130   5.689   7.378  0.7696 -1.8465  3.0636
  117OSM    H8T12252   6.235   5.836   7.341 -0.0289 -0.0472  2.4756
  117OSM    C9S12253   6.324   5.672   7.441 -0.2151 -0.3665 -0.0292
  117OSM    H9S12254   6.428   5.704   7.416 -0.8851  1.8163 -0.1744
  117OSM    H9T12255   6.312   5.562   7.445 -1.5815 -0.1426  4.0413
  117OSM   C10S12256   6.291   5.718   7.587  0.0161  0.4134  0.1000
  117OSM   H10S12257   6.185   5.694   7.612  0.3244  1.6927  2.7815
  117OSM   H10T12258   6.294   5.828   7.594  0.0058  0.6802 -3.1843
  117OSM   C11S12259   6.383   5.655   7.692  0.3176  0.3374  0.0862
  117OSM   H11S12260   6.488   5.650   7.657  0.0564 -2.8467 -0.3700
  117OSM   H11T12261   6.356   5.548   7.689  1.6199 -0.0019  0.3632
  117OSM   C12S12262   6.368   5.727   7.824 -0.4390  0.0281  0.2935
  117OSM   H12S12263   6.265   5.700   7.856 -0.1667 -2.2328 -0.6388
  117OSM   H12T12264   6.392   5.834   7.810  0.1121 -0.3195 -1.5875
  117OSM   C13S12265   6.465   5.669   7.925  0.1156 -0.2199 -0.2501
  117OSM   H13S12266   6.564   5.639   7.883  0.3693 -0.8187  0.7719
  117OSM   H13T12267   6.418   5.572   7.951 -1.6883  0.2660 -1.6183
  117OSM   C14S12268   6.471   5.744   8.064 -0.4675 -0.1369 -0.2831
  117OSM   H14S12269   6.370   5.732   8.108 -1.1358  1.5118 -1.2870
  117OSM   H14T12270   6.500   5.851   8.048  1.3268 -0.2887  1.6253
  117OSM   C15S12271   6.584   5.701   8.149  0.0182  0.2718  0.5626
  117OSM   H15S12272   6.670   5.710   8.079 -2.1350 -3.1734 -2.7225
  117OSM   H15T12273   6.572   5.592   8.171  1.5200 -0.0968 -0.3789
  117OSM   C16S12274   6.607   5.775   8.283  0.2594  0.0779  0.2421
  117OSM   H16S12275   6.515   5.763   8.344  0.2142 -0.2640  0.1029
  117OSM   H16T12276   6.620   5.885   8.268  1.2538  0.5360  3.8964
  117OSM   C17S12277   6.736   5.740   8.357 -0.2542  0.2476  0.7702
  117OSM   H17S12278   6.731   5.768   8.465 -0.4986 -0.3216  0.9095
  117OSM   H17T12279   6.827   5.772   8.303 -0.7843 -0.1031 -0.3443
  117OSM   C18S12280   6.768   5.583   8.362  0.1726 -0.2808  0.2611
  117OSM   H18S12281   6.686   5.523   8.407 -1.4149  1.1586 -0.6639
  117OSM   H18T12282   6.859   5.570   8.426  0.1155  1.3577  0.6967
  117OSM   H18U12283   6.798   5.540   8.264  2.0784 -1.0947  1.1698
  117OSM    C1F12284   6.646   5.556   6.865  0.0374 -0.4694 -0.1339
  117OSM     OF12285   6.700   5.651   6.808 -0.7481 -0.7090  0.6083
  117OSM    C2F12286   6.727   5.497   6.978  0.1103 -0.4151 -0.4866
  117OSM    H2F12287   6.790   5.576   7.023 -0.2794  0.0282 -0.7198
  117OSM    H2G12288   6.790   5.415   6.936 -0.2953 -0.2188 -1.4993
  117OSM    C3F12289   6.638   5.456   7.096 -0.0934  0.5687 -0.2436
  117OSM    H3F12290   6.573   5.370   7.070 -1.5140  0.5333  3.2192
  117OSM    H3G12291   6.576   5.542   7.125 -1.4315  0.1947 -1.9035
  117OSM    C4F12292   6.710   5.405   7.223  0.7121  0.5321 -0.3892
  117OSM    H4F12293   6.769   5.477   7.282 -3.2288  2.3639  1.5188
  117OSM    H4G12294   6.762   5.312   7.191  0.8666 -1.1784  4.5334
  117OSM    C5F12295   6.601   5.338   7.313 -0.5139  0.2987  0.3202
  117OSM    H5F12296   6.546   5.255   7.263  1.0996 -1.9021  2.1098
  117OSM    H5G12297   6.526   5.408   7.355 -0.5073 -0.2617  1.2709
  117OSM    C6F12298   6.658   5.262   7.424  0.0963 -0.3470  0.0311
  117OSM    H6F12299   6.713   5.175   7.381  1.0884  0.5862 -0.5907
  117OSM    H6G12300   6.572   5.221   7.482  0.1833  1.5540  1.5444
  117OSM    C7F12301   6.742   5.349   7.516 -0.3895 -0.0076 -0.5898
  117OSM    H7F12302   6.678   5.439   7.530 -0.3849 -0.1825  0.6335
  117OSM    H7G12303   6.838   5.372   7.466 -0.7457  0.7806 -0.9157
  117OSM    C8F12304   6.781   5.284   7.651 -0.1637 -0.1337  0.1140
  117OSM    H8F12305   6.852   5.362   7.687 -1.9714  1.2972  0.6751
  117OSM    H8G12306   6.838   5.191   7.633  0.3353  0.3732 -1.0221
  117OSM    C9F12307   6.671   5.267   7.752  0.3143  0.1646  0.4338
  117OSM    H9F12308   6.580   5.225   7.706  0.4337 -0.9134  1.1793
  117OSM   C10F12309   6.672   5.285   7.885  0.2654  0.0691  0.6406
  117OSM   H10F12310   6.589   5.266   7.955  0.5714 -0.9999  0.7251
  117OSM   C11F12311   6.789   5.323   7.964 -0.1967  0.4443 -0.1506
  117OSM   H11F12312   6.762   5.422   8.007  0.4337  0.4832  0.1533
  117OSM   H11G12313   6.879   5.333   7.900  0.1707 -1.4177  0.0570
  117OSM   C12F12314   6.827   5.247   8.090 -0.3960 -0.4649  0.8072
  117OSM   H12F12315   6.906   5.304   8.142 -0.3413  1.1749 -1.0157
  117OSM   H12G12316   6.880   5.154   8.063  1.1648  0.7084 -0.2308
  117OSM   C13F12317   6.706   5.216   8.181  0.1827 -0.1404  0.1731
  117OSM   H13F12318   6.649   5.132   8.134  0.6745  0.2126 -1.0764
  117OSM   H13G12319   6.644   5.308   8.183  0.3115  0.0063 -1.8735
  117OSM   C14F12320   6.746   5.183   8.329  0.1942 -0.2909 -0.0672
  117OSM   H14F12321   6.798   5.265   8.384 -0.9137  1.4120 -1.4832
  117OSM   H14G12322   6.814   5.096   8.337 -1.3365 -1.4099  1.2927
  117OSM   C15F12323   6.620   5.138   8.407 -0.1486  0.1524 -0.1856
  117OSM   H15F12324   6.532   5.202   8.388 -0.1067 -0.4286 -2.4157
  117OSM   H15G12325   6.641   5.146   8.516  1.8005 -1.2379 -0.4233
  117OSM   C16F12326   6.573   4.993   8.373  0.6147  0.2994  0.4149
  117OSM   H16F12327   6.655   4.918   8.376 -0.2177 -0.6196  0.2806
  117OSM   H16G12328   6.527   4.994   8.272 -0.2633  2.7688  0.8210
  117OSM   C17F12329   6.451   4.962   8.463  0.4842 -0.0185 -0.2705
  117OSM   H17F12330   6.471   4.926   8.566  0.6458 -0.9748 -0.6245
  117OSM   H17G12331   6.391   5.055   8.464  0.6961  0.1251 -0.7293
  117OSM   C18F12332   6.365   4.852   8.395 -0.2958  0.0129 -0.0259
  117OSM   H18F12333   6.338   4.878   8.290  2.4019  1.2696 -0.4471
  117OSM   H18G12334   6.266   4.850   8.445  0.7355  0.8416  2.0815
  117OSM   H18H12335   6.407   4.749   8.402  1.0028  0.7413  4.0662
  118OSM      N12336   2.823   0.570   5.950  0.2276 -0.2440 -0.7696
  118OSM    C1512337   2.968   0.572   5.977 -0.2488 -0.7531  0.5880
  118OSM   H15A12338   2.989   0.586   6.082  2.8846 -1.6356  0.1365
  118OSM   H15B12339   3.018   0.658   5.935  1.6311 -2.1372 -0.0734
  118OSM   H15C12340   3.024   0.486   5.945  2.7932  1.1425  0.6343
  118OSM    C1412341   2.756   0.683   6.017 -0.6752  0.3024  0.2818
  118OSM   H14A12342   2.652   0.692   5.990 -1.0029  2.2677  2.0073
  118OSM   H14B12343   2.808   0.774   5.989  0.1045  0.4281  2.0293
  118OSM   H14C12344   2.757   0.662   6.123  0.3900 -0.8710  0.0500
  118OSM    C1312345   2.805   0.576   5.804  0.3759 -0.2404  0.4641
  118OSM   H13A12346   2.702   0.605   5.786  0.7875  0.1777 -1.3152
  118OSM   H13B12347   2.830   0.484   5.754  2.4241 -0.2451  1.4472
  118OSM   H13C12348   2.856   0.662   5.764 -0.0817 -1.7142 -3.4633
  118OSM    C1212349   2.776   0.436   6.009  0.4655  0.7990  0.2004
  118OSM   H12A12350   2.829   0.351   5.968 -4.1626 -2.5375  0.8102
  118OSM   H12B12351   2.673   0.430   5.979  0.4595 -1.5638  0.5762
  118OSM    C1112352   2.783   0.405   6.163 -0.5871  0.9135 -0.4741
  118OSM   H11A12353   2.889   0.416   6.192 -0.0532 -1.2710 -1.4700
  118OSM   H11B12354   2.757   0.298   6.180  2.5535  0.5482  2.5869
  118OSM      P12355   2.555   0.463   6.256 -0.0267 -0.1518  0.3200
  118OSM    O1312356   2.499   0.567   6.346 -0.1304  0.0218  0.6005
  118OSM    O1412357   2.492   0.427   6.131  0.6789  0.3968 -0.0800
  118OSM    O1112358   2.565   0.333   6.339  0.6376 -0.9870  0.2441
  118OSM    O1212359   2.711   0.495   6.247 -0.1838  0.2402  0.4701
  118OSM    C1S12360   2.638   0.320   6.457 -0.5005 -0.8342  0.0367
  118OSM    H1S12361   2.736   0.371   6.444 -1.6958  1.5746  0.1717
  118OSM    H1T12362   2.665   0.214   6.473  2.8304  0.0049  0.2332
  118OSM     NF12363   2.671   0.367   6.698 -0.8892  0.0749  0.0879
  118OSM    HNF12364   2.634   0.311   6.772  1.2910  0.3876  1.4544
  118OSM    C2S12365   2.579   0.384   6.582 -0.4416  0.5810  0.7755
  118OSM    H2S12366   2.570   0.494   6.572 -1.2687  0.3882 -0.7517
  118OSM    C3S12367   2.435   0.331   6.605 -0.1736  0.9766 -0.0823
  118OSM    H3S12368   2.439   0.223   6.631  1.1559  0.6526 -1.5560
  118OSM     O312369   2.338   0.346   6.502 -0.2388  0.1227 -0.1578
  118OSM    HO312370   2.384   0.415   6.454  1.5578 -0.2014  1.0567
  118OSM    C4S12371   2.389   0.401   6.727 -0.4017  0.1333 -0.0698
  118OSM    H4S12372   2.429   0.352   6.817 -0.3023  2.6268  1.2930
  118OSM    C5S12373   2.308   0.515   6.727 -0.3282  0.3023 -0.2690
  118OSM    H5S12374   2.275   0.554   6.630 -0.1155 -1.1683 -0.9344
  118OSM    C6S12375   2.234   0.597   6.839  0.5918 -0.5907 -0.7176
  118OSM    H6S12376   2.125   0.592   6.823  0.0994  3.8499  0.7780
  118OSM    H6T12377   2.258   0.705   6.845  0.8601 -0.7597  2.1278
  118OSM    C7S12378   2.280   0.544   6.980  0.0111  0.5929 -0.2849
  118OSM    H7S12379   2.384   0.575   7.005  0.3976  0.5840 -1.8657
  118OSM    H7T12380   2.276   0.433   6.985  3.0287  0.4153 -0.5788
  118OSM    C8S12381   2.194   0.607   7.091 -0.3930  0.4334 -0.1363
  118OSM    H8S12382   2.087   0.606   7.060 -0.1391  1.4908 -1.1081
  118OSM    H8T12383   2.211   0.715   7.108 -0.3700  0.1082  1.9704
  118OSM    C9S12384   2.213   0.537   7.224  0.8198  0.3134  0.2750
  118OSM    H9S12385   2.203   0.428   7.209  1.0086  0.2087  0.8690
  118OSM    H9T12386   2.143   0.570   7.304  0.6254  0.7730 -0.0824
  118OSM   C10S12387   2.361   0.538   7.275 -0.4432 -0.2707  0.0300
  118OSM   H10S12388   2.372   0.648   7.287  1.2956 -0.1578 -2.1394
  118OSM   H10T12389   2.436   0.499   7.202 -1.1373  2.3182 -2.1701
  118OSM   C11S12390   2.379   0.499   7.423 -0.1218 -0.0222 -0.4272
  118OSM   H11S12391   2.483   0.519   7.456  0.0815 -0.1430 -0.9933
  118OSM   H11T12392   2.367   0.388   7.421  1.2679 -0.1755 -0.3001
  118OSM   C12S12393   2.289   0.566   7.522 -0.1690  0.3161 -0.2538
  118OSM   H12S12394   2.182   0.544   7.501 -1.2592  3.5489  1.5796
  118OSM   H12T12395   2.309   0.674   7.505 -0.0446  0.0739 -1.7570
  118OSM   C13S12396   2.323   0.523   7.666  0.2979 -0.5796  0.1771
  118OSM   H13S12397   2.423   0.568   7.680  1.0042 -1.9738 -0.3177
  118OSM   H13T12398   2.335   0.413   7.671 -3.0692 -0.9972  0.0560
  118OSM   C14S12399   2.226   0.573   7.770 -0.3444 -0.1951  0.0731
  118OSM   H14S12400   2.132   0.515   7.766  0.4695 -1.4707 -1.0577
  118OSM   H14T12401   2.209   0.681   7.748  0.5547  0.2103  1.2935
  118OSM   C15S12402   2.277   0.556   7.910  0.2289  0.0872 -0.7794
  118OSM   H15S12403   2.313   0.451   7.912  1.6600  0.5481 -1.3960
  118OSM   H15T12404   2.214   0.569   8.001  2.9143 -1.1722  1.3462
  118OSM   C16S12405   2.386   0.661   7.939 -0.0747 -0.0772 -0.0798
  118OSM   H16S12406   2.465   0.667   7.861 -0.5512 -2.1116 -0.7699
  118OSM   H16T12407   2.434   0.619   8.030 -1.1507 -1.6386 -0.1996
  118OSM   C17S12408   2.328   0.798   7.966  0.0808  0.0201 -0.3087
  118OSM   H17S12409   2.241   0.792   8.035  1.8123 -1.4900  1.8463
  118OSM   H17T12410   2.276   0.838   7.877 -0.9572 -0.4668  0.0705
  118OSM   C18S12411   2.423   0.890   8.027  0.1747 -0.0249 -0.6546
  118OSM   H18S12412   2.450   0.865   8.132 -0.3480  2.0088 -0.0037
  118OSM   H18T12413   2.369   0.987   8.027  2.9439  1.6068 -1.8729
  118OSM   H18U12414   2.511   0.906   7.961 -0.4859 -0.5420 -1.6728
  118OSM    C1F12415   2.787   0.434   6.711 -0.6077  0.3614 -0.1240
  118OSM     OF12416   2.821   0.526   6.639  0.0179  0.7916  0.3355
  118OSM    C2F12417   2.864   0.388   6.825 -0.0588  0.0549  0.3874
  118OSM    H2F12418   2.885   0.279   6.819 -0.4298  0.0446 -0.8293
  118OSM    H2G12419   2.807   0.407   6.919 -1.9945  1.4764 -1.0341
  118OSM    C3F12420   3.002   0.453   6.830 -0.9904  0.2270 -0.3132
  118OSM    H3F12421   2.989   0.563   6.831 -2.1069  0.0930  0.9848
  118OSM    H3G12422   3.067   0.429   6.743  0.1418  1.5756  0.1411
  118OSM    C4F12423   3.075   0.399   6.949  0.2097 -0.8868 -0.2211
  118OSM    H4F12424   3.086   0.289   6.961  0.8957 -1.0491 -2.2083
  118OSM    H4G12425   3.023   0.423   7.044  1.2207 -0.1671  0.1677
  118OSM    C5F12426   3.209   0.459   6.958 -0.4192  0.3047  0.6207
  118OSM    H5F12427   3.215   0.567   6.984  1.1725  0.3251  0.2420
  118OSM    H5G12428   3.275   0.461   6.869 -3.1299 -0.9623 -1.4781
  118OSM    C6F12429   3.300   0.386   7.067  0.2321  0.3242 -0.6166
  118OSM    H6F12430   3.410   0.404   7.060  0.5857 -0.8986  1.5105
  118OSM    H6G12431   3.282   0.278   7.053  1.4732  0.1274 -0.7164
  118OSM    C7F12432   3.251   0.412   7.210  0.5768  1.0038 -0.4418
  118OSM    H7F12433   3.163   0.348   7.228  2.2520 -0.6401  2.3223
  118OSM    H7G12434   3.217   0.518   7.210 -1.3873  0.3939  0.7921
  118OSM    C8F12435   3.354   0.389   7.322 -0.4627 -0.6261 -0.2419
  118OSM    H8F12436   3.321   0.442   7.414  0.8226 -0.5725  0.2079
  118OSM    H8G12437   3.451   0.438   7.296  1.9464 -3.7683  2.3569
  118OSM    C9F12438   3.383   0.248   7.350 -0.0705 -0.0288 -0.0750
  118OSM    H9F12439   3.450   0.200   7.277  1.2451 -0.0717  1.1347
  118OSM   C10F12440   3.321   0.167   7.447 -0.5534 -0.1908  1.0689
  118OSM   H10F12441   3.351   0.061   7.442  1.7459  0.5230 -0.6635
  118OSM   C11F12442   3.222   0.214   7.543  0.8958  0.2850  0.2463
  118OSM   H11F12443   3.119   0.182   7.516  0.5036 -1.2685  3.3591
  118OSM   H11G12444   3.211   0.324   7.542 -1.3462  0.0856 -0.7008
  118OSM   C12F12445   3.259   0.178   7.693 -0.4755  0.0955 -0.1198
  118OSM   H12F12446   3.302   0.076   7.695 -1.8034 -0.4638  1.3213
  118OSM   H12G12447   3.171   0.167   7.761  0.8170  0.3750  1.6438
  118OSM   C13F12448   3.358   0.288   7.750  0.3900  0.0526  0.1178
  118OSM   H13F12449   3.306   0.381   7.781 -1.8059 -0.4581 -1.9394
  118OSM   H13G12450   3.429   0.322   7.672 -1.4035  1.2497 -1.0012
  118OSM   C14F12451   3.432   0.227   7.866  0.2237 -0.7650  0.8071
  118OSM   H14F12452   3.516   0.299   7.881  0.4732 -1.3568  2.3188
  118OSM   H14G12453   3.473   0.132   7.826  1.8521  1.0647 -2.0964
  118OSM   C15F12454   3.338   0.197   7.981 -0.1143 -0.1349 -0.2812
  118OSM   H15F12455   3.397   0.136   8.052 -0.0025  0.4022  0.0834
  118OSM   H15G12456   3.259   0.134   7.935 -0.4850  0.2051 -0.1149
  118OSM   C16F12457   3.292   0.308   8.072 -0.0773 -0.2494  0.6749
  118OSM   H16F12458   3.246   0.385   8.007  2.3713  0.8127  0.1273
  118OSM   H16G12459   3.382   0.353   8.120 -0.6434 -0.6245  2.1175
  118OSM   C17F12460   3.196   0.280   8.183 -0.4770 -0.7342  0.3139
  118OSM   H17F12461   3.165   0.382   8.217  0.5013 -0.5008  0.5255
  118OSM   H17G12462   3.235   0.236   8.277  0.7389  2.9790  1.6340
  118OSM   C18F12463   3.068   0.200   8.154 -0.6794 -0.1160 -0.3450
  118OSM   H18F12464   2.990   0.227   8.228 -0.2635  2.7463 -0.9093
  118OSM   H18G12465   3.089   0.091   8.159 -0.0856 -0.0526 -1.4258
  118OSM   H18H12466   3.019   0.228   8.058  2.0110  0.9348 -1.4334
  119OSM      N12467   3.764   5.619   5.962  0.6298 -0.1227  0.2284
  119OSM    C1512468   3.793   5.473   5.959  0.1712 -0.5447 -0.1330
  119OSM   H15A12469   3.836   5.455   5.861 -1.8747  0.3933 -1.2273
  119OSM   H15B12470   3.710   5.405   5.961 -0.5998  0.3828 -0.3582
  119OSM   H15C12471   3.877   5.447   6.021  0.3979  0.1819 -0.1329
  119OSM    C1412472   3.900   5.683   5.975 -0.5695 -0.7945 -0.4374
  119OSM   H14A12473   3.900   5.790   5.988  1.9036 -0.9643  1.2175
  119OSM   H14B12474   3.957   5.681   5.884  0.9561 -0.6068  0.5005
  119OSM   H14C12475   3.962   5.647   6.055 -0.7609 -0.2903 -0.0581
  119OSM    C1312476   3.708   5.670   5.829  0.1480  0.4686  0.4051
  119OSM   H13A12477   3.692   5.776   5.839 -0.4843  0.3760  0.3885
  119OSM   H13B12478   3.613   5.624   5.807 -1.2635  3.0145  0.9960
  119OSM   H13C12479   3.787   5.652   5.757 -3.2514 -2.6877 -2.7772
  119OSM    C1212480   3.660   5.649   6.068 -0.0349 -0.1684 -0.7567
  119OSM   H12A12481   3.672   5.592   6.159 -2.0245  0.1535 -0.2580
  119OSM   H12B12482   3.565   5.617   6.026 -0.6733  3.1816 -2.0406
  119OSM    C1112483   3.634   5.791   6.109 -0.2931  0.5332 -0.2917
  119OSM   H11A12484   3.708   5.824   6.184  0.2534 -3.0465  0.8423
  119OSM   H11B12485   3.544   5.785   6.174  1.0078 -0.4366  1.4465
  119OSM      P12486   3.687   6.004   5.970 -0.0138 -0.3947  0.5519
  119OSM    O1312487   3.827   5.981   5.930  0.1083  0.2674  0.0156
  119OSM    O1412488   3.606   6.080   5.876 -0.2336  0.0537 -0.3407
  119OSM    O1112489   3.680   6.091   6.109 -0.0222  0.0772 -0.2005
  119OSM    O1212490   3.610   5.877   5.999 -0.2407  0.2041  0.2267
  119OSM    C1S12491   3.798   6.115   6.182  0.2850 -0.3390 -0.0971
  119OSM    H1S12492   3.872   6.177   6.128 -0.0892  0.3952  0.2260
  119OSM    H1T12493   3.847   6.020   6.213 -1.0766 -1.1665 -0.4223
  119OSM     NF12494   3.882   6.227   6.380 -0.1493 -0.1413 -0.3486
  119OSM    HNF12495   3.924   6.181   6.459 -0.8540 -1.4289 -0.7172
  119OSM    C2S12496   3.760   6.175   6.320  0.0659 -0.0793 -0.1163
  119OSM    H2S12497   3.696   6.265   6.308  0.6484  0.5684  1.4207
  119OSM    C3S12498   3.698   6.070   6.415 -0.0278  0.2334  0.5730
  119OSM    H3S12499   3.745   5.970   6.425 -1.1865 -0.7143 -2.7193
  119OSM     O312500   3.572   6.020   6.360 -0.3453  0.0553 -0.2038
  119OSM    HO312501   3.573   6.060   6.274  2.6298  0.8884  0.1699
  119OSM    C4S12502   3.676   6.136   6.545 -0.0463  0.0336 -0.7790
  119OSM    H4S12503   3.771   6.125   6.598  0.9476 -0.0153 -2.5223
  119OSM    C5S12504   3.575   6.215   6.593  0.5246  0.2616 -0.5402
  119OSM    H5S12505   3.482   6.204   6.534  0.1576 -1.7980  0.3839
  119OSM    C6S12506   3.559   6.270   6.732 -0.1801 -0.4037  0.1366
  119OSM    H6S12507   3.451   6.291   6.742 -0.2467 -1.4635  1.7238
  119OSM    H6T12508   3.615   6.366   6.743  0.6540 -0.9687  0.8670
  119OSM    C7S12509   3.615   6.175   6.847  0.1846 -0.6874  0.0165
  119OSM    H7S12510   3.723   6.156   6.831  0.2369  0.4171 -1.0057
  119OSM    H7T12511   3.560   6.079   6.832 -0.6574 -0.4407  1.5059
  119OSM    C8S12512   3.598   6.231   6.989  1.7298 -1.0081  0.1562
  119OSM    H8S12513   3.683   6.300   7.005  1.3745  0.0092 -2.1071
  119OSM    H8T12514   3.604   6.148   7.063 -0.8562 -0.4985  0.9766
  119OSM    C9S12515   3.462   6.304   7.019  0.2445 -0.3205  0.6783
  119OSM    H9S12516   3.381   6.227   7.028 -0.7136  0.4937 -0.8333
  119OSM    H9T12517   3.428   6.372   6.939 -2.1919 -1.8580  0.3405
  119OSM   C10S12518   3.471   6.382   7.150 -0.4505 -0.1492  0.3452
  119OSM   H10S12519   3.374   6.436   7.154  0.1649  0.9124  1.5473
  119OSM   H10T12520   3.556   6.453   7.157  0.8231 -1.3828 -2.1154
  119OSM   C11S12521   3.477   6.286   7.276  0.1015  0.1154  0.2516
  119OSM   H11S12522   3.557   6.209   7.279  2.3460  2.2901 -1.1554
  119OSM   H11T12523   3.382   6.230   7.282  1.2165 -1.8257  0.1232
  119OSM   C12S12524   3.491   6.362   7.402 -0.1871  0.8585 -0.4418
  119OSM   H12S12525   3.408   6.429   7.432 -0.7295 -0.0462  0.1015
  119OSM   H12T12526   3.588   6.417   7.397  2.0151 -2.7584  0.1217
  119OSM   C13S12527   3.513   6.275   7.533  0.5817 -0.7956 -0.2054
  119OSM   H13S12528   3.612   6.228   7.510  0.2104 -1.6046 -0.1668
  119OSM   H13T12529   3.437   6.195   7.540  0.3679 -0.3785  3.1797
  119OSM   C14S12530   3.510   6.365   7.657  0.0203  0.6674  0.0852
  119OSM   H14S12531   3.409   6.406   7.677 -0.0196  0.6240 -0.0233
  119OSM   H14T12532   3.583   6.448   7.655  1.0575 -0.1464  2.3185
  119OSM   C15S12533   3.537   6.269   7.779  0.2019  0.4076  0.4291
  119OSM   H15S12534   3.626   6.203   7.771 -0.4089 -0.9457  3.9327
  119OSM   H15T12535   3.448   6.204   7.785  0.3890  0.0053 -0.8760
  119OSM   C16S12536   3.539   6.339   7.918  0.0467  0.8765 -0.1145
  119OSM   H16S12537   3.441   6.389   7.933  0.0024  0.6389  0.4035
  119OSM   H16T12538   3.619   6.416   7.911 -0.1583  1.3209  2.0892
  119OSM   C17S12539   3.553   6.232   8.029  0.7046 -0.5068 -0.2629
  119OSM   H17S12540   3.637   6.169   7.994  1.2910 -0.5222  1.1227
  119OSM   H17T12541   3.456   6.179   8.019  0.3891  0.1250 -0.5620
  119OSM   C18S12542   3.586   6.292   8.167 -0.7996 -0.0553  0.2672
  119OSM   H18S12543   3.598   6.213   8.244 -0.3153 -0.2696 -0.0315
  119OSM   H18T12544   3.507   6.356   8.213 -0.7264 -0.7285  1.3438
  119OSM   H18U12545   3.676   6.357   8.161  0.7948 -2.2076  0.6212
  119OSM    C1F12546   3.953   6.323   6.330  0.0217 -0.0636 -0.0056
  119OSM     OF12547   3.911   6.396   6.233 -0.6332 -0.4778 -0.0988
  119OSM    C2F12548   4.076   6.349   6.388  0.1589  0.3103 -0.4080
  119OSM    H2F12549   4.151   6.352   6.306  0.4541  2.6589 -0.0990
  119OSM    H2G12550   4.101   6.276   6.468  0.9824  2.0389  0.9459
  119OSM    C3F12551   4.091   6.484   6.467 -0.1099 -0.1684 -0.2783
  119OSM    H3F12552   4.070   6.571   6.401  1.8939  1.4393  1.1471
  119OSM    H3G12553   4.198   6.489   6.495  0.1259  0.8930 -1.3249
  119OSM    C4F12554   4.013   6.483   6.600 -0.9500 -0.3200 -0.4513
  119OSM    H4F12555   3.908   6.448   6.588 -0.8933 -0.0113 -1.9573
  119OSM    H4G12556   4.018   6.586   6.640 -1.2310 -0.2710 -0.5461
  119OSM    C5F12557   4.087   6.405   6.713  0.1305  0.4065  0.2485
  119OSM    H5F12558   4.188   6.451   6.724  0.1073  0.5472 -0.1192
  119OSM    H5G12559   4.092   6.299   6.679 -1.2402  1.0735 -2.1455
  119OSM    C6F12560   4.023   6.413   6.860 -0.6903  0.0660  0.5926
  119OSM    H6F12561   4.061   6.325   6.916 -2.1984 -0.3677  0.9635
  119OSM    H6G12562   3.913   6.399   6.850 -0.4415 -1.2340 -0.5860
  119OSM    C7F12563   4.072   6.537   6.926 -0.1005 -0.0792  0.3200
  119OSM    H7F12564   4.065   6.623   6.857 -1.4710 -0.5601 -0.1703
  119OSM    H7G12565   4.177   6.536   6.962 -0.0162 -0.3408  0.0728
  119OSM    C8F12566   3.997   6.563   7.061  0.3933 -0.3465  0.1956
  119OSM    H8F12567   3.898   6.593   7.021 -0.5989 -0.7248  2.2960
  119OSM    H8G12568   4.036   6.657   7.106 -1.8189  0.5469  0.3005
  119OSM    C9F12569   3.974   6.444   7.154 -0.0877  0.0304  0.5904
  119OSM    H9F12570   3.902   6.376   7.107  0.2569  0.6046 -0.7749
  119OSM   C10F12571   4.030   6.418   7.268 -0.3113 -0.0522 -0.0807
  119OSM   H10F12572   4.002   6.322   7.316 -0.0343  1.1399  2.5756
  119OSM   C11F12573   4.125   6.514   7.328 -0.2328  0.5558 -0.1800
  119OSM   H11F12574   4.075   6.572   7.409  1.7290  0.5943  1.0194
  119OSM   H11G12575   4.167   6.584   7.252 -2.4182 -0.0815 -2.0573
  119OSM   C12F12576   4.243   6.445   7.406 -0.3113  0.6442 -0.2563
  119OSM   H12F12577   4.309   6.376   7.349 -0.2178  1.1029 -0.7074
  119OSM   H12G12578   4.201   6.379   7.485  3.7193 -1.3106  0.4012
  119OSM   C13F12579   4.337   6.557   7.464 -0.4412 -0.1713  0.2880
  119OSM   H13F12580   4.284   6.627   7.532  0.0786 -1.0416  1.6137
  119OSM   H13G12581   4.366   6.622   7.378  1.6059 -0.1965  0.9156
  119OSM   C14F12582   4.456   6.506   7.547 -0.2301 -0.4232 -0.4650
  119OSM   H14F12583   4.494   6.423   7.484  0.6694  0.3272 -0.9282
  119OSM   H14G12584   4.413   6.453   7.635  1.1753 -0.3381  0.2855
  119OSM   C15F12585   4.562   6.615   7.576 -0.5687 -0.1693  0.9146
  119OSM   H15F12586   4.505   6.701   7.618 -1.9176 -0.6529  0.1124
  119OSM   H15G12587   4.631   6.635   7.492  0.0351  1.1527  1.6956
  119OSM   C16F12588   4.658   6.570   7.694 -0.4089 -0.0498  0.4651
  119OSM   H16F12589   4.704   6.478   7.653 -1.6845 -0.1568 -0.7705
  119OSM   H16G12590   4.597   6.530   7.778  0.7870  0.8496  1.7929
  119OSM   C17F12591   4.766   6.668   7.744  0.5824 -0.3800  0.1722
  119OSM   H17F12592   4.801   6.620   7.838 -0.7674 -0.5082  0.6242
  119OSM   H17G12593   4.717   6.766   7.763  0.2346 -0.2176 -1.4841
  119OSM   C18F12594   4.889   6.680   7.655  0.0103  0.3220  0.9580
  119OSM   H18F12595   4.939   6.585   7.627 -0.8575  0.6437 -1.8427
  119OSM   H18G12596   4.972   6.748   7.686  1.7078  0.0553 -2.7353
  119OSM   H18H12597   4.860   6.726   7.558  0.4253 -0.6551  0.3669
  120OSM      N12598   1.562   3.530   6.204 -0.2129  0.0294 -0.4328
  120OSM    C1512599   1.579   3.679   6.226 -0.2713 -0.7271 -0.5848
  120OSM   H15A12600   1.613   3.696   6.327  0.7140 -1.7304 -0.7266
  120OSM   H15B12601   1.482   3.724   6.216  0.1291  0.4517  0.7183
  120OSM   H15C12602   1.638   3.729   6.151 -3.4495  0.6008 -2.2457
  120OSM    C1412603   1.497   3.516   6.074  0.4704  0.9949  0.2473
  120OSM   H14A12604   1.563   3.549   5.996  0.8535 -0.5572 -0.1040
  120OSM   H14B12605   1.403   3.568   6.084 -0.1855 -0.2731  0.7780
  120OSM   H14C12606   1.468   3.415   6.048  2.0811  0.8677 -1.1301
  120OSM    C1312607   1.696   3.454   6.199 -0.0969  0.3153  0.5032
  120OSM   H13A12608   1.750   3.464   6.292  1.7478  0.8176 -0.6037
  120OSM   H13B12609   1.762   3.498   6.126 -0.4060 -1.7930 -1.1097
  120OSM   H13C12610   1.674   3.354   6.165  1.6363  0.5564 -1.4187
  120OSM    C1212611   1.471   3.478   6.314  0.5827  0.2575  0.2427
  120OSM   H12A12612   1.535   3.491   6.400  1.7010 -0.5910 -0.4452
  120OSM   H12B12613   1.450   3.373   6.298 -0.4421  0.4161  0.4932
  120OSM    C1112614   1.326   3.537   6.342 -0.6098 -1.0286  0.2128
  120OSM   H11A12615   1.279   3.479   6.424 -0.1467  1.0462  1.9635
  120OSM   H11B12616   1.262   3.522   6.252 -1.3284 -0.4468  0.6282
  120OSM      P12617   1.380   3.730   6.511 -0.0522  0.1014  0.2912
  120OSM    O1312618   1.502   3.819   6.502 -0.3659  0.2822 -0.5302
  120OSM    O1412619   1.258   3.784   6.576  0.0719 -0.1696 -0.2054
  120OSM    O1112620   1.423   3.594   6.588 -0.0327  0.4140  0.3257
  120OSM    O1212621   1.334   3.676   6.370 -0.5685 -0.6865 -0.5899
  120OSM    C1S12622   1.522   3.594   6.693 -0.4719  0.3464 -0.8658
  120OSM    H1S12623   1.550   3.696   6.726  2.6834 -1.3137  1.9500
  120OSM    H1T12624   1.620   3.553   6.659 -0.6369  0.3639 -1.3675
  120OSM     NF12625   1.571   3.574   6.932  0.2546  0.0088 -0.2446
  120OSM    HNF12626   1.641   3.503   6.938 -1.6307 -1.9558 -0.9706
  120OSM    C2S12627   1.474   3.538   6.829 -0.0618  0.2545 -0.5349
  120OSM    H2S12628   1.380   3.591   6.855  0.2159  0.2618  0.4850
  120OSM    C3S12629   1.434   3.387   6.825  0.1766 -0.8336 -0.5396
  120OSM    H3S12630   1.531   3.338   6.799  0.4221 -0.7001  0.1231
  120OSM     O312631   1.337   3.353   6.723  0.1865 -0.1762  0.2157
  120OSM    HO312632   1.342   3.431   6.668  0.7235  0.5124  1.2387
  120OSM    C4S12633   1.392   3.329   6.959  0.2775  0.4950 -0.3734
  120OSM    H4S12634   1.472   3.273   7.009 -0.0139  0.3779 -0.0357
  120OSM    C5S12635   1.268   3.333   7.019  0.4755  0.5122 -0.1347
  120OSM    H5S12636   1.183   3.374   6.963 -0.2465  0.5690  0.9877
  120OSM    C6S12637   1.250   3.270   7.149  0.0750  0.4919  0.1817
  120OSM    H6S12638   1.223   3.162   7.139 -0.6538  0.6551  0.3859
  120OSM    H6T12639   1.159   3.314   7.194 -0.5256 -0.0925 -0.4445
  120OSM    C7S12640   1.361   3.271   7.248  0.0220 -0.0265 -0.3750
  120OSM    H7S12641   1.414   3.368   7.260  0.9323 -1.0510  5.1977
  120OSM    H7T12642   1.441   3.201   7.214 -0.6643 -1.2293  0.4677
  120OSM    C8S12643   1.320   3.228   7.394 -0.1217  1.0047 -0.3703
  120OSM    H8S12644   1.296   3.120   7.382  1.1817  1.0224 -3.9753
  120OSM    H8T12645   1.233   3.289   7.427 -0.0762  1.7050 -1.5154
  120OSM    C9S12646   1.428   3.257   7.504 -1.1664 -0.6049  0.0200
  120OSM    H9S12647   1.462   3.362   7.510 -0.6119 -0.6968 -1.4334
  120OSM    H9T12648   1.517   3.195   7.476 -1.3160 -1.1465  0.7080
  120OSM   C10S12649   1.384   3.211   7.645  0.4633  0.1257  0.0719
  120OSM   H10S12650   1.363   3.103   7.633  2.8235 -0.3318 -0.1642
  120OSM   H10T12651   1.293   3.271   7.665 -1.3314 -1.7313 -2.2322
  120OSM   C11S12652   1.493   3.234   7.747  0.0169  0.3042  0.2145
  120OSM   H11S12653   1.508   3.343   7.758  1.2178  0.5346 -3.1218
  120OSM   H11T12654   1.586   3.177   7.724 -0.5166 -0.3392 -0.3673
  120OSM   C12S12655   1.450   3.192   7.884 -0.2899 -0.4498  0.1529
  120OSM   H12S12656   1.523   3.226   7.961 -0.5555 -0.5136  0.4341
  120OSM   H12T12657   1.451   3.081   7.893  2.7167 -0.4112  1.0813
  120OSM   C13S12658   1.321   3.252   7.927  0.0649  0.2651  0.5821
  120OSM   H13S12659   1.240   3.233   7.853  0.9384 -0.8673 -0.0942
  120OSM   H13T12660   1.324   3.362   7.940  1.9742  0.1156  1.6271
  120OSM   C14S12661   1.277   3.192   8.065  0.1530 -0.0290 -0.4811
  120OSM   H14S12662   1.346   3.198   8.152  1.3778 -0.6686 -1.3965
  120OSM   H14T12663   1.251   3.085   8.051 -2.5553 -0.1333  4.2017
  120OSM   C15S12664   1.153   3.272   8.097  0.2199  0.2267 -0.0786
  120OSM   H15S12665   1.074   3.257   8.021  0.7169 -0.4446 -0.4632
  120OSM   H15T12666   1.176   3.379   8.116 -0.4369  0.6401 -1.6081
  120OSM   C16S12667   1.087   3.221   8.229 -1.0618 -0.2057  0.3667
  120OSM   H16S12668   1.161   3.205   8.310 -1.5074  1.2194  1.0633
  120OSM   H16T12669   1.047   3.118   8.214 -1.2689 -0.0655 -0.0351
  120OSM   C17S12670   0.962   3.302   8.282  0.1428  0.9556  0.1939
  120OSM   H17S12671   0.887   3.318   8.201  0.3697  0.9812 -0.0116
  120OSM   H17T12672   0.986   3.401   8.325  0.1980  0.4341  1.3922
  120OSM   C18S12673   0.883   3.221   8.379  0.3792  0.7997 -0.1882
  120OSM   H18S12674   0.946   3.178   8.460 -0.2580 -2.3895 -1.3107
  120OSM   H18T12675   0.854   3.131   8.321  0.6736  0.6993 -0.1749
  120OSM   H18U12676   0.795   3.273   8.423  0.4922 -0.2463  1.3445
  120OSM    C1F12677   1.595   3.699   6.968 -0.0606  0.4762  0.6113
  120OSM     OF12678   1.517   3.792   6.940  0.0574  0.4365  0.0890
  120OSM    C2F12679   1.731   3.727   7.013 -0.2563  0.3720  0.5633
  120OSM    H2F12680   1.798   3.680   6.938 -1.0300  0.3174 -0.1016
  120OSM    H2G12681   1.750   3.675   7.109  2.1559  1.1197  0.5169
  120OSM    C3F12682   1.764   3.874   7.034 -0.0711 -0.4102 -0.4679
  120OSM    H3F12683   1.707   3.903   7.124 -0.2282 -1.1585 -0.3174
  120OSM    H3G12684   1.724   3.922   6.942 -3.5329 -0.7164  0.8080
  120OSM    C4F12685   1.912   3.909   7.062 -0.4293 -0.6343  0.3860
  120OSM    H4F12686   1.930   4.013   7.096  0.4634 -0.3409 -0.9156
  120OSM    H4G12687   1.972   3.895   6.969 -1.2968 -1.7124 -0.0224
  120OSM    C5F12688   1.977   3.814   7.160  0.5649 -0.1606  0.4133
  120OSM    H5F12689   2.088   3.823   7.169  0.8585 -1.0236 -1.7828
  120OSM    H5G12690   1.945   3.715   7.120 -0.9000  0.2387  0.5726
  120OSM    C6F12691   1.931   3.843   7.301  0.4258 -0.4575 -0.2994
  120OSM    H6F12692   1.821   3.825   7.307  0.2822 -0.0882 -1.6858
  120OSM    H6G12693   1.936   3.954   7.310 -0.5084 -0.5587  1.7490
  120OSM    C7F12694   2.015   3.787   7.417 -0.4006 -0.0070 -0.7004
  120OSM    H7F12695   2.108   3.847   7.426 -1.6441  2.3283 -2.8616
  120OSM    H7G12696   2.042   3.682   7.393 -0.1665 -0.0760 -0.1641
  120OSM    C8F12697   1.945   3.783   7.553 -0.4473  0.1987  0.4756
  120OSM    H8F12698   1.993   3.718   7.629  0.0076  0.3747  0.3437
  120OSM    H8G12699   1.849   3.731   7.531  0.7953 -2.0844  0.3160
  120OSM    C9F12700   1.917   3.917   7.621  0.3065 -0.3512  0.1471
  120OSM    H9F12701   1.827   3.973   7.594  0.0680  0.2238  2.0168
  120OSM   C10F12702   2.010   3.982   7.701 -0.3782 -0.4355  0.3208
  120OSM   H10F12703   1.979   4.082   7.735  0.1584 -0.2724  0.3349
  120OSM   C11F12704   2.147   3.935   7.737 -0.0723 -0.9617 -0.1185
  120OSM   H11F12705   2.218   4.013   7.700  1.4955 -1.0204  2.6272
  120OSM   H11G12706   2.166   3.836   7.692 -1.4688 -0.5110 -1.7489
  120OSM   C12F12707   2.171   3.939   7.886  0.0014  0.8365 -0.0424
  120OSM   H12F12708   2.140   4.029   7.942  3.5610  2.0257  0.1118
  120OSM   H12G12709   2.280   3.931   7.905  0.1696 -0.9826 -1.5873
  120OSM   C13F12710   2.112   3.817   7.957  0.0221  0.6566  0.1957
  120OSM   H13F12711   2.134   3.731   7.890 -2.7709  1.1491 -1.4461
  120OSM   H13G12712   2.003   3.828   7.974 -0.0075 -1.4365  1.5322
  120OSM   C14F12713   2.163   3.771   8.099 -0.8488 -0.8956 -0.3008
  120OSM   H14F12714   2.121   3.848   8.168  0.9071  0.0946 -0.2921
  120OSM   H14G12715   2.274   3.781   8.109 -1.3155  2.0039  3.3113
  120OSM   C15F12716   2.129   3.644   8.163 -0.6503 -0.2068  0.1895
  120OSM   H15F12717   2.189   3.559   8.124 -0.3473  0.4222 -0.7499
  120OSM   H15G12718   2.025   3.620   8.131 -1.2361 -0.1962  2.0267
  120OSM   C16F12719   2.166   3.643   8.308 -0.0446  0.3129  0.3348
  120OSM   H16F12720   2.129   3.737   8.354 -1.3191  0.1486 -0.3409
  120OSM   H16G12721   2.276   3.655   8.324 -0.2388  0.1046  1.8549
  120OSM   C17F12722   2.102   3.525   8.392 -0.4021 -0.1496  0.7845
  120OSM   H17F12723   2.135   3.431   8.343 -2.3102 -1.6309  2.2521
  120OSM   H17G12724   1.991   3.526   8.385 -0.3007 -1.4135 -1.6909
  120OSM   C18F12725   2.150   3.516   8.533 -0.8317  0.7503  0.5962
  120OSM   H18F12726   2.094   3.437   8.587 -0.3548  0.2342  0.3410
  120OSM   H18G12727   2.146   3.615   8.584  0.4780 -0.6180  3.4827
  120OSM   H18H12728   2.254   3.478   8.524 -0.7489  1.1205 -0.0449
  121OSM      N12729   3.242   5.873   5.924 -0.3146 -0.0621  0.2417
  121OSM    C1512730   3.262   6.007   5.852  0.3217 -0.2382  0.0060
  121OSM   H15A12731   3.205   6.090   5.890 -0.1502 -0.9680  0.9210
  121OSM   H15B12732   3.247   6.002   5.745 -1.2562  1.8303  0.0992
  121OSM   H15C12733   3.366   6.029   5.868  0.0564 -1.5377  3.9735
  121OSM    C1412734   3.332   5.759   5.870 -0.1851 -0.2865 -0.9038
  121OSM   H14A12735   3.297   5.669   5.917  2.8279 -0.6657  0.7205
  121OSM   H14B12736   3.435   5.768   5.902 -0.2942 -0.0651 -0.6134
  121OSM   H14C12737   3.322   5.760   5.762 -1.6592 -0.6843 -0.7754
  121OSM    C1312738   3.276   5.901   6.060  0.0922  0.8031 -0.2221
  121OSM   H13A12739   3.375   5.943   6.072 -0.2327  1.5362 -0.1055
  121OSM   H13B12740   3.265   5.819   6.129  1.2320  0.9006  0.0849
  121OSM   H13C12741   3.211   5.978   6.096 -2.1938 -1.0213 -0.3367
  121OSM    C1212742   3.096   5.832   5.915 -0.4502  0.0707  0.2770
  121OSM   H12A12743   3.074   5.808   5.812 -0.0592  1.3025 -0.1026
  121OSM   H12B12744   3.039   5.919   5.945  0.7209  1.6648 -1.9133
  121OSM    C1112745   3.054   5.724   6.009  0.3138  0.1275  0.0593
  121OSM   H11A12746   2.943   5.720   6.013  0.3219  0.7501  0.8071
  121OSM   H11B12747   3.093   5.748   6.110  1.2383 -0.4854 -0.1420
  121OSM      P12748   3.058   5.464   6.030 -0.4383  0.1340  0.0078
  121OSM    O1312749   2.917   5.451   5.994  0.2237  0.4315  0.3961
  121OSM    O1412750   3.150   5.354   5.988 -0.1827 -0.6666  0.2458
  121OSM    O1112751   3.085   5.490   6.180 -0.3232  0.2393 -0.1284
  121OSM    O1212752   3.110   5.606   5.960 -0.0497 -0.0544  0.3385
  121OSM    C1S12753   3.213   5.507   6.237 -0.1917  0.0847 -0.0858
  121OSM    H1S12754   3.250   5.600   6.190  0.8369 -1.0880 -1.6700
  121OSM    H1T12755   3.291   5.430   6.217 -0.1979 -0.2991  1.3384
  121OSM     NF12756   3.328   5.563   6.462  0.4199 -0.0763 -0.3807
  121OSM    HNF12757   3.382   5.502   6.519  0.6268  0.2906 -0.1862
  121OSM    C2S12758   3.200   5.521   6.389  0.2751 -0.3607  0.4142
  121OSM    H2S12759   3.128   5.605   6.403  0.2495 -0.5632  1.5147
  121OSM    C3S12760   3.137   5.400   6.463 -0.4662 -0.4142  0.3644
  121OSM    H3S12761   3.214   5.320   6.454  0.5144  0.4645  0.8152
  121OSM     O312762   3.020   5.347   6.401 -0.2239 -0.0783  0.4600
  121OSM    HO312763   3.051   5.347   6.310  0.2418  2.2534  0.5788
  121OSM    C4S12764   3.111   5.438   6.602  0.2473  0.6607 -0.9604
  121OSM    H4S12765   3.064   5.537   6.618  3.8796  2.3954 -0.4414
  121OSM    C5S12766   3.146   5.366   6.710  0.4883 -0.0181 -0.5566
  121OSM    H5S12767   3.208   5.276   6.699  1.3245  0.1914  2.1274
  121OSM    C6S12768   3.117   5.404   6.853  0.1191 -0.1470  0.1971
  121OSM    H6S12769   3.118   5.514   6.872  1.2315 -0.2910  1.0424
  121OSM    H6T12770   3.187   5.360   6.927 -1.3558 -0.5913  1.3450
  121OSM    C7S12771   2.974   5.348   6.900  0.7238  0.4746  0.2374
  121OSM    H7S12772   2.981   5.244   6.937  1.3502  0.5617  0.3738
  121OSM    H7T12773   2.903   5.352   6.815 -1.0573  0.9051  1.7149
  121OSM    C8S12774   2.917   5.430   7.011  0.5148 -0.3731 -0.2690
  121OSM    H8S12775   2.817   5.396   7.045  2.0990 -0.9202  4.3110
  121OSM    H8T12776   2.897   5.530   6.969 -1.8732 -0.8917 -0.4184
  121OSM    C9S12777   3.001   5.441   7.143 -0.5111  0.2925 -0.0680
  121OSM    H9S12778   3.106   5.471   7.120  0.0513 -0.6632  1.1860
  121OSM    H9T12779   3.004   5.342   7.194 -1.2103 -0.5682 -1.6774
  121OSM   C10S12780   2.959   5.534   7.253  0.0121 -0.1886 -0.5018
  121OSM   H10S12781   2.852   5.512   7.275 -0.5163  1.7548 -1.0783
  121OSM   H10T12782   2.960   5.639   7.215  1.9174  0.0267  0.0693
  121OSM   C11S12783   3.052   5.504   7.368 -0.2522 -0.6652 -0.0119
  121OSM   H11S12784   3.154   5.500   7.324  0.9933  0.9108  2.6144
  121OSM   H11T12785   3.022   5.407   7.415  0.4204  0.2953  2.4811
  121OSM   C12S12786   3.053   5.608   7.472 -0.3250  0.5410 -0.3343
  121OSM   H12S12787   2.953   5.653   7.486  0.0117  1.1352  0.1815
  121OSM   H12T12788   3.113   5.693   7.434 -4.2166  3.7500  0.4012
  121OSM   C13S12789   3.094   5.550   7.609 -0.1791  0.4406 -0.0234
  121OSM   H13S12790   3.201   5.523   7.602 -0.2362  0.3987 -0.8138
  121OSM   H13T12791   3.041   5.459   7.643  0.1746 -0.1935 -1.1400
  121OSM   C14S12792   3.079   5.648   7.722 -0.4836 -0.0547  0.3165
  121OSM   H14S12793   2.970   5.664   7.738 -1.0152 -1.0035 -2.0841
  121OSM   H14T12794   3.137   5.738   7.691  2.5111 -1.8491  0.5294
  121OSM   C15S12795   3.132   5.594   7.856  0.0469 -0.5505 -0.4640
  121OSM   H15S12796   3.243   5.600   7.856 -0.0153  1.7013  2.9409
  121OSM   H15T12797   3.108   5.486   7.865  0.9577 -1.0468 -3.5211
  121OSM   C16S12798   3.073   5.667   7.980  0.0132  0.7001  0.2265
  121OSM   H16S12799   2.965   5.642   7.981  0.0778  0.0689 -2.9274
  121OSM   H16T12800   3.091   5.774   7.955  1.7549  0.6169  1.0574
  121OSM   C17S12801   3.146   5.634   8.101 -0.2102  0.2062 -0.6037
  121OSM   H17S12802   3.256   5.647   8.092 -0.1338 -0.4494 -0.6408
  121OSM   H17T12803   3.137   5.526   8.127 -1.8716  0.4019 -0.3518
  121OSM   C18S12804   3.102   5.705   8.227 -0.4557 -0.3995  0.3381
  121OSM   H18S12805   3.133   5.644   8.315  1.0209 -0.4389 -0.1802
  121OSM   H18T12806   2.992   5.707   8.222 -0.3496  2.9080 -3.0716
  121OSM   H18U12807   3.144   5.808   8.221 -1.9980  0.2683  0.9118
  121OSM    C1F12808   3.376   5.684   6.437 -0.1228 -0.1689 -0.1371
  121OSM     OF12809   3.319   5.763   6.371  0.3342 -0.4636  0.0197
  121OSM    C2F12810   3.521   5.703   6.495  0.7298 -0.2532  0.7804
  121OSM    H2F12811   3.586   5.743   6.415 -0.3239 -0.3202 -0.1288
  121OSM    H2G12812   3.553   5.598   6.515 -0.2198 -0.9726 -1.3806
  121OSM    C3F12813   3.533   5.794   6.619 -0.3343 -0.5869  0.3567
  121OSM    H3F12814   3.467   5.880   6.596  0.7993 -0.1695 -1.4720
  121OSM    H3G12815   3.641   5.822   6.624 -0.9084  1.3017  2.9833
  121OSM    C4F12816   3.474   5.742   6.744 -0.4451 -0.2515  0.0644
  121OSM    H4F12817   3.520   5.648   6.781 -0.2560 -1.4226 -2.9582
  121OSM    H4G12818   3.376   5.699   6.716 -0.2564 -1.2165  0.8819
  121OSM    C5F12819   3.467   5.843   6.856  0.5537  0.1216  0.3745
  121OSM    H5F12820   3.398   5.928   6.836  1.9373  1.1603 -0.0661
  121OSM    H5G12821   3.571   5.874   6.877  1.5222 -1.1225 -2.3676
  121OSM    C6F12822   3.420   5.773   6.985  0.4426  0.0235  0.1696
  121OSM    H6F12823   3.483   5.687   7.016  0.4604  0.0001  0.0693
  121OSM    H6G12824   3.321   5.726   6.967  0.9732 -0.4871 -1.5855
  121OSM    C7F12825   3.423   5.872   7.105 -0.1055 -0.0050  1.3933
  121OSM    H7F12826   3.359   5.958   7.075 -0.7083 -1.0542 -0.3736
  121OSM    H7G12827   3.525   5.912   7.124  0.0016  0.1160  0.5836
  121OSM    C8F12828   3.381   5.794   7.231 -0.1131 -0.6087 -0.0842
  121OSM    H8F12829   3.431   5.696   7.239 -0.1034 -0.4952  1.4338
  121OSM    H8G12830   3.273   5.769   7.234 -0.5357  1.1390 -0.1672
  121OSM    C9F12831   3.408   5.879   7.343 -0.3210 -0.7872  0.7733
  121OSM    H9F12832   3.395   5.987   7.323 -2.6682 -1.2212 -0.1777
  121OSM   C10F12833   3.433   5.844   7.467 -0.2883  0.6512  0.2514
  121OSM   H10F12834   3.449   5.932   7.531  0.3739  0.7001  0.0164
  121OSM   C11F12835   3.453   5.703   7.522 -0.6871  0.1810  0.3473
  121OSM   H11F12836   3.490   5.637   7.440 -3.0571 -0.0963 -0.5419
  121OSM   H11G12837   3.350   5.674   7.551 -0.8608  0.5840  0.1441
  121OSM   C12F12838   3.540   5.696   7.647 -0.3910  0.0781 -0.2579
  121OSM   H12F12839   3.542   5.592   7.685  1.5502  0.5181  0.9045
  121OSM   H12G12840   3.504   5.771   7.720  1.7908 -1.6209  2.6587
  121OSM   C13F12841   3.681   5.730   7.626 -0.1985  0.2667 -0.3411
  121OSM   H13F12842   3.694   5.829   7.577  0.9981 -0.0118 -0.5988
  121OSM   H13G12843   3.712   5.672   7.537 -2.1576 -1.8761  0.3187
  121OSM   C14F12844   3.779   5.722   7.745 -0.6966  0.6683  0.5742
  121OSM   H14F12845   3.879   5.748   7.706 -1.2203 -1.5286 -2.4216
  121OSM   H14G12846   3.779   5.615   7.778 -1.9855 -0.5510 -3.1276
  121OSM   C15F12847   3.731   5.807   7.866  0.0853  0.5502 -0.1252
  121OSM   H15F12848   3.649   5.747   7.910 -0.4451  0.1480 -1.6270
  121OSM   H15G12849   3.692   5.904   7.828  0.4719  1.0375  0.7194
  121OSM   C16F12850   3.834   5.831   7.980 -0.3473  0.1493 -0.1614
  121OSM   H16F12851   3.903   5.914   7.954  0.9937  0.1040  2.9901
  121OSM   H16G12852   3.906   5.747   7.994  0.5163  0.8250 -0.4762
  121OSM   C17F12853   3.766   5.871   8.117 -0.7191 -0.0658  0.1672
  121OSM   H17F12854   3.708   5.787   8.160 -0.3556 -0.4874 -0.1661
  121OSM   H17G12855   3.703   5.955   8.082  0.7181  1.3017  0.7576
  121OSM   C18F12856   3.865   5.922   8.224 -0.7718 -0.2686 -0.1487
  121OSM   H18F12857   3.908   6.021   8.199 -2.3100  0.9076  1.7250
  121OSM   H18G12858   3.953   5.854   8.234  0.1466  1.2386  2.7432
  121OSM   H18H12859   3.822   5.933   8.326 -1.8738 -0.7243 -0.5560
  122OSM      N12860   2.311   1.250   5.838  0.1784  0.2054  0.2990
  122OSM    C1512861   2.218   1.331   5.754 -0.2538  0.1040 -0.1832
  122OSM   H15A12862   2.126   1.341   5.810  1.0239  0.3020  1.9165
  122OSM   H15B12863   2.196   1.281   5.661 -2.6682 -1.6392  1.2408
  122OSM   H15C12864   2.256   1.428   5.728 -2.2037  0.1870 -3.0064
  122OSM    C1412865   2.428   1.212   5.767 -0.0004 -0.0089  0.2920
  122OSM   H14A12866   2.472   1.305   5.736  0.2301  0.2259  1.2876
  122OSM   H14B12867   2.400   1.155   5.680 -2.2630  0.2379  0.8312
  122OSM   H14C12868   2.489   1.151   5.833  1.2678  0.6221 -0.2770
  122OSM    C1312869   2.356   1.330   5.955 -0.5571 -0.0649 -0.7815
  122OSM   H13A12870   2.426   1.269   6.011 -1.8307 -0.9323 -0.1132
  122OSM   H13B12871   2.276   1.358   6.021 -0.3625  0.7052 -0.8628
  122OSM   H13C12872   2.402   1.419   5.915  4.1815 -0.4218  3.3657
  122OSM    C1212873   2.239   1.129   5.897 -0.8786  0.2371 -0.6658
  122OSM   H12A12874   2.142   1.160   5.934  0.3470  3.0314  0.3141
  122OSM   H12B12875   2.292   1.110   5.989 -0.9233  2.1822 -0.2253
  122OSM    C1112876   2.215   1.000   5.812 -0.1992 -0.2324  0.0745
  122OSM   H11A12877   2.173   1.030   5.714  1.7051 -0.3745 -0.8110
  122OSM   H11B12878   2.143   0.929   5.859 -1.6051  1.2512  0.1977
  122OSM      P12879   2.416   0.859   5.888 -0.5529  0.1426 -0.3948
  122OSM    O1312880   2.415   0.713   5.852 -0.3140 -0.7459 -0.8104
  122OSM    O1412881   2.541   0.928   5.934  0.5234 -0.3141 -0.2678
  122OSM    O1112882   2.332   0.873   6.015  0.0946  0.5184  0.0290
  122OSM    O1212883   2.335   0.939   5.782  0.2745 -0.5207  0.7694
  122OSM    C1S12884   2.398   0.865   6.139  0.3999 -0.4651 -0.0338
  122OSM    H1S12885   2.452   0.958   6.167 -2.2537  0.8847  0.7728
  122OSM    H1T12886   2.464   0.777   6.156 -0.7426 -1.5699 -1.1826
  122OSM     NF12887   2.350   0.805   6.379 -0.2956  0.1111  0.6727
  122OSM    HNF12888   2.376   0.709   6.388 -0.8438  0.0529  1.8063
  122OSM    C2S12889   2.290   0.831   6.252  0.4389  1.2045  0.1145
  122OSM    H2S12890   2.227   0.921   6.267 -2.8283 -1.2441  1.6943
  122OSM    C3S12891   2.199   0.715   6.205  0.1546  0.9521  0.2715
  122OSM    H3S12892   2.277   0.645   6.168 -0.1135  1.5656 -1.5035
  122OSM     O312893   2.117   0.746   6.091 -0.4918  0.2358 -0.2887
  122OSM    HO312894   2.174   0.792   6.029 -1.0206  0.7562 -0.3946
  122OSM    C4S12895   2.107   0.658   6.315  0.4688  0.2123 -0.1762
  122OSM    H4S12896   2.058   0.734   6.378  0.1072 -0.5097  0.4166
  122OSM    C5S12897   2.081   0.526   6.329 -0.0149 -0.8410  0.0889
  122OSM    H5S12898   2.131   0.448   6.269  0.8349 -3.1565  3.6378
  122OSM    C6S12899   1.984   0.469   6.431 -0.1499 -0.1758 -0.3716
  122OSM    H6S12900   2.052   0.406   6.491  1.0120  2.6063  1.3464
  122OSM    H6T12901   1.907   0.405   6.383 -0.8393  0.5560 -0.2634
  122OSM    C7S12902   1.920   0.567   6.532  0.6628 -0.4882 -0.1080
  122OSM    H7S12903   1.861   0.636   6.468 -0.7807  0.6322  2.3612
  122OSM    H7T12904   2.005   0.623   6.577 -0.0789 -0.0721  0.8083
  122OSM    C8S12905   1.829   0.520   6.648  0.0997  0.1374  0.0200
  122OSM    H8S12906   1.876   0.444   6.714 -0.5192 -0.7229 -0.5132
  122OSM    H8T12907   1.739   0.473   6.603 -0.1148 -0.6615  1.2376
  122OSM    C9S12908   1.778   0.646   6.719  0.2483  0.6093 -0.5642
  122OSM    H9S12909   1.715   0.718   6.661 -0.4993 -0.6449 -1.3239
  122OSM    H9T12910   1.864   0.709   6.749 -0.5451  0.6670  1.7055
  122OSM   C10S12911   1.706   0.610   6.852  0.7990 -0.0655 -0.7108
  122OSM   H10S12912   1.783   0.573   6.923  1.4541  0.8916 -0.8994
  122OSM   H10T12913   1.645   0.519   6.838 -0.6466  0.3772  2.2844
  122OSM   C11S12914   1.637   0.727   6.921  0.1132  0.2245  0.0159
  122OSM   H11S12915   1.578   0.692   7.008  0.2142  3.9418  1.6750
  122OSM   H11T12916   1.576   0.787   6.850  0.7611 -1.6488 -2.1831
  122OSM   C12S12917   1.740   0.835   6.967 -0.4267 -0.0289 -0.0626
  122OSM   H12S12918   1.689   0.931   6.988 -1.5860 -0.5485 -0.4817
  122OSM   H12T12919   1.816   0.858   6.889 -2.1352 -2.3195 -2.4921
  122OSM   C13S12920   1.799   0.791   7.110  0.3586 -0.9346  0.2932
  122OSM   H13S12921   1.853   0.694   7.111  1.8932 -0.0926  0.9702
  122OSM   H13T12922   1.706   0.800   7.171  0.3910  1.1856  0.0827
  122OSM   C14S12923   1.909   0.890   7.164 -0.4697 -0.2980  0.3995
  122OSM   H14S12924   1.857   0.988   7.174 -0.1954 -0.0186 -0.8650
  122OSM   H14T12925   1.991   0.901   7.090  0.5610 -1.6044  1.3239
  122OSM   C15S12926   1.974   0.863   7.304 -0.0452  0.1526 -0.6699
  122OSM   H15S12927   2.037   0.772   7.296 -0.9136 -0.6747  1.4132
  122OSM   H15T12928   1.892   0.838   7.374  0.8595  1.0829  0.7406
  122OSM   C16S12929   2.039   0.987   7.361  0.0077 -0.1923  0.1700
  122OSM   H16S12930   1.963   1.067   7.365 -0.8201 -0.9388 -0.3157
  122OSM   H16T12931   2.121   1.021   7.295 -1.2734  0.4695 -1.1118
  122OSM   C17S12932   2.100   0.948   7.494 -0.2178  0.1325 -0.4208
  122OSM   H17S12933   2.175   0.868   7.476 -0.8970 -0.4321 -0.7620
  122OSM   H17T12934   2.016   0.911   7.557  1.6303 -1.9338  0.9063
  122OSM   C18S12935   2.181   1.051   7.571  0.0555 -0.8741  0.4048
  122OSM   H18S12936   2.237   0.998   7.651  0.8929  0.0628  0.4557
  122OSM   H18T12937   2.102   1.116   7.615 -0.3244  1.1641 -3.1164
  122OSM   H18U12938   2.247   1.114   7.508 -1.1147  0.1361  0.1814
  122OSM    C1F12939   2.409   0.904   6.445  0.8347  0.1114  0.2726
  122OSM     OF12940   2.419   1.014   6.398 -0.4024  0.2568  0.1232
  122OSM    C2F12941   2.469   0.871   6.573  0.7147  0.4409 -0.1995
  122OSM    H2F12942   2.534   0.783   6.554 -0.9031 -0.3964 -1.9401
  122OSM    H2G12943   2.392   0.833   6.643  0.0506 -1.5357 -1.9672
  122OSM    C3F12944   2.546   0.992   6.631  0.5754 -0.0137  0.0107
  122OSM    H3F12945   2.485   1.085   6.625  1.8461  0.7943 -0.4846
  122OSM    H3G12946   2.640   1.014   6.578 -1.1405 -0.9018 -3.5476
  122OSM    C4F12947   2.581   0.961   6.774  0.1017 -0.0825 -0.2585
  122OSM    H4F12948   2.496   0.932   6.840 -0.2587  0.4583 -0.4812
  122OSM    H4G12949   2.612   1.059   6.818 -3.2349  1.2675 -0.7607
  122OSM    C5F12950   2.695   0.870   6.802  0.5597 -0.0877  0.6674
  122OSM    H5F12951   2.778   0.913   6.742  1.0439 -0.0081  1.3826
  122OSM    H5G12952   2.667   0.776   6.750  2.5238  0.7007 -1.9350
  122OSM    C6F12953   2.723   0.865   6.953  0.0390  0.0585  0.2999
  122OSM    H6F12954   2.625   0.848   7.004  0.0215  1.5750  0.7850
  122OSM    H6G12955   2.768   0.959   6.991 -0.7218 -0.3799  2.3493
  122OSM    C7F12956   2.826   0.760   6.978 -0.1282 -0.3547 -0.8506
  122OSM    H7F12957   2.922   0.781   6.927 -1.2940  1.3920 -2.4415
  122OSM    H7G12958   2.800   0.663   6.932  0.6366 -0.1345 -1.7665
  122OSM    C8F12959   2.832   0.735   7.128 -0.1247  0.7825 -0.0169
  122OSM    H8F12960   2.821   0.832   7.181  2.9464 -0.2935  2.7751
  122OSM    H8G12961   2.938   0.706   7.141 -1.1971 -2.4092  2.3397
  122OSM    C9F12962   2.727   0.629   7.185 -0.5557 -0.3641 -0.6267
  122OSM    H9F12963   2.621   0.651   7.161 -0.7855 -0.0218  0.6557
  122OSM   C10F12964   2.753   0.516   7.257 -0.2747 -0.1491  0.0654
  122OSM   H10F12965   2.673   0.458   7.306  0.3818 -0.1243  1.1986
  122OSM   C11F12966   2.896   0.476   7.291  0.5041  0.7229  0.7228
  122OSM   H11F12967   2.972   0.528   7.228 -1.3587  1.2786 -1.1191
  122OSM   H11G12968   2.902   0.366   7.276  1.2532  0.5936  1.8861
  122OSM   C12F12969   2.922   0.513   7.442  0.8196 -0.7090 -0.3633
  122OSM   H12F12970   2.890   0.617   7.462 -0.8986 -1.5614  1.6214
  122OSM   H12G12971   3.031   0.515   7.459  0.7252  1.1721  0.0820
  122OSM   C13F12972   2.854   0.417   7.543 -0.0207 -0.1285  0.4753
  122OSM   H13F12973   2.905   0.321   7.519 -0.1634 -0.5925  1.9670
  122OSM   H13G12974   2.744   0.412   7.529 -0.0954 -0.8788  1.2985
  122OSM   C14F12975   2.886   0.442   7.698  0.6163 -0.0597 -0.1700
  122OSM   H14F12976   2.989   0.483   7.713 -0.8177  3.1750  1.4459
  122OSM   H14G12977   2.884   0.345   7.751  1.0913 -1.3508 -2.4601
  122OSM   C15F12978   2.791   0.548   7.755  0.6041 -0.3817  0.5412
  122OSM   H15F12979   2.690   0.553   7.707  0.9245 -0.1949 -0.1213
  122OSM   H15G12980   2.832   0.650   7.743 -0.0377 -0.0600  0.9991
  122OSM   C16F12981   2.764   0.531   7.906  0.3414  0.7711 -0.0281
  122OSM   H16F12982   2.723   0.429   7.924  0.2772  0.3083 -2.5913
  122OSM   H16G12983   2.694   0.611   7.940  2.0868  1.7373  1.3436
  122OSM   C17F12984   2.894   0.547   7.995 -0.3460 -0.5390 -0.2330
  122OSM   H17F12985   2.938   0.645   7.968  0.7215 -1.3728 -1.5497
  122OSM   H17G12986   2.969   0.469   7.969 -0.2977 -0.3447 -0.6791
  122OSM   C18F12987   2.852   0.525   8.140  0.2149  0.5549 -0.0297
  122OSM   H18F12988   2.768   0.591   8.173  0.9082  0.5504  1.7958
  122OSM   H18G12989   2.933   0.541   8.214  0.3376  2.4398 -0.5339
  122OSM   H18H12990   2.833   0.417   8.155  0.6587  0.6741  1.4464
  123OSM      N12991   6.558   3.389   6.241  0.0856  0.2446  0.2706
  123OSM    C1512992   6.437   3.451   6.168 -1.1719  0.4178 -0.1197
  123OSM   H15A12993   6.467   3.479   6.068  2.9154 -1.0956  0.5855
  123OSM   H15B12994   6.396   3.533   6.225  0.7400  0.8536  0.6417
  123OSM   H15C12995   6.363   3.373   6.153  0.4585 -1.1794 -0.0567
  123OSM    C1412996   6.590   3.269   6.166  1.0283 -0.9378  0.9070
  123OSM   H14A12997   6.670   3.220   6.221  3.2401  3.1814  1.5619
  123OSM   H14B12998   6.631   3.295   6.070 -0.2626 -0.0896  0.5745
  123OSM   H14C12999   6.509   3.199   6.150  1.0370 -1.3068  2.3395
  123OSM    C1313000   6.668   3.490   6.236  0.3663  0.1011  0.8072
  123OSM   H13A13001   6.764   3.459   6.275 -0.0946 -1.4992  0.6981
  123OSM   H13B13002   6.648   3.587   6.277  0.5741  0.0799  0.9624
  123OSM   H13C13003   6.692   3.506   6.132  1.6214  1.6665  1.3237
  123OSM    C1213004   6.517   3.360   6.389 -0.6201 -0.3019  0.2199
  123OSM   H12A13005   6.428   3.301   6.372 -0.4671 -0.2894 -0.6422
  123OSM   H12B13006   6.494   3.448   6.446  3.2153 -0.0879  1.5781
  123OSM    C1113007   6.625   3.288   6.478  0.5928  0.4267 -0.1103
  123OSM   H11A13008   6.596   3.284   6.585 -2.3880  0.9708 -0.8380
  123OSM   H11B13009   6.720   3.342   6.458  0.4328  0.9572  0.5681
  123OSM      P13010   6.521   3.044   6.440  0.0920 -0.4341  0.3520
  123OSM    O1313011   6.403   3.088   6.362 -0.2453 -0.1216  0.0769
  123OSM    O1413012   6.582   2.913   6.411 -0.0985 -0.2232  0.1773
  123OSM    O1113013   6.478   3.046   6.596  0.3560 -0.5453 -0.0571
  123OSM    O1213014   6.640   3.154   6.429  0.5990 -0.0150  0.3312
  123OSM    C1S13015   6.550   2.974   6.698 -0.0379 -0.5888  0.4831
  123OSM    H1S13016   6.646   2.932   6.661  1.7736  2.9705  0.9915
  123OSM    H1T13017   6.491   2.888   6.736 -0.9822  0.4615  1.4291
  123OSM     NF13018   6.657   2.966   6.925  0.0984 -0.1506  0.4279
  123OSM    HNF13019   6.608   2.900   6.982  0.3079 -0.7434 -0.0785
  123OSM    C2S13020   6.584   3.052   6.832 -0.2048 -0.3367  0.1343
  123OSM    H2S13021   6.644   3.141   6.802 -2.4591  1.3830  0.5259
  123OSM    C3S13022   6.452   3.101   6.893 -0.8505  0.1124  0.5388
  123OSM    H3S13023   6.390   3.014   6.924 -1.4198 -0.1080 -1.2081
  123OSM     O313024   6.371   3.185   6.802  0.3814  0.3522 -0.3463
  123OSM    HO313025   6.411   3.180   6.715  0.1668 -0.7386 -0.3888
  123OSM    C4S13026   6.473   3.173   7.021 -0.3872 -0.3814  0.2751
  123OSM    H4S13027   6.424   3.119   7.103 -1.1607 -2.3009 -1.4064
  123OSM    C5S13028   6.513   3.294   7.037  0.4044 -1.0321  0.0299
  123OSM    H5S13029   6.552   3.354   6.954  1.1742  0.0645  1.1607
  123OSM    C6S13030   6.510   3.366   7.173 -0.0046 -0.2344 -0.0786
  123OSM    H6S13031   6.404   3.396   7.184 -0.1458 -0.1414 -1.5783
  123OSM    H6T13032   6.562   3.463   7.161 -0.5705 -0.2571 -3.1726
  123OSM    C7S13033   6.565   3.300   7.298  0.0796  0.2034 -0.4105
  123OSM    H7S13034   6.675   3.282   7.297  0.1584  0.6170  0.3806
  123OSM    H7T13035   6.515   3.201   7.302  0.0572  0.2648  1.6750
  123OSM    C8S13036   6.518   3.375   7.423  0.5493  0.6103  1.0386
  123OSM    H8S13037   6.418   3.424   7.410 -0.1090 -0.3667  2.3459
  123OSM    H8T13038   6.578   3.466   7.445  4.1228 -1.3221 -0.4665
  123OSM    C9S13039   6.516   3.286   7.556  0.5683  0.1702 -0.5560
  123OSM    H9S13040   6.622   3.256   7.570 -0.2519 -2.1900  0.8582
  123OSM    H9T13041   6.450   3.201   7.527 -0.2514  0.2524  1.0237
  123OSM   C10S13042   6.448   3.356   7.675 -0.1929 -0.1674 -0.1348
  123OSM   H10S13043   6.338   3.366   7.662 -0.4751 -2.4228  0.3681
  123OSM   H10T13044   6.504   3.451   7.687  1.6735 -1.4634  1.4413
  123OSM   C11S13045   6.463   3.274   7.808  0.0757  0.4088 -0.2435
  123OSM   H11S13046   6.569   3.242   7.807 -0.3391 -0.9928 -0.1945
  123OSM   H11T13047   6.383   3.196   7.810 -2.4656  2.9428  1.8270
  123OSM   C12S13048   6.434   3.354   7.933  0.0547  0.2568  1.2015
  123OSM   H12S13049   6.326   3.379   7.924  0.5056  1.9417  0.1225
  123OSM   H12T13050   6.483   3.453   7.943 -1.3961  1.1760 -0.5241
  123OSM   C13S13051   6.458   3.262   8.058  0.3801 -0.2281  0.7584
  123OSM   H13S13052   6.562   3.227   8.072  0.4412  0.4744  2.1982
  123OSM   H13T13053   6.388   3.177   8.045  0.2085  0.1386 -0.7064
  123OSM   C14S13054   6.416   3.330   8.197 -0.4812 -0.1114  0.0602
  123OSM   H14S13055   6.321   3.386   8.184 -0.3041 -0.0808 -1.2047
  123OSM   H14T13056   6.500   3.398   8.224 -0.6295 -0.0707  0.4161
  123OSM   C15S13057   6.405   3.227   8.307  0.6232  0.0371  0.3953
  123OSM   H15S13058   6.508   3.208   8.345  0.1906  1.3796  2.3229
  123OSM   H15T13059   6.365   3.130   8.269  1.1339  0.3218 -0.8821
  123OSM   C16S13060   6.314   3.268   8.422  0.0090 -0.2007 -0.1053
  123OSM   H16S13061   6.301   3.177   8.483 -1.4738  0.0959  0.0417
  123OSM   H16T13062   6.216   3.284   8.373  0.4715  0.1834 -0.9267
  123OSM   C17S13063   6.355   3.383   8.516 -0.3868  0.4524  0.1892
  123OSM   H17S13064   6.270   3.416   8.579 -0.1552 -2.1579  1.9470
  123OSM   H17T13065   6.364   3.468   8.445  2.2284  0.5539  0.5837
  123OSM   C18S13066   6.484   3.354   8.599 -0.0764 -0.0077 -0.1955
  123OSM   H18S13067   6.484   3.261   8.659 -1.8205 -1.3320 -2.1757
  123OSM   H18T13068   6.513   3.441   8.661 -1.7408  0.9249 -0.6761
  123OSM   H18U13069   6.562   3.340   8.522  0.6678 -0.5292  0.6484
  123OSM    C1F13070   6.784   2.943   6.913  0.5641 -0.5023 -0.5760
  123OSM     OF13071   6.848   2.984   6.819  0.2483 -0.8812  0.0602
  123OSM    C2F13072   6.840   2.851   7.018 -0.0556  0.3096 -0.2018
  123OSM    H2F13073   6.886   2.766   6.963  1.2653  0.9709 -0.1335
  123OSM    H2G13074   6.757   2.819   7.085 -0.4786  1.9178  0.0617
  123OSM    C3F13075   6.960   2.910   7.095 -0.0741 -0.2582  0.3877
  123OSM    H3F13076   7.037   2.960   7.032  0.0792 -0.2052  0.6162
  123OSM    H3G13077   7.013   2.822   7.136  1.8978  0.0666 -1.3926
  123OSM    C4F13078   6.919   3.006   7.212  0.6152  0.2247  0.3054
  123OSM    H4F13079   6.838   3.067   7.167 -0.5022 -1.8481 -0.5752
  123OSM    H4G13080   7.003   3.076   7.231  2.8175 -1.6885 -1.9395
  123OSM    C5F13081   6.873   2.941   7.346 -0.1371 -0.2587  0.4209
  123OSM    H5F13082   6.950   2.870   7.383 -1.3528 -2.2182 -0.6534
  123OSM    H5G13083   6.782   2.883   7.319  1.0117 -2.4545  1.1700
  123OSM    C6F13084   6.826   3.049   7.449  0.3932  0.1222  0.0825
  123OSM    H6F13085   6.742   3.114   7.414  0.3210  0.3677  0.7063
  123OSM    H6G13086   6.918   3.108   7.462  0.4271  0.2187 -0.5388
  123OSM    C7F13087   6.783   2.993   7.581  1.2724  0.2874 -0.1862
  123OSM    H7F13088   6.695   2.925   7.581  0.6535  1.0894 -0.1742
  123OSM    H7G13089   6.743   3.074   7.645  1.0955  0.3722 -0.4051
  123OSM    C8F13090   6.905   2.940   7.659  0.1183 -0.5312  1.0117
  123OSM    H8F13091   6.966   2.885   7.585 -0.8008 -1.5484  0.9978
  123OSM    H8G13092   6.868   2.873   7.739 -1.2174 -1.9341 -0.7511
  123OSM    C9F13093   6.992   3.044   7.730  0.3986 -0.0670  0.2484
  123OSM    H9F13094   7.064   3.087   7.658  1.6909 -0.5991  1.2016
  123OSM   C10F13095   7.008   3.071   7.857  0.4628 -0.2172  0.6236
  123OSM   H10F13096   7.078   3.150   7.886  0.9445 -0.1253 -0.7771
  123OSM   C11F13097   6.932   3.006   7.968 -0.1004 -0.2822  0.0511
  123OSM   H11F13098   6.990   3.022   8.061  0.7725 -2.3309 -0.1080
  123OSM   H11G13099   6.916   2.898   7.944  3.3424 -0.5964 -1.1202
  123OSM   C12F13100   6.796   3.065   7.999  0.5939 -0.5245  0.0712
  123OSM   H12F13101   6.726   3.056   7.913 -0.5748  1.0611  0.8287
  123OSM   H12G13102   6.800   3.173   8.021 -0.7225 -0.0439 -1.9067
  123OSM   C13F13103   6.723   2.999   8.113 -0.1263  0.0430  0.7068
  123OSM   H13F13104   6.714   2.892   8.086  1.0862 -0.1641  1.0804
  123OSM   H13G13105   6.622   3.042   8.127  0.1477  1.1225 -0.5285
  123OSM   C14F13106   6.788   3.020   8.248  0.2243 -0.2898  0.4211
  123OSM   H14F13107   6.798   3.130   8.260 -1.5481  0.1108 -1.4091
  123OSM   H14G13108   6.894   2.986   8.248 -0.0776 -1.2659  1.2284
  123OSM   C15F13109   6.711   2.957   8.370 -0.2126 -0.0241  0.5236
  123OSM   H15F13110   6.689   2.851   8.343 -1.3923  0.0192  1.2995
  123OSM   H15G13111   6.613   3.009   8.377 -0.4266 -0.2691 -0.6232
  123OSM   C16F13112   6.784   2.975   8.503 -0.9679  0.3387  0.3383
  123OSM   H16F13113   6.806   3.082   8.521 -0.2867  0.4143 -0.8937
  123OSM   H16G13114   6.885   2.929   8.497 -1.6220 -1.0859  0.0778
  123OSM   C17F13115   6.702   2.922   8.612  0.5016  0.8218  0.4618
  123OSM   H17F13116   6.701   2.813   8.587 -1.0054  0.8410  0.4187
  123OSM   H17G13117   6.596   2.953   8.607  0.0287 -1.0383 -3.3847
  123OSM   C18F13118   6.770   2.941   8.743 -0.6593 -0.0185 -0.7275
  123OSM   H18F13119   6.709   2.911   8.830 -1.2157  1.0625 -0.7289
  123OSM   H18G13120   6.776   3.051   8.760 -1.7526  0.0766 -0.9428
  123OSM   H18H13121   6.863   2.880   8.744 -0.7481 -0.1771  2.8328
  124OSM      N13122   1.243   5.461   5.913  0.0881  0.4561  0.5324
  124OSM    C1513123   1.262   5.469   6.061  1.0389 -0.0439 -0.6568
  124OSM   H15A13124   1.338   5.544   6.079  0.5038  0.3590 -0.0249
  124OSM   H15B13125   1.285   5.371   6.101  1.9212  0.3460 -0.1957
  124OSM   H15C13126   1.169   5.506   6.100  0.2773 -1.2697 -1.2878
  124OSM    C1413127   1.361   5.395   5.848  0.1607  0.1979 -0.7153
  124OSM   H14A13128   1.345   5.385   5.742 -0.1667  0.5427 -0.6999
  124OSM   H14B13129   1.369   5.297   5.892  1.4578  0.1048 -1.1189
  124OSM   H14C13130   1.452   5.450   5.868 -0.1507  0.3899  0.2259
  124OSM    C1313131   1.115   5.375   5.884  0.5621 -0.7463 -0.3873
  124OSM   H13A13132   1.103   5.300   5.960 -1.5568 -0.9003 -0.8550
  124OSM   H13B13133   1.124   5.325   5.789  2.1332 -1.3411  0.0536
  124OSM   H13C13134   1.022   5.429   5.877  0.4439 -0.6347  1.7973
  124OSM    C1213135   1.228   5.597   5.866 -0.5557  0.1450 -0.5554
  124OSM   H12A13136   1.246   5.595   5.759  0.8834 -2.2327 -0.3220
  124OSM   H12B13137   1.303   5.659   5.914  0.8429 -0.3544 -2.0432
  124OSM    C1113138   1.093   5.671   5.897 -0.3564  0.4806  0.7040
  124OSM   H11A13139   1.010   5.605   5.864  0.1165  0.4055 -0.3601
  124OSM   H11B13140   1.085   5.760   5.831  1.8281  0.2067  0.0349
  124OSM      P13141   1.126   5.828   6.099  0.1516  0.0214  0.3725
  124OSM    O1313142   1.245   5.866   6.023 -0.7362 -0.2717  0.1911
  124OSM    O1413143   1.028   5.937   6.122  0.8804  0.6745 -0.9415
  124OSM    O1113144   1.181   5.783   6.243  0.2218 -0.5362 -0.8171
  124OSM    O1213145   1.072   5.691   6.041  0.3782  0.1444 -0.1070
  124OSM    C1S13146   1.272   5.854   6.329  1.3338  0.7087  0.1507
  124OSM    H1S13147   1.297   5.949   6.277  1.4450  0.1352 -0.8637
  124OSM    H1T13148   1.365   5.797   6.350 -0.5997 -2.3296  0.7351
  124OSM     NF13149   1.300   5.975   6.551 -0.3717 -0.3141 -0.0202
  124OSM    HNF13150   1.378   5.938   6.601 -0.6868 -0.1189  0.6239
  124OSM    C2S13151   1.219   5.881   6.474  0.2680 -0.3766  0.3922
  124OSM    H2S13152   1.119   5.929   6.476  1.3369  1.8457  2.5459
  124OSM    C3S13153   1.215   5.733   6.541 -0.5776 -0.1852 -0.3145
  124OSM    H3S13154   1.318   5.695   6.554 -0.8232 -0.8006 -0.1765
  124OSM     O313155   1.150   5.628   6.467  0.4437  0.3406 -0.0073
  124OSM    HO313156   1.118   5.675   6.390  1.5513  1.1179 -0.0126
  124OSM    C4S13157   1.146   5.730   6.674 -0.1622 -0.2011  0.6714
  124OSM    H4S13158   1.038   5.752   6.675  0.0544  0.8534  1.3171
  124OSM    C5S13159   1.206   5.713   6.794  0.0155 -0.2792  0.1169
  124OSM    H5S13160   1.315   5.698   6.786 -0.1241 -0.6332 -1.2705
  124OSM    C6S13161   1.141   5.714   6.925  0.1584 -0.6180 -0.2813
  124OSM    H6S13162   1.190   5.639   6.990  0.0585 -0.0922  0.4046
  124OSM    H6T13163   1.033   5.692   6.936  0.4398 -0.6210  2.9919
  124OSM    C7S13164   1.155   5.847   7.002  0.9591 -0.5705  0.5572
  124OSM    H7S13165   1.079   5.922   6.970  1.5930  0.1082  0.6239
  124OSM    H7T13166   1.253   5.896   6.983 -0.0808  1.7617  1.0379
  124OSM    C8S13167   1.145   5.834   7.152  0.7819  0.5908  0.0401
  124OSM    H8S13168   1.156   5.934   7.201  0.1961 -0.5085  2.5046
  124OSM    H8T13169   1.231   5.773   7.186  0.0372  0.0363  0.9444
  124OSM    C9S13170   1.018   5.766   7.199 -0.7719  0.0012 -0.4492
  124OSM    H9S13171   1.027   5.666   7.153  0.6776 -0.3112  0.4949
  124OSM    H9T13172   0.938   5.817   7.141 -0.4019 -0.6246 -1.5106
  124OSM   C10S13173   0.996   5.765   7.354  0.1532  0.4487  0.3213
  124OSM   H10S13174   0.904   5.710   7.385  1.0728 -1.7019 -0.7476
  124OSM   H10T13175   0.969   5.871   7.378  2.3656  1.1903 -0.3873
  124OSM   C11S13176   1.110   5.695   7.428 -0.2685  0.2347 -0.7093
  124OSM   H11S13177   1.214   5.727   7.405 -0.6574  0.5886 -2.0248
  124OSM   H11T13178   1.117   5.589   7.396 -0.9506  0.2701 -0.9759
  124OSM   C12S13179   1.083   5.687   7.580 -0.1288 -0.9685 -0.0608
  124OSM   H12S13180   1.166   5.632   7.629  0.1310 -1.0580 -0.5941
  124OSM   H12T13181   0.995   5.620   7.592  1.3190 -3.0825 -0.9745
  124OSM   C13S13182   1.053   5.815   7.662 -0.2605  0.0853  0.3425
  124OSM   H13S13183   0.954   5.858   7.635  0.1607 -0.1787 -1.7145
  124OSM   H13T13184   1.121   5.894   7.623 -1.2508  0.0534 -1.5024
  124OSM   C14S13185   1.071   5.806   7.811 -0.1105  0.3267 -0.1530
  124OSM   H14S13186   1.027   5.898   7.854  0.3215 -0.2909  1.6771
  124OSM   H14T13187   1.179   5.819   7.836 -0.4195  0.6633  1.0079
  124OSM   C15S13188   1.009   5.675   7.872  0.8133 -0.4244  0.6603
  124OSM   H15S13189   1.036   5.664   7.979  2.9760 -1.2127  0.0546
  124OSM   H15T13190   1.049   5.582   7.825  2.2776 -0.5359  2.0843
  124OSM   C16S13191   0.852   5.679   7.873 -0.5597 -0.4514  0.0934
  124OSM   H16S13192   0.825   5.609   7.791  0.5577 -0.6569 -0.1179
  124OSM   H16T13193   0.823   5.782   7.844 -1.0323 -0.9968 -1.3980
  124OSM   C17S13194   0.789   5.633   8.005  0.1767 -0.5717 -0.6901
  124OSM   H17S13195   0.790   5.707   8.087 -0.7428 -1.3521  0.0390
  124OSM   H17T13196   0.848   5.550   8.049 -0.7376 -0.0487  1.6066
  124OSM   C18S13197   0.645   5.586   7.990  0.4540 -1.0822 -0.2920
  124OSM   H18S13198   0.610   5.535   7.898  1.6956 -2.3259 -0.0944
  124OSM   H18T13199   0.580   5.675   8.002 -0.3569 -1.6291 -0.6129
  124OSM   H18U13200   0.620   5.516   8.073  0.9678  0.3958  1.1249
  124OSM    C1F13201   1.282   6.104   6.546  0.2649 -0.3753  0.4924
  124OSM     OF13202   1.211   6.154   6.456  0.4272  0.1618 -0.2125
  124OSM    C2F13203   1.350   6.190   6.650 -0.1411  0.2872 -0.6860
  124OSM    H2F13204   1.431   6.251   6.605  1.7155 -1.1623  0.6324
  124OSM    H2G13205   1.400   6.134   6.732 -2.4859  1.0403  1.3345
  124OSM    C3F13206   1.258   6.278   6.734 -0.0437 -0.1629 -0.4594
  124OSM    H3F13207   1.195   6.343   6.671  0.8541  0.9361 -0.2469
  124OSM    H3G13208   1.321   6.354   6.785 -2.9259  0.8696  1.7177
  124OSM    C4F13209   1.176   6.184   6.827 -0.5909  0.4376 -0.2990
  124OSM    H4F13210   1.246   6.127   6.892  0.4652  2.8808  0.7523
  124OSM    H4G13211   1.117   6.111   6.768 -0.6681  0.6521 -0.4897
  124OSM    C5F13212   1.097   6.277   6.929  0.2806  0.1225  0.5987
  124OSM    H5F13213   1.018   6.328   6.870 -2.5783 -1.5550  2.7962
  124OSM    H5G13214   1.161   6.346   6.987  1.6502 -0.2152 -0.4826
  124OSM    C6F13215   1.019   6.197   7.034 -0.4593 -0.4869  0.0617
  124OSM    H6F13216   1.086   6.132   7.095  0.6789  1.3411  0.8004
  124OSM    H6G13217   0.950   6.129   6.980 -1.0412  1.1219 -1.2656
  124OSM    C7F13218   0.939   6.277   7.130 -0.2806 -0.4888  0.6106
  124OSM    H7F13219   0.853   6.319   7.074 -0.2991  1.8405  2.2657
  124OSM    H7G13220   0.996   6.365   7.168  0.3430 -0.4313 -0.4375
  124OSM    C8F13221   0.881   6.199   7.245 -0.0366  0.4311  0.0750
  124OSM    H8F13222   0.856   6.104   7.194 -2.3761 -0.3027  2.4188
  124OSM    H8G13223   0.791   6.244   7.293  0.8725  1.1421  1.1569
  124OSM    C9F13224   0.985   6.179   7.349 -0.2155  0.1622  0.5347
  124OSM    H9F13225   1.078   6.123   7.331 -0.4126  0.7032 -2.3343
  124OSM   C10F13226   0.981   6.238   7.469  0.4066  0.2478 -0.5128
  124OSM   H10F13227   1.069   6.213   7.530 -1.1201  0.9737  2.0337
  124OSM   C11F13228   0.875   6.327   7.525 -0.2330  0.9800  0.1329
  124OSM   H11F13229   0.777   6.274   7.525 -0.2418  0.9759  1.7077
  124OSM   H11G13230   0.867   6.413   7.454  0.7793 -1.7875 -3.5085
  124OSM   C12F13231   0.905   6.382   7.666  0.0354  0.6266 -0.0837
  124OSM   H12F13232   0.819   6.449   7.690 -0.7292 -0.3030 -0.2221
  124OSM   H12G13233   0.995   6.447   7.667 -0.1764  0.9576 -1.6425
  124OSM   C13F13234   0.910   6.268   7.767 -0.5658 -0.6887  0.0778
  124OSM   H13F13235   1.006   6.214   7.760 -0.0909  0.0650  0.6975
  124OSM   H13G13236   0.827   6.195   7.754 -1.2358  0.0992 -0.1850
  124OSM   C14F13237   0.923   6.317   7.912  0.7423  0.3838  0.4865
  124OSM   H14F13238   1.011   6.383   7.929  1.1529  0.2945 -1.1994
  124OSM   H14G13239   0.929   6.230   7.980  1.4270  1.1781  1.4517
  124OSM   C15F13240   0.796   6.400   7.957  0.4364 -0.2577  0.0109
  124OSM   H15F13241   0.708   6.335   7.937 -1.4367  2.3868 -0.5301
  124OSM   H15G13242   0.788   6.488   7.890 -0.4302  0.0246  0.4758
  124OSM   C16F13243   0.815   6.459   8.099 -0.1798  0.7692  0.1538
  124OSM   H16F13244   0.776   6.563   8.099  1.5969  1.4740  1.1898
  124OSM   H16G13245   0.923   6.464   8.124 -0.2956 -1.8753  1.3990
  124OSM   C17F13246   0.740   6.370   8.197  0.2911  0.2465  0.3713
  124OSM   H17F13247   0.795   6.274   8.204  0.6444  0.4899  1.0316
  124OSM   H17G13248   0.639   6.344   8.160  0.8807 -0.5068 -0.7151
  124OSM   C18F13249   0.724   6.425   8.339  0.1163  0.3104  1.2573
  124OSM   H18F13250   0.824   6.434   8.387  0.5647  1.6469  0.0802
  124OSM   H18G13251   0.659   6.351   8.391 -0.6655  0.9668  1.2169
  124OSM   H18H13252   0.660   6.515   8.335 -0.9136 -0.5418 -2.8085
  125OSM      N13253   3.548   4.562   6.217 -0.0022 -0.0507  0.3273
  125OSM    C1513254   3.545   4.473   6.337 -0.3735  0.3384 -0.4887
  125OSM   H15A13255   3.600   4.383   6.317  0.0327  1.2790 -3.8822
  125OSM   H15B13256   3.443   4.447   6.361 -0.2092  0.6787  0.6070
  125OSM   H15C13257   3.567   4.526   6.429  1.6794  1.2568 -1.4669
  125OSM    C1413258   3.520   4.481   6.096  0.0345 -0.1447 -0.2264
  125OSM   H14A13259   3.515   4.542   6.007  0.4582 -1.5073 -1.2008
  125OSM   H14B13260   3.421   4.439   6.105  1.1218 -2.5018  1.1283
  125OSM   H14C13261   3.579   4.392   6.081 -0.5834 -0.8657  1.4505
  125OSM    C1313262   3.453   4.668   6.238  0.3896  0.2424  0.8598
  125OSM   H13A13263   3.352   4.633   6.251  0.4321  0.6846  2.4734
  125OSM   H13B13264   3.448   4.739   6.156  0.5949  1.1268  1.6045
  125OSM   H13C13265   3.474   4.729   6.325 -1.6221  1.0932  0.7918
  125OSM    C1213266   3.681   4.629   6.195 -0.3826  0.3020  0.1590
  125OSM   H12A13267   3.676   4.698   6.112 -1.5432  0.9080  0.7155
  125OSM   H12B13268   3.751   4.552   6.167 -1.6960 -0.7067 -0.3550
  125OSM    C1113269   3.741   4.723   6.307 -0.3717  0.4537  0.2263
  125OSM   H11A13270   3.839   4.753   6.263  0.6154 -2.6147  0.2096
  125OSM   H11B13271   3.755   4.674   6.406 -1.7025 -0.5067 -0.0675
  125OSM      P13272   3.702   4.982   6.301  0.5758 -0.2113 -0.3964
  125OSM    O1313273   3.848   4.997   6.312 -0.3925  0.5592  0.1203
  125OSM    O1413274   3.654   5.016   6.169 -0.0654  0.4128  0.2340
  125OSM    O1113275   3.627   5.074   6.410  0.2046  0.0330  0.4045
  125OSM    O1213276   3.656   4.836   6.329 -0.2543  0.4283  0.3724
  125OSM    C1S13277   3.627   5.030   6.548 -0.3958  0.3725  0.7528
  125OSM    H1S13278   3.689   4.939   6.567 -1.1577  0.1839  2.4709
  125OSM    H1T13279   3.525   5.001   6.582  0.0233 -2.3115 -0.1225
  125OSM     NF13280   3.681   5.074   6.773  0.0276  0.2115 -0.7707
  125OSM    HNF13281   3.611   5.098   6.840  0.9628  0.0790  0.2685
  125OSM    C2S13282   3.664   5.140   6.644 -0.0934  1.0945  0.3591
  125OSM    H2S13283   3.767   5.180   6.632  0.4021 -0.4747 -0.6391
  125OSM    C3S13284   3.567   5.263   6.653 -0.1657 -0.9748  0.5698
  125OSM    H3S13285   3.468   5.229   6.689 -1.9913  2.3475 -1.1138
  125OSM     O313286   3.538   5.332   6.531 -0.0364  0.0168  0.1597
  125OSM    HO313287   3.557   5.268   6.461 -0.0309  0.2702 -0.0694
  125OSM    C4S13288   3.633   5.354   6.766 -0.3166 -0.3039  0.3903
  125OSM    H4S13289   3.571   5.347   6.856 -0.5340 -2.3027  0.1023
  125OSM    C5S13290   3.725   5.446   6.753 -0.6598  0.3718  0.5470
  125OSM    H5S13291   3.764   5.477   6.655  0.0918  0.0088  0.7331
  125OSM    C6S13292   3.763   5.533   6.874  0.2944  0.3477 -0.4567
  125OSM    H6S13293   3.702   5.625   6.863 -1.5440 -1.0836 -3.2079
  125OSM    H6T13294   3.872   5.553   6.866 -0.3423  3.7815 -1.0667
  125OSM    C7S13295   3.732   5.480   7.017 -0.3839 -0.5410 -0.5046
  125OSM    H7S13296   3.756   5.372   7.025 -0.1525 -0.5209 -0.9401
  125OSM    H7T13297   3.622   5.490   7.027 -0.2556 -0.2581  0.8153
  125OSM    C8S13298   3.811   5.551   7.128 -0.3138  0.3053  0.6379
  125OSM    H8S13299   3.914   5.563   7.091  0.2166  0.1520  2.0423
  125OSM    H8T13300   3.819   5.482   7.215 -0.8509  0.6303  0.9460
  125OSM    C9S13301   3.752   5.688   7.173  0.0542 -0.1872  0.1923
  125OSM    H9S13302   3.655   5.676   7.226  1.1243 -0.0138  2.1962
  125OSM    H9T13303   3.730   5.749   7.082  0.2200 -0.5540 -0.0979
  125OSM   C10S13304   3.844   5.757   7.263  0.2301 -0.0975 -0.0490
  125OSM   H10S13305   3.937   5.771   7.204 -0.0225  0.4728 -0.3081
  125OSM   H10T13306   3.871   5.698   7.353  0.1750 -1.8683 -1.1713
  125OSM   C11S13307   3.803   5.903   7.287 -1.2073  0.4843 -0.0702
  125OSM   H11S13308   3.708   5.904   7.344 -1.0404  0.0714  0.2130
  125OSM   H11T13309   3.793   5.965   7.195 -0.1510  1.5295  0.5120
  125OSM   C12S13310   3.905   5.972   7.372 -0.0764 -0.3390 -0.3020
  125OSM   H12S13311   3.997   5.987   7.311 -0.1345 -0.8464 -0.5185
  125OSM   H12T13312   3.938   5.904   7.454  2.3880  2.2983  0.9811
  125OSM   C13S13313   3.860   6.095   7.440  1.2804 -0.0379 -0.7518
  125OSM   H13S13314   3.768   6.078   7.500  1.3601 -1.9135 -1.1508
  125OSM   H13T13315   3.834   6.179   7.372  0.9040 -1.4754 -2.4153
  125OSM   C14S13316   3.974   6.148   7.530 -0.2070 -0.0129  0.2066
  125OSM   H14S13317   3.966   6.259   7.524  1.9997  0.2218  1.3948
  125OSM   H14T13318   4.065   6.128   7.469 -2.1634 -2.8775 -1.8653
  125OSM   C15S13319   3.973   6.114   7.673 -0.4038  0.0628  0.1218
  125OSM   H15S13320   3.961   6.003   7.678  0.0527  0.0849  2.5211
  125OSM   H15T13321   3.879   6.151   7.720 -0.1834 -0.9191  1.3800
  125OSM   C16S13322   4.090   6.168   7.750  0.5113  0.5683 -0.2186
  125OSM   H16S13323   4.104   6.271   7.712  0.6618  0.2548 -1.0087
  125OSM   H16T13324   4.185   6.122   7.716  0.3105  1.7441 -2.4817
  125OSM   C17S13325   4.075   6.161   7.900  0.0523  0.0423 -0.2696
  125OSM   H17S13326   4.025   6.065   7.927 -0.9341  0.2879 -1.1684
  125OSM   H17T13327   4.000   6.234   7.935  0.2558  0.0746  0.0995
  125OSM   C18S13328   4.209   6.182   7.973  0.0528  0.3329  0.0019
  125OSM   H18S13329   4.279   6.098   7.951 -0.9918 -0.1365 -1.5718
  125OSM   H18T13330   4.190   6.196   8.081  0.9744 -2.3525  0.5563
  125OSM   H18U13331   4.245   6.281   7.937  0.5509 -0.2346 -1.0822
  125OSM    C1F13332   3.761   4.977   6.805 -0.0144  0.2099  0.0702
  125OSM     OF13333   3.855   4.937   6.734  0.5489  0.5910 -0.1336
  125OSM    C2F13334   3.740   4.921   6.946 -0.0517 -0.1029 -0.2061
  125OSM    H2F13335   3.636   4.883   6.948  0.3586 -1.2352 -0.0830
  125OSM    H2G13336   3.755   5.006   7.016 -1.0218 -0.8953  0.9966
  125OSM    C3F13337   3.826   4.794   6.966  0.0504 -0.6062  0.1290
  125OSM    H3F13338   3.930   4.832   6.962 -0.7706  2.1144  3.1123
  125OSM    H3G13339   3.792   4.731   6.881 -3.5210  0.9100  0.3666
  125OSM    C4F13340   3.806   4.722   7.097  0.0850 -0.4796  0.7347
  125OSM    H4F13341   3.875   4.635   7.096 -1.4671 -1.7159  0.1988
  125OSM    H4G13342   3.706   4.681   7.120 -0.1810 -0.6074 -0.6108
  125OSM    C5F13343   3.844   4.805   7.221 -0.3487 -0.3067 -0.2496
  125OSM    H5F13344   3.768   4.886   7.228 -3.4266 -3.1988  0.6329
  125OSM    H5G13345   3.945   4.851   7.205 -0.1923  0.0538  1.7099
  125OSM    C6F13346   3.837   4.725   7.347 -0.3913  0.0449 -0.4829
  125OSM    H6F13347   3.885   4.625   7.356 -1.5477 -0.4893 -0.0251
  125OSM    H6G13348   3.728   4.706   7.355 -0.6410  1.6145 -0.1114
  125OSM    C7F13349   3.878   4.815   7.465 -0.2821 -0.0516 -0.4631
  125OSM    H7F13350   3.813   4.905   7.463 -0.7462 -0.3427  0.8713
  125OSM    H7G13351   3.983   4.850   7.452 -1.0664  2.0671 -1.2680
  125OSM    C8F13352   3.881   4.742   7.599 -1.0830  0.3594 -0.2198
  125OSM    H8F13353   3.933   4.803   7.676 -0.9201 -0.2059  0.1228
  125OSM    H8G13354   3.924   4.640   7.591 -2.3583 -0.0970 -1.3902
  125OSM    C9F13355   3.747   4.708   7.651  0.7460 -0.1132  0.3840
  125OSM    H9F13356   3.699   4.631   7.589  0.0862  0.0656  0.6680
  125OSM   C10F13357   3.689   4.752   7.763  0.0178  0.8223 -0.4009
  125OSM   H10F13358   3.585   4.724   7.786 -0.4838  1.5670 -1.6973
  125OSM   C11F13359   3.748   4.854   7.857  0.0050 -0.4966 -0.1721
  125OSM   H11F13360   3.668   4.885   7.927  0.6067  1.7807 -0.4543
  125OSM   H11G13361   3.796   4.936   7.799 -2.1014  0.8427 -0.0731
  125OSM   C12F13362   3.853   4.793   7.946 -0.0330 -0.1111  0.6877
  125OSM   H12F13363   3.948   4.790   7.887 -0.8609  0.1597 -0.6721
  125OSM   H12G13364   3.829   4.688   7.976  1.6529 -0.4922  0.7654
  125OSM   C13F13365   3.872   4.877   8.073  0.4061  0.6759 -0.2956
  125OSM   H13F13366   3.774   4.882   8.125  0.4312  1.0634 -0.2826
  125OSM   H13G13367   3.898   4.979   8.039 -1.2276  1.2974  0.2494
  125OSM   C14F13368   3.998   4.835   8.164 -0.1308  0.9046  0.0677
  125OSM   H14F13369   4.088   4.820   8.100  0.3499 -2.6417  1.4632
  125OSM   H14G13370   3.984   4.736   8.213  1.4786  0.8931  0.5467
  125OSM   C15F13371   4.023   4.936   8.281 -1.2845  0.3908 -0.5492
  125OSM   H15F13372   3.945   4.909   8.354  0.6348 -1.5082  0.8595
  125OSM   H15G13373   4.015   5.037   8.235 -2.2190  0.3511 -0.4794
  125OSM   C16F13374   4.158   4.924   8.354  0.1969 -0.3231 -0.3240
  125OSM   H16F13375   4.161   4.989   8.444 -1.8631 -1.6033  0.7295
  125OSM   H16G13376   4.229   4.949   8.273  1.1731  0.6236  0.7956
  125OSM   C17F13377   4.197   4.783   8.402 -0.1415 -0.2768  0.2986
  125OSM   H17F13378   4.197   4.715   8.315  1.3895  1.5831 -1.2019
  125OSM   H17G13379   4.123   4.741   8.474 -1.2635  0.8161 -0.1885
  125OSM   C18F13380   4.340   4.783   8.453 -0.1775 -0.0804  0.1043
  125OSM   H18F13381   4.368   4.680   8.486  1.2615  0.3014  0.1304
  125OSM   H18G13382   4.353   4.858   8.534  1.0609 -2.5582  2.3107
  125OSM   H18H13383   4.404   4.819   8.370 -1.4343  1.8438 -0.0486
  126OSM      N13384   0.529   2.145   6.185 -0.3733  0.2170  0.4391
  126OSM    C1513385   0.511   2.263   6.105 -0.7242 -0.0328  0.2966
  126OSM   H15A13386   0.570   2.348   6.133  0.0517 -1.1625  2.2120
  126OSM   H15B13387   0.407   2.293   6.114 -0.5267  0.6145  0.4011
  126OSM   H15C13388   0.543   2.245   6.004 -0.5015 -2.1118  0.7076
  126OSM    C1413389   0.433   2.042   6.129  0.0164  0.0816 -0.2327
  126OSM   H14A13390   0.470   2.010   6.032 -0.2196  2.4633 -1.1489
  126OSM   H14B13391   0.332   2.073   6.105  0.2692  1.8537  0.9209
  126OSM   H14C13392   0.410   1.965   6.201 -0.7042  1.9595  1.5831
  126OSM    C1313393   0.670   2.107   6.170  0.1150 -0.4288  0.6871
  126OSM   H13A13394   0.694   2.007   6.203 -0.0832 -1.0808 -1.1055
  126OSM   H13B13395   0.728   2.179   6.226  1.2224 -0.3177 -0.5698
  126OSM   H13C13396   0.701   2.137   6.070  0.8347  1.1926  1.3703
  126OSM    C1213397   0.497   2.173   6.333 -0.0283 -0.3724 -0.4751
  126OSM   H12A13398   0.486   2.081   6.387 -0.1326 -0.2091 -0.2165
  126OSM   H12B13399   0.399   2.217   6.344  1.6187  2.6371  3.4936
  126OSM    C1113400   0.594   2.258   6.404 -0.0016  0.2964  0.0329
  126OSM   H11A13401   0.552   2.315   6.489 -0.9120 -0.0082 -0.2135
  126OSM   H11B13402   0.638   2.331   6.332  0.7255 -1.7065 -1.5904
  126OSM      P13403   0.685   2.082   6.573 -0.3238 -0.3348  0.0085
  126OSM    O1313404   0.563   1.996   6.556  0.0137  0.4677 -0.3639
  126OSM    O1413405   0.815   2.024   6.599  0.5067 -0.3882  0.7074
  126OSM    O1113406   0.650   2.178   6.698  0.6824 -0.5556 -0.4313
  126OSM    O1213407   0.708   2.174   6.439 -0.3017  0.0734  0.0623
  126OSM    C1S13408   0.584   2.128   6.815  1.0042 -0.8130 -0.2563
  126OSM    H1S13409   0.615   2.024   6.840 -0.8782 -1.4088 -0.2994
  126OSM    H1T13410   0.475   2.138   6.797  1.1963  0.3968 -0.7853
  126OSM     NF13411   0.589   2.144   7.063  0.2277 -0.4994 -0.7785
  126OSM    HNF13412   0.509   2.167   7.118  1.3087  0.1189  0.5636
  126OSM    C2S13413   0.604   2.219   6.936  0.0063 -0.5637 -0.0426
  126OSM    H2S13414   0.704   2.267   6.929  0.4813 -1.4221  0.8107
  126OSM    C3S13415   0.498   2.334   6.915  0.3101 -0.4299  0.4401
  126OSM    H3S13416   0.398   2.286   6.920  0.7446 -1.1006  3.9310
  126OSM     O313417   0.508   2.404   6.790  0.5726 -0.8849 -0.3631
  126OSM    HO313418   0.545   2.332   6.738  0.6702  0.1657 -1.7726
  126OSM    C4S13419   0.499   2.445   7.022  0.9212 -0.2430 -0.7919
  126OSM    H4S13420   0.579   2.520   7.014 -0.4655  1.3908  0.3747
  126OSM    C5S13421   0.407   2.466   7.118  0.3691  0.3613 -0.4104
  126OSM    H5S13422   0.321   2.398   7.122 -0.9385  2.0966  3.4708
  126OSM    C6S13423   0.418   2.573   7.228  0.1690  0.3349 -0.1916
  126OSM    H6S13424   0.472   2.524   7.311 -0.0738 -0.9366 -0.7673
  126OSM    H6T13425   0.312   2.590   7.258  0.1912  1.3604 -0.6649
  126OSM    C7S13426   0.494   2.702   7.199 -0.8855 -0.3866  0.1949
  126OSM    H7S13427   0.434   2.734   7.111 -0.2897  0.4331  0.0873
  126OSM    H7T13428   0.599   2.686   7.166 -1.1992  1.5353 -1.8893
  126OSM    C8S13429   0.479   2.808   7.307 -0.4306 -0.4583 -0.6039
  126OSM    H8S13430   0.373   2.813   7.339 -0.5176 -0.8050 -0.8383
  126OSM    H8T13431   0.504   2.910   7.272 -0.5134 -0.5347 -0.8853
  126OSM    C9S13432   0.573   2.765   7.417  0.3472 -0.2156 -0.2359
  126OSM    H9S13433   0.673   2.783   7.371  0.0518  1.1282 -0.3756
  126OSM    H9T13434   0.571   2.657   7.444  1.5912 -0.8970 -2.7022
  126OSM   C10S13435   0.550   2.837   7.555 -0.5930 -0.2533  0.1051
  126OSM   H10S13436   0.505   2.937   7.537  1.5481  0.4150 -1.7488
  126OSM   H10T13437   0.651   2.849   7.599  0.1528  0.4350 -1.7626
  126OSM   C11S13438   0.466   2.745   7.653 -0.4196 -0.1649 -0.8457
  126OSM   H11S13439   0.512   2.644   7.655  1.1626  0.5627  0.2117
  126OSM   H11T13440   0.362   2.741   7.614 -0.9538 -1.6225  0.6963
  126OSM   C12S13441   0.478   2.793   7.802 -0.2001  0.1481  0.0500
  126OSM   H12S13442   0.441   2.898   7.804 -1.1933 -0.1746 -0.9572
  126OSM   H12T13443   0.585   2.799   7.834  0.0070 -2.2958 -0.0980
  126OSM   C13S13444   0.417   2.699   7.913 -0.2694 -0.2945  0.1555
  126OSM   H13S13445   0.498   2.624   7.928  0.1279  0.6721  3.3210
  126OSM   H13T13446   0.323   2.656   7.874 -0.3296  0.3885 -0.4503
  126OSM   C14S13447   0.381   2.766   8.051 -0.2574  0.2376 -0.0153
  126OSM   H14S13448   0.295   2.832   8.027  0.5487  1.2443 -0.1420
  126OSM   H14T13449   0.466   2.828   8.086 -0.5394  1.0892 -0.8149
  126OSM   C15S13450   0.335   2.671   8.154 -0.1374 -0.0131 -0.1768
  126OSM   H15S13451   0.432   2.638   8.197  0.3100  0.9059 -0.4750
  126OSM   H15T13452   0.286   2.581   8.112 -0.3931  0.3511 -0.6554
  126OSM   C16S13453   0.250   2.730   8.271  0.1720 -0.2266 -0.0428
  126OSM   H16S13454   0.149   2.740   8.226  0.5465  4.7937 -0.0548
  126OSM   H16T13455   0.290   2.831   8.299 -1.9703  0.3415  1.0570
  126OSM   C17S13456   0.236   2.647   8.398 -0.2641 -0.3823  0.0418
  126OSM   H17S13457   0.195   2.546   8.376 -0.0826 -0.4302 -0.0774
  126OSM   H17T13458   0.171   2.709   8.463  0.8384 -0.1377  0.9365
  126OSM   C18S13459   0.366   2.608   8.472 -0.1623  0.1984 -0.4591
  126OSM   H18S13460   0.431   2.697   8.481  0.6880 -0.4297 -0.2894
  126OSM   H18T13461   0.424   2.524   8.428 -0.0238 -0.3160  0.6841
  126OSM   H18U13462   0.342   2.580   8.577 -0.7685  0.4358 -0.5283
  126OSM    C1F13463   0.675   2.051   7.102 -0.2365 -0.0385  0.3047
  126OSM     OF13464   0.780   2.031   7.044  0.0928 -0.3323 -0.1972
  126OSM    C2F13465   0.637   1.974   7.223 -0.4637 -0.0867  0.0592
  126OSM    H2F13466   0.576   1.884   7.200 -2.5784  1.1090  0.8814
  126OSM    H2G13467   0.572   2.049   7.273 -1.3497 -1.6751  1.3394
  126OSM    C3F13468   0.753   1.914   7.299 -0.4620 -0.0356  0.4753
  126OSM    H3F13469   0.824   1.992   7.336  0.0107 -0.6085  0.8007
  126OSM    H3G13470   0.810   1.843   7.236 -0.4756  1.3179 -1.0951
  126OSM    C4F13471   0.717   1.833   7.435  0.1012  0.1493 -0.1678
  126OSM    H4F13472   0.814   1.789   7.467 -0.7425 -0.8130  1.1511
  126OSM    H4G13473   0.650   1.751   7.401 -0.5663  0.9478 -0.7958
  126OSM    C5F13474   0.657   1.925   7.543 -0.3771 -0.3574  0.1771
  126OSM    H5F13475   0.561   1.968   7.506  0.0891 -0.4546 -1.1869
  126OSM    H5G13476   0.723   2.014   7.550  0.0094 -0.6092 -0.2463
  126OSM    C6F13477   0.647   1.856   7.680 -0.7806 -0.2570  0.2353
  126OSM    H6F13478   0.589   1.764   7.656  0.2297 -1.0494  0.8477
  126OSM    H6G13479   0.589   1.910   7.758  1.0784 -1.1478  2.2398
  126OSM    C7F13480   0.790   1.828   7.743  1.1000 -0.1940  0.6110
  126OSM    H7F13481   0.866   1.909   7.742  1.1262 -0.2172  0.6904
  126OSM    H7G13482   0.825   1.747   7.675 -1.5978  0.1399 -1.2196
  126OSM    C8F13483   0.769   1.785   7.892  0.0215 -0.0798 -0.4529
  126OSM    H8F13484   0.842   1.707   7.922  0.5417  0.8349  0.6765
  126OSM    H8G13485   0.675   1.727   7.904  0.1979 -0.7291 -2.1291
  126OSM    C9F13486   0.750   1.906   7.982  0.4053  0.2987  0.0610
  126OSM    H9F13487   0.665   1.973   7.965 -0.0417  0.4933  2.8870
  126OSM   C10F13488   0.818   1.924   8.096 -0.1110  0.4832 -0.1878
  126OSM   H10F13489   0.802   2.016   8.154 -2.1022  1.2916 -1.9266
  126OSM   C11F13490   0.914   1.821   8.152 -0.0473  0.0589  0.3150
  126OSM   H11F13491   0.970   1.763   8.076 -0.7169 -0.5388  0.2744
  126OSM   H11G13492   0.851   1.743   8.200  0.0321 -0.0291  0.2756
  126OSM   C12F13493   0.997   1.892   8.252 -0.4098  0.4538 -0.6090
  126OSM   H12F13494   0.929   1.938   8.327 -1.2198 -1.1771 -0.3161
  126OSM   H12G13495   1.061   1.970   8.204 -1.1528  2.7793  2.0316
  126OSM   C13F13496   1.108   1.811   8.320 -0.0441  0.0629 -0.7290
  126OSM   H13F13497   1.176   1.771   8.242 -0.5339  0.5380 -1.4117
  126OSM   H13G13498   1.069   1.738   8.394  0.1040 -1.1785 -1.8547
  126OSM   C14F13499   1.183   1.913   8.404  0.8581  0.4111 -0.6458
  126OSM   H14F13500   1.114   1.951   8.482  1.9919 -0.1216  0.6464
  126OSM   H14G13501   1.211   2.006   8.350  0.3429  1.2959  0.5788
  126OSM   C15F13502   1.305   1.836   8.454 -0.0467 -0.2796  0.4963
  126OSM   H15F13503   1.383   1.821   8.377  0.7677 -1.5934  1.5512
  126OSM   H15G13504   1.261   1.741   8.490 -1.2950 -0.2287 -0.8453
  126OSM   C16F13505   1.366   1.905   8.573  0.1880  0.1610 -0.9019
  126OSM   H16F13506   1.428   1.993   8.544 -0.0730  1.4087  2.1889
  126OSM   H16G13507   1.428   1.821   8.610 -1.2188 -1.1913 -1.5352
  126OSM   C17F13508   1.278   1.944   8.686 -0.8607 -0.4361  0.1006
  126OSM   H17F13509   1.191   1.877   8.704  0.1043 -1.1075  2.3979
  126OSM   H17G13510   1.233   2.043   8.666 -0.6053 -0.1035  1.1335
  126OSM   C18F13511   1.336   1.959   8.823  0.0308  0.0610 -0.4299
  126OSM   H18F13512   1.419   2.033   8.815  0.4296 -0.4563 -1.0923
  126OSM   H18G13513   1.381   1.864   8.860  1.9047  0.8955 -0.4990
  126OSM   H18H13514   1.272   1.993   8.907  0.1459 -0.8422  0.0315
  127OSM      N13515   5.616   3.090   6.371 -0.1283 -0.5672 -0.1831
  127OSM    C1513516   5.588   3.165   6.242  0.2899  0.6522  0.3560
  127OSM   H15A13517   5.675   3.221   6.210  1.2425 -1.4796 -0.9101
  127OSM   H15B13518   5.512   3.241   6.249  1.4767  2.2062 -2.6729
  127OSM   H15C13519   5.562   3.092   6.166  3.0503  0.2499 -0.2593
  127OSM    C1413520   5.486   3.049   6.430 -0.1844 -0.0052  0.1190
  127OSM   H14A13521   5.409   3.125   6.420  0.2047  0.3222 -0.4152
  127OSM   H14B13522   5.489   3.008   6.530  3.0638  0.2888  0.1814
  127OSM   H14C13523   5.441   2.972   6.370 -1.7353 -1.6820  3.2805
  127OSM    C1313524   5.692   2.969   6.347 -0.3826 -0.0114  0.3462
  127OSM   H13A13525   5.793   2.980   6.312 -0.5847 -0.1493 -0.2832
  127OSM   H13B13526   5.638   2.909   6.275 -0.5157 -0.1787  0.5829
  127OSM   H13C13527   5.707   2.912   6.438 -1.1214  0.6849  0.9104
  127OSM    C1213528   5.679   3.189   6.470  0.9636  0.0202 -0.3597
  127OSM   H12A13529   5.680   3.141   6.567  0.2934  1.5793  0.4314
  127OSM   H12B13530   5.611   3.272   6.469  1.8176  0.7533  0.8133
  127OSM    C1113531   5.818   3.244   6.435 -0.0883  0.1141  1.1439
  127OSM   H11A13532   5.887   3.158   6.424 -0.8100 -0.2244 -1.0547
  127OSM   H11B13533   5.859   3.289   6.528 -1.9409 -1.5157  2.7816
  127OSM      P13534   5.767   3.480   6.321  0.4243  0.0462 -0.0086
  127OSM    O1313535   5.777   3.537   6.182  0.0339  0.1345 -0.3289
  127OSM    O1413536   5.631   3.482   6.380 -0.5711 -0.8157 -0.5792
  127OSM    O1113537   5.873   3.547   6.415  0.1482 -0.0417  0.0404
  127OSM    O1213538   5.821   3.336   6.318  0.4267 -0.0919 -0.2898
  127OSM    C1S13539   5.846   3.574   6.556 -0.2241  0.0981 -0.4752
  127OSM    H1S13540   5.820   3.478   6.607  1.2791  0.3791  0.8367
  127OSM    H1T13541   5.749   3.628   6.569  0.1530  1.0141 -1.3984
  127OSM     NF13542   5.908   3.684   6.772 -0.4808 -0.3328  0.0594
  127OSM    HNF13543   5.853   3.766   6.782 -0.6925 -0.4579 -0.0700
  127OSM    C2S13544   5.954   3.643   6.639 -0.2793 -0.2037 -0.5352
  127OSM    H2S13545   6.029   3.562   6.648  0.1338  0.2616  0.1699
  127OSM    C3S13546   5.997   3.760   6.557  0.5812 -0.6573 -0.0358
  127OSM    H3S13547   5.902   3.812   6.532  2.1297  1.9579 -0.6900
  127OSM     O313548   6.047   3.732   6.426  0.2343  0.1071 -0.4139
  127OSM    HO313549   5.987   3.663   6.397 -0.3860  0.2211  0.5718
  127OSM    C4S13550   6.104   3.842   6.625  0.0026  0.1779 -0.3496
  127OSM    H4S13551   6.188   3.787   6.670  0.3177 -0.3698 -1.5920
  127OSM    C5S13552   6.097   3.976   6.640  0.9253  0.0512  0.1274
  127OSM    H5S13553   6.011   4.026   6.593  0.4766 -1.0118 -0.1758
  127OSM    C6S13554   6.199   4.070   6.710 -0.5243  0.9930  0.3107
  127OSM    H6S13555   6.251   4.141   6.643  2.2517 -0.4503  0.8462
  127OSM    H6T13556   6.275   4.007   6.763 -0.0520  0.6494 -0.7524
  127OSM    C7S13557   6.137   4.156   6.827  1.0726 -0.0606 -0.2251
  127OSM    H7S13558   6.061   4.226   6.786 -0.7565 -0.4160  2.3988
  127OSM    H7T13559   6.214   4.218   6.877 -0.1865  0.5618  0.9772
  127OSM    C8S13560   6.072   4.077   6.944  0.1678  0.2419 -0.0648
  127OSM    H8S13561   6.143   4.010   6.996 -0.1394  2.2367  3.0487
  127OSM    H8T13562   6.011   3.993   6.904  4.2867 -1.4525 -3.1589
  127OSM    C9S13563   6.004   4.160   7.054  0.8690  0.0592  0.2295
  127OSM    H9S13564   5.933   4.227   7.001  0.7669 -0.4672 -0.3098
  127OSM    H9T13565   6.077   4.226   7.106 -0.9025  3.1320 -1.0532
  127OSM   C10S13566   5.938   4.075   7.163 -0.1296  0.4459 -0.4674
  127OSM   H10S13567   6.006   3.992   7.193  0.8706  0.7127 -1.9206
  127OSM   H10T13568   5.846   4.042   7.111  2.0778 -2.9138 -2.4613
  127OSM   C11S13569   5.901   4.170   7.279  1.2167  0.0180 -1.1062
  127OSM   H11S13570   5.821   4.237   7.243  0.5492 -0.3901 -0.4100
  127OSM   H11T13571   5.989   4.215   7.331  0.3334 -1.8650  2.1945
  127OSM   C12S13572   5.841   4.087   7.401 -0.2071  0.7469 -0.6764
  127OSM   H12S13573   5.926   4.023   7.431  0.8537  1.7781 -1.4305
  127OSM   H12T13574   5.750   4.033   7.367 -2.3404  1.5365  3.4177
  127OSM   C13S13575   5.808   4.166   7.534 -0.1772 -0.3528 -0.6021
  127OSM   H13S13576   5.823   4.276   7.528 -2.4663  0.0762  1.0025
  127OSM   H13T13577   5.878   4.139   7.616  1.4151  0.2706 -1.7068
  127OSM   C14S13578   5.665   4.148   7.574  0.0326  0.2235  0.4151
  127OSM   H14S13579   5.648   4.039   7.586 -1.4055  0.5397  1.2719
  127OSM   H14T13580   5.595   4.187   7.498 -0.7041 -3.2926 -0.8385
  127OSM   C15S13581   5.614   4.211   7.708  0.0562 -0.4386 -0.1374
  127OSM   H15S13582   5.503   4.213   7.703 -0.0654  2.0920  2.0571
  127OSM   H15T13583   5.661   4.311   7.720  0.2497 -0.7039  1.4225
  127OSM   C16S13584   5.668   4.140   7.835 -0.0244 -0.2194  0.4934
  127OSM   H16S13585   5.779   4.146   7.843  0.2571 -0.4522 -2.8013
  127OSM   H16T13586   5.652   4.032   7.814  1.7369 -0.1787 -1.2067
  127OSM   C17S13587   5.601   4.194   7.959 -0.1453  0.1839  0.6751
  127OSM   H17S13588   5.491   4.197   7.950 -0.0334  0.3289 -0.7288
  127OSM   H17T13589   5.644   4.296   7.968  3.8030 -1.0732 -2.3380
  127OSM   C18S13590   5.649   4.108   8.085 -0.1376 -0.1251 -0.1167
  127OSM   H18S13591   5.614   4.160   8.176  1.1267 -0.0194  0.3229
  127OSM   H18T13592   5.759   4.091   8.091 -0.1358 -0.5100 -1.0125
  127OSM   H18U13593   5.604   4.007   8.079  0.3381 -0.5502  2.9496
  127OSM    C1F13594   5.899   3.596   6.866 -0.1163 -0.4849  0.1003
  127OSM     OF13595   5.908   3.479   6.843  0.5787 -0.2005 -0.3442
  127OSM    C2F13596   5.863   3.637   7.007  0.6349  0.4594  0.5704
  127OSM    H2F13597   5.756   3.664   7.016  0.4957  0.1321 -0.0722
  127OSM    H2G13598   5.921   3.730   7.020  1.5830 -0.2160  1.2157
  127OSM    C3F13599   5.878   3.539   7.127 -0.3277 -0.0913 -0.6471
  127OSM    H3F13600   5.986   3.516   7.138 -0.8853 -1.8355  1.7061
  127OSM    H3G13601   5.828   3.442   7.103  1.5963 -0.9319 -1.3951
  127OSM    C4F13602   5.819   3.589   7.256 -0.4825  0.1380 -0.1032
  127OSM    H4F13603   5.808   3.502   7.324  1.2722  1.2982  1.7643
  127OSM    H4G13604   5.714   3.620   7.234  0.4109  3.9599  0.5631
  127OSM    C5F13605   5.876   3.713   7.322 -0.5384  0.0558 -0.4460
  127OSM    H5F13606   5.813   3.798   7.288 -0.3342  1.3614  2.3251
  127OSM    H5G13607   5.973   3.745   7.278  0.5374  1.0972  2.5689
  127OSM    C6F13608   5.898   3.698   7.475 -0.1626  0.0501 -0.0069
  127OSM    H6F13609   5.941   3.793   7.511  0.6171 -1.1601  2.3613
  127OSM    H6G13610   5.952   3.601   7.476 -0.0363  0.1078 -0.8139
  127OSM    C7F13611   5.761   3.683   7.548 -0.1597  0.1520  0.0112
  127OSM    H7F13612   5.693   3.603   7.510  0.2453  0.3470 -1.1600
  127OSM    H7G13613   5.702   3.776   7.529 -0.3488 -0.7721 -4.6031
  127OSM    C8F13614   5.789   3.655   7.695  0.5169 -1.1107  0.2239
  127OSM    H8F13615   5.853   3.565   7.688  1.3751 -0.3635 -1.8586
  127OSM    H8G13616   5.696   3.636   7.754 -0.4106  1.0146 -0.4808
  127OSM    C9F13617   5.858   3.774   7.765  0.0963 -0.4764 -0.0140
  127OSM    H9F13618   5.802   3.868   7.751 -0.2532 -1.1301 -3.4041
  127OSM   C10F13619   5.977   3.777   7.827 -0.3980  0.4695 -1.2851
  127OSM   H10F13620   6.013   3.873   7.867  0.3446  0.2792 -1.4872
  127OSM   C11F13621   6.066   3.658   7.844 -0.1410  0.0278  0.3708
  127OSM   H11F13622   6.161   3.683   7.792 -0.8290  0.3813 -0.7111
  127OSM   H11G13623   6.020   3.570   7.794 -1.4940  0.3882  0.9690
  127OSM   C12F13624   6.108   3.632   7.994  0.1324  0.2609 -0.0397
  127OSM   H12F13625   6.169   3.718   8.030  1.7991 -0.7389 -0.4494
  127OSM   H12G13626   6.175   3.544   7.992 -0.2422 -0.0816  1.4826
  127OSM   C13F13627   5.990   3.615   8.092  0.0628 -0.3548  0.4342
  127OSM   H13F13628   5.939   3.524   8.055  1.0277 -0.0059 -1.8223
  127OSM   H13G13629   5.919   3.701   8.097 -0.2225 -0.4689 -1.2446
  127OSM   C14F13630   6.027   3.591   8.241 -0.0036  0.1008 -0.4360
  127OSM   H14F13631   6.104   3.511   8.238  0.0670  0.1138  0.7462
  127OSM   H14G13632   5.940   3.556   8.302 -0.5856 -1.5056 -2.1450
  127OSM   C15F13633   6.098   3.716   8.312 -0.9613 -0.6090  0.1620
  127OSM   H15F13634   6.191   3.739   8.256 -0.4565  1.6563  1.8454
  127OSM   H15G13635   6.120   3.680   8.415 -1.5716 -2.5026 -0.3591
  127OSM   C16F13636   6.007   3.834   8.309 -0.5279 -0.1575 -0.1913
  127OSM   H16F13637   5.905   3.804   8.339 -0.3300 -0.6805 -0.0273
  127OSM   H16G13638   5.992   3.881   8.209  2.9652 -0.2885 -0.8404
  127OSM   C17F13639   6.051   3.951   8.400  0.5477 -0.2645 -0.3298
  127OSM   H17F13640   6.126   4.008   8.342  0.7362  2.0842  2.1249
  127OSM   H17G13641   6.102   3.909   8.489  0.5291  1.2467  0.3984
  127OSM   C18F13642   5.951   4.054   8.439  0.2290  0.1609  0.4800
  127OSM   H18F13643   5.930   4.139   8.370  3.1031  1.6801  1.4016
  127OSM   H18G13644   5.993   4.110   8.525  1.6044 -0.4681  0.2194
  127OSM   H18H13645   5.851   4.013   8.465  0.2340 -0.5530 -0.6010
  128OSM      N13646   5.689   1.443   5.984  0.1089  0.3111  0.8522
  128OSM    C1513647   5.615   1.406   5.860  0.4024  0.8668  0.2454
  128OSM   H15A13648   5.566   1.311   5.869  2.1692 -0.1448 -0.6082
  128OSM   H15B13649   5.682   1.405   5.775 -0.8072  1.5677 -0.7425
  128OSM   H15C13650   5.532   1.472   5.837 -0.4668  0.7186  2.7499
  128OSM    C1413651   5.777   1.566   5.965  0.4775 -0.6342 -0.1378
  128OSM   H14A13652   5.869   1.549   5.911  1.4451 -0.8247  1.5335
  128OSM   H14B13653   5.807   1.609   6.060 -0.3842  3.1537 -1.4893
  128OSM   H14C13654   5.724   1.642   5.909  0.4990 -0.4176  0.1323
  128OSM    C1313655   5.587   1.479   6.090 -0.3357  0.1085 -0.7878
  128OSM   H13A13656   5.536   1.390   6.124 -2.3706  1.6252  0.2796
  128OSM   H13B13657   5.527   1.549   6.033 -1.0876 -1.6187 -2.1833
  128OSM   H13C13658   5.627   1.524   6.179 -1.3074  2.0609 -1.2963
  128OSM    C1213659   5.779   1.328   6.038  0.0838  0.9428  0.0011
  128OSM   H12A13660   5.805   1.341   6.142  0.9798  1.9667 -0.3414
  128OSM   H12B13661   5.869   1.325   5.978 -0.7273  2.5678 -1.3315
  128OSM    C1113662   5.716   1.190   6.036 -0.1952  0.3625 -0.1434
  128OSM   H11A13663   5.697   1.159   5.931  0.2762 -0.0594 -0.1033
  128OSM   H11B13664   5.622   1.191   6.096 -0.8393  0.8153 -1.1644
  128OSM      P13665   5.844   1.085   6.242  0.3442  0.3446 -0.1790
  128OSM    O1313666   5.933   0.973   6.267  0.0688  0.3986 -0.4737
  128OSM    O1413667   5.886   1.211   6.308  0.2449  0.5987  0.1361
  128OSM    O1113668   5.702   1.042   6.306 -0.5792  0.0653 -0.5393
  128OSM    O1213669   5.818   1.097   6.087  0.1723  0.3088 -0.4383
  128OSM    C1S13670   5.691   0.946   6.411 -0.5080  0.1234  0.2650
  128OSM    H1S13671   5.775   0.873   6.412  0.7990  1.6104 -0.1909
  128OSM    H1T13672   5.601   0.880   6.405  0.0398 -0.4929 -1.7966
  128OSM     NF13673   5.697   0.940   6.659  0.0512  0.7955 -0.3318
  128OSM    HNF13674   5.610   0.899   6.683 -0.2237  0.7799 -1.3255
  128OSM    C2S13675   5.689   1.030   6.540 -0.1484  0.4830 -0.3004
  128OSM    H2S13676   5.776   1.098   6.555 -0.0359 -0.1009  1.8199
  128OSM    C3S13677   5.564   1.122   6.542  0.1816 -0.7831 -1.0377
  128OSM    H3S13678   5.478   1.053   6.529 -1.3533  0.1851  3.0365
  128OSM     O313679   5.564   1.219   6.443  0.1358 -0.0768  0.6267
  128OSM    HO313680   5.615   1.179   6.374  0.1595 -0.6044  0.9472
  128OSM    C4S13681   5.541   1.199   6.669 -0.2544  0.0391 -0.0093
  128OSM    H4S13682   5.620   1.272   6.688  0.1712 -0.4648  0.1882
  128OSM    C5S13683   5.450   1.172   6.765  0.4948  0.2929  0.2645
  128OSM    H5S13684   5.380   1.089   6.746 -2.1746  2.2763  1.1609
  128OSM    C6S13685   5.432   1.242   6.900  1.3274 -0.4195 -0.3049
  128OSM    H6S13686   5.339   1.300   6.915  1.8098 -0.5552  3.6530
  128OSM    H6T13687   5.509   1.322   6.900  0.3796  0.5099  0.7680
  128OSM    C7S13688   5.458   1.134   7.007  0.5841 -0.2746  0.0814
  128OSM    H7S13689   5.556   1.083   6.995  1.2535  1.5349 -2.4874
  128OSM    H7T13690   5.383   1.055   6.983  0.9941 -0.5849 -0.1725
  128OSM    C8S13691   5.457   1.182   7.150  0.5322 -0.4755  0.5507
  128OSM    H8S13692   5.349   1.190   7.175 -0.2022 -0.3714 -2.3573
  128OSM    H8T13693   5.505   1.280   7.173 -0.6094  0.1647  0.2449
  128OSM    C9S13694   5.524   1.081   7.243  0.1745 -0.2853 -0.7440
  128OSM    H9S13695   5.627   1.060   7.207  1.0549  3.4345 -0.6748
  128OSM    H9T13696   5.466   0.987   7.253 -0.6390  0.4716  2.2797
  128OSM   C10S13697   5.543   1.138   7.392 -0.4807  0.6647  0.4382
  128OSM   H10S13698   5.613   1.224   7.391  2.7025 -1.8704 -0.5700
  128OSM   H10T13699   5.593   1.058   7.451  0.6327  0.9461 -0.1137
  128OSM   C11S13700   5.414   1.192   7.453 -0.1534 -0.9378 -0.1236
  128OSM   H11S13701   5.333   1.123   7.419 -1.0892 -0.4676  1.1190
  128OSM   H11T13702   5.399   1.296   7.418 -1.8930 -0.9698  0.4500
  128OSM   C12S13703   5.417   1.205   7.609  0.3204  0.1535  0.0173
  128OSM   H12S13704   5.404   1.099   7.641  0.8300 -0.2498 -1.0717
  128OSM   H12T13705   5.325   1.256   7.646 -0.3191 -0.3466 -0.8631
  128OSM   C13S13706   5.548   1.272   7.668 -1.1129  0.4130  0.7288
  128OSM   H13S13707   5.558   1.372   7.620 -1.0875 -0.0870 -0.3172
  128OSM   H13T13708   5.635   1.215   7.629 -2.6623  0.0918 -2.4465
  128OSM   C14S13709   5.541   1.282   7.819 -0.2877 -0.2994 -0.1273
  128OSM   H14S13710   5.527   1.174   7.842  0.9245 -0.6356 -0.8954
  128OSM   H14T13711   5.449   1.328   7.860 -0.5765 -1.2525  0.3153
  128OSM   C15S13712   5.675   1.325   7.886  0.1148  0.5495 -0.0188
  128OSM   H15S13713   5.695   1.428   7.849 -1.7870  0.2365 -2.0544
  128OSM   H15T13714   5.749   1.252   7.848 -0.4807  0.4933 -1.0809
  128OSM   C16S13715   5.661   1.323   8.030 -0.1442 -0.1598 -0.4587
  128OSM   H16S13716   5.625   1.226   8.069  0.3153 -0.9397 -1.9760
  128OSM   H16T13717   5.576   1.386   8.065 -0.4131 -0.1377 -1.1526
  128OSM   C17S13718   5.778   1.375   8.117 -0.1062 -0.1311 -0.1729
  128OSM   H17S13719   5.786   1.483   8.093  2.0177 -0.0252  0.8591
  128OSM   H17T13720   5.877   1.344   8.075  0.3164 -1.9264  2.0295
  128OSM   C18S13721   5.783   1.330   8.261  0.4832 -0.8402 -0.1814
  128OSM   H18S13722   5.860   1.387   8.317 -1.5283  0.1449  1.6643
  128OSM   H18T13723   5.797   1.220   8.258  1.5980 -0.7082 -0.2095
  128OSM   H18U13724   5.693   1.353   8.322 -0.0745 -1.7613 -0.6315
  128OSM    C1F13725   5.814   0.881   6.687  0.5250 -0.6928 -0.2447
  128OSM     OF13726   5.918   0.920   6.628  0.0565 -0.1983  0.6841
  128OSM    C2F13727   5.814   0.762   6.776 -0.9076  0.1068 -0.4659
  128OSM    H2F13728   5.914   0.721   6.748 -1.2934 -2.0088  1.1547
  128OSM    H2G13729   5.733   0.694   6.746 -1.3747  1.2468 -1.8390
  128OSM    C3F13730   5.811   0.795   6.925  0.0586  0.2970  0.3574
  128OSM    H3F13731   5.721   0.858   6.942  0.2970  0.8206 -0.3090
  128OSM    H3G13732   5.899   0.858   6.950  1.5904 -0.6049 -2.5612
  128OSM    C4F13733   5.808   0.663   7.010 -0.4037 -0.5641  0.0339
  128OSM    H4F13734   5.914   0.629   7.004 -0.5787 -1.5403  2.0808
  128OSM    H4G13735   5.738   0.594   6.957 -0.3924  0.0224 -0.7565
  128OSM    C5F13736   5.762   0.698   7.152 -0.4765  0.3174 -0.0650
  128OSM    H5F13737   5.760   0.602   7.208  1.0638 -0.7080 -1.6971
  128OSM    H5G13738   5.663   0.747   7.161 -0.6727 -0.1881  0.5826
  128OSM    C6F13739   5.854   0.791   7.230 -0.3895  0.1059 -0.1574
  128OSM    H6F13740   5.865   0.888   7.176  0.0296  0.1069 -0.0721
  128OSM    H6G13741   5.956   0.750   7.245  0.9650  2.4863 -2.3704
  128OSM    C7F13742   5.788   0.828   7.364 -0.1150  0.6563  0.0498
  128OSM    H7F13743   5.787   0.729   7.415  1.1860 -0.6359 -2.3646
  128OSM    H7G13744   5.687   0.873   7.353  0.4975  1.6731 -1.6048
  128OSM    C8F13745   5.875   0.934   7.433 -0.3166 -0.2464  0.3104
  128OSM    H8F13746   5.806   0.980   7.507  1.7056  0.7408  1.6100
  128OSM    H8G13747   5.905   1.020   7.370  1.7946 -1.0350  0.2153
  128OSM    C9F13748   5.999   0.870   7.488  0.1990 -0.3788 -0.0418
  128OSM    H9F13749   6.030   0.776   7.440  0.9190 -0.2748  0.2206
  128OSM   C10F13750   6.063   0.916   7.600  0.1864  0.5096  0.1642
  128OSM   H10F13751   6.153   0.864   7.636  0.3939  2.1460  2.1139
  128OSM   C11F13752   6.041   1.033   7.692  0.4713 -0.2577 -1.8169
  128OSM   H11F13753   5.984   1.115   7.642  0.4980 -0.2874 -1.8968
  128OSM   H11G13754   6.142   1.067   7.720  0.3910 -1.0685 -0.4951
  128OSM   C12F13755   5.964   1.005   7.823 -0.0213  0.2391 -0.2787
  128OSM   H12F13756   5.968   1.091   7.893  1.8270  0.1359 -0.2344
  128OSM   H12G13757   6.020   0.921   7.869  0.5597  0.6758 -0.1874
  128OSM   C13F13758   5.811   0.970   7.823 -0.1854 -0.2414 -0.1499
  128OSM   H13F13759   5.798   0.865   7.791  1.1519 -0.6856  0.7607
  128OSM   H13G13760   5.747   1.046   7.772  0.0712  0.5200  0.6518
  128OSM   C14F13761   5.753   0.963   7.965 -0.4420 -0.6570  0.0521
  128OSM   H14F13762   5.644   0.941   7.959 -1.2092  2.8267  0.3817
  128OSM   H14G13763   5.750   1.065   8.007 -2.0647 -1.1879  1.2905
  128OSM   C15F13764   5.828   0.865   8.060 -0.1774  1.1564  0.8526
  128OSM   H15F13765   5.934   0.900   8.065  0.7351 -1.0225 -1.7945
  128OSM   H15G13766   5.820   0.761   8.022  1.1324  1.5160 -0.4553
  128OSM   C16F13767   5.775   0.878   8.206 -0.0966 -0.0767 -0.3375
  128OSM   H16F13768   5.793   0.984   8.234  0.6229 -0.5260  0.9723
  128OSM   H16G13769   5.851   0.814   8.256  2.4590  3.4072  0.4404
  128OSM   C17F13770   5.629   0.854   8.245 -0.2565 -0.3715  0.2665
  128OSM   H17F13771   5.597   0.761   8.193  2.1944 -2.2228  1.9267
  128OSM   H17G13772   5.589   0.949   8.203  0.0533  0.9473  2.8209
  128OSM   C18F13773   5.613   0.839   8.396  0.0128 -0.0024 -0.6350
  128OSM   H18F13774   5.652   0.744   8.439  2.8725  0.1794 -2.7209
  128OSM   H18G13775   5.506   0.842   8.425  0.2296 -1.3763  0.3845
  128OSM   H18H13776   5.649   0.930   8.448  1.8312 -1.7240  1.2321
  129OSM      N13777   3.970   1.724   5.935 -0.8814 -0.5977  0.3291
  129OSM    C1513778   3.901   1.596   5.928  0.0277 -0.1310  0.5282
  129OSM   H15A13779   3.951   1.527   5.862  0.1564  0.1499  0.3293
  129OSM   H15B13780   3.807   1.598   5.875 -0.8847  2.7703  2.1007
  129OSM   H15C13781   3.863   1.550   6.018 -2.0235 -2.0193 -1.2504
  129OSM    C1413782   4.068   1.705   6.044  0.9824 -0.0354 -0.1086
  129OSM   H14A13783   4.039   1.683   6.146  0.3969 -0.8638 -0.4518
  129OSM   H14B13784   4.136   1.788   6.056 -0.4293  0.6994  3.4710
  129OSM   H14C13785   4.132   1.621   6.021  2.9586  1.6146 -0.8584
  129OSM    C1313786   4.052   1.742   5.812  0.5235  0.4050 -0.1022
  129OSM   H13A13787   3.988   1.727   5.727 -1.1909 -1.1110  1.3914
  129OSM   H13B13788   4.142   1.683   5.804 -0.2410 -0.5311 -2.1254
  129OSM   H13C13789   4.089   1.843   5.808  0.9729  0.3112  1.1854
  129OSM    C1213790   3.888   1.846   5.966  0.1136 -0.5685 -0.4836
  129OSM   H12A13791   3.868   1.850   6.073  1.6251  2.4169 -0.2675
  129OSM   H12B13792   3.786   1.842   5.930 -0.4919  0.9791  0.9909
  129OSM    C1113793   3.948   1.995   5.944  0.4131 -0.6710 -0.4720
  129OSM   H11A13794   3.884   2.068   5.998  1.9684  0.9920 -0.7886
  129OSM   H11B13795   3.949   2.020   5.836 -2.6233  0.5529 -0.2612
  129OSM      P13796   4.127   2.068   6.128 -0.0466  0.2772  0.4299
  129OSM    O1313797   4.271   2.034   6.145 -0.1004  0.1594 -0.5391
  129OSM    O1413798   4.096   2.213   6.134 -0.2104 -0.1335 -0.7495
  129OSM    O1113799   4.043   1.994   6.234  0.1386 -0.8014  0.5688
  129OSM    O1213800   4.087   2.007   5.986 -0.1957  0.0363  0.2959
  129OSM    C1S13801   4.079   1.955   6.358 -0.0855  0.2117 -0.0102
  129OSM    H1S13802   4.190   1.950   6.364 -0.1505  0.9288  2.1580
  129OSM    H1T13803   4.031   1.858   6.382  1.2835 -0.9451 -1.8045
  129OSM     NF13804   4.089   2.022   6.598  0.1498 -0.3765 -0.1052
  129OSM    HNF13805   4.016   1.973   6.644  0.8947  0.3580  1.9149
  129OSM    C2S13806   4.050   2.067   6.468 -0.0558 -0.0683 -0.1366
  129OSM    H2S13807   4.116   2.151   6.437 -0.2345 -0.5341 -1.8815
  129OSM    C3S13808   3.900   2.105   6.457 -0.2985  0.3383 -0.3629
  129OSM    H3S13809   3.834   2.016   6.460  0.7358 -0.3700  2.4518
  129OSM     O313810   3.860   2.178   6.340 -0.3669 -0.1163  0.3021
  129OSM    HO313811   3.942   2.187   6.292 -0.5124  2.4814  0.5137
  129OSM    C4S13812   3.850   2.193   6.572 -0.4803 -0.6656  0.2333
  129OSM    H4S13813   3.877   2.299   6.563  1.6813 -1.0920  1.3564
  129OSM    C5S13814   3.760   2.161   6.666 -0.1247  0.3467  0.4857
  129OSM    H5S13815   3.710   2.063   6.664 -0.1828  0.3767  0.4857
  129OSM    C6S13816   3.711   2.254   6.773  0.0682 -0.1857  0.2051
  129OSM    H6S13817   3.607   2.292   6.762  0.9790  2.0749 -0.8984
  129OSM    H6T13818   3.780   2.341   6.780  0.0175  0.1263 -2.6250
  129OSM    C7S13819   3.706   2.203   6.922  0.2212  0.3891  0.2656
  129OSM    H7S13820   3.801   2.164   6.966 -0.0794  0.3689  0.9102
  129OSM    H7T13821   3.635   2.118   6.931  0.8092 -0.1674 -0.3384
  129OSM    C8S13822   3.654   2.312   7.018  0.1471 -0.3588  0.4004
  129OSM    H8S13823   3.543   2.316   7.012  0.3084 -1.0370 -5.1343
  129OSM    H8T13824   3.701   2.411   7.006  0.3970 -0.7183 -1.6308
  129OSM    C9S13825   3.675   2.281   7.168 -0.6825  0.5891  0.2522
  129OSM    H9S13826   3.784   2.270   7.188 -1.1145  0.3369  2.6314
  129OSM    H9T13827   3.618   2.190   7.196  0.0623 -0.2204 -0.8067
  129OSM   C10S13828   3.637   2.406   7.252  0.3273  0.2792  0.0180
  129OSM   H10S13829   3.532   2.439   7.237  0.8187  1.6196 -0.5485
  129OSM   H10T13830   3.707   2.486   7.219 -0.6877  0.9548 -0.5232
  129OSM   C11S13831   3.644   2.396   7.409 -0.4256 -1.2745 -0.0147
  129OSM   H11S13832   3.752   2.375   7.424 -0.0055 -1.3468 -2.9972
  129OSM   H11T13833   3.585   2.312   7.449 -1.7607  0.0323  0.8226
  129OSM   C12S13834   3.621   2.525   7.493  0.3524 -0.7228  0.4463
  129OSM   H12S13835   3.520   2.565   7.469  1.1095  1.8234  1.3305
  129OSM   H12T13836   3.699   2.599   7.465 -0.7932  0.8446  1.2782
  129OSM   C13S13837   3.621   2.500   7.645 -0.6476  0.6672 -0.1242
  129OSM   H13S13838   3.722   2.459   7.666 -0.6563  0.0170 -1.3239
  129OSM   H13T13839   3.551   2.416   7.662  0.1136 -0.3028 -1.6346
  129OSM   C14S13840   3.618   2.634   7.726  0.4928  0.2689 -0.1609
  129OSM   H14S13841   3.537   2.696   7.682  0.0934 -0.9161 -1.1400
  129OSM   H14T13842   3.707   2.696   7.700 -0.5632  2.7489  1.9418
  129OSM   C15S13843   3.602   2.611   7.877  0.7411  0.4259  0.9753
  129OSM   H15S13844   3.687   2.565   7.932  1.3225 -2.1121 -1.9229
  129OSM   H15T13845   3.518   2.540   7.885  0.8824 -0.0588 -1.3292
  129OSM   C16S13846   3.582   2.741   7.952 -0.3161 -0.4907  0.2059
  129OSM   H16S13847   3.505   2.809   7.911 -1.4228 -2.0312 -0.3357
  129OSM   H16T13848   3.683   2.785   7.941 -1.0322  2.1786  3.3778
  129OSM   C17S13849   3.557   2.719   8.103 -0.7168  0.0425 -0.1524
  129OSM   H17S13850   3.619   2.636   8.140 -3.2108 -1.6903  0.2570
  129OSM   H17T13851   3.453   2.684   8.123 -0.7016 -0.6291 -1.2077
  129OSM   C18S13852   3.574   2.857   8.171 -1.0835  0.0137 -0.5169
  129OSM   H18S13853   3.679   2.891   8.154 -1.1702  0.4273 -0.2411
  129OSM   H18T13854   3.543   2.859   8.278  3.0566 -0.1447  0.7989
  129OSM   H18U13855   3.507   2.934   8.127 -0.0413  0.8390 -0.6852
  129OSM    C1F13856   4.219   2.009   6.634  0.5419  0.6723  0.1205
  129OSM     OF13857   4.309   2.045   6.564 -0.1558  0.4949 -0.1630
  129OSM    C2F13858   4.243   1.943   6.771 -0.1767  0.3628  0.5832
  129OSM    H2F13859   4.254   1.833   6.758 -1.7092  0.1638  0.8660
  129OSM    H2G13860   4.158   1.972   6.837 -0.0224  2.5890 -0.1506
  129OSM    C3F13861   4.376   1.993   6.829 -0.4116 -0.1658 -0.4994
  129OSM    H3F13862   4.390   2.103   6.840 -1.6169 -0.2652  2.5500
  129OSM    H3G13863   4.454   1.954   6.760 -2.4475 -2.8053 -1.3624
  129OSM    C4F13864   4.413   1.924   6.960  0.5810 -0.0981 -0.2411
  129OSM    H4F13865   4.522   1.944   6.976  0.6936 -1.7419  1.2473
  129OSM    H4G13866   4.405   1.816   6.933 -0.8413  0.3539 -1.6808
  129OSM    C5F13867   4.335   1.962   7.094  0.9537  0.0498  0.1331
  129OSM    H5F13868   4.236   1.914   7.085 -0.5140  2.6388  1.6197
  129OSM    H5G13869   4.323   2.072   7.082 -1.1802 -0.2540 -0.5818
  129OSM    C6F13870   4.397   1.919   7.226 -1.0587 -0.2006  0.7371
  129OSM    H6F13871   4.490   1.980   7.237 -1.2819  0.6328 -1.8290
  129OSM    H6G13872   4.415   1.811   7.208  2.5133  0.8678 -2.8162
  129OSM    C7F13873   4.295   1.940   7.335 -0.2296 -0.2239 -0.3689
  129OSM    H7F13874   4.205   1.875   7.336 -2.5543  2.8887 -1.5831
  129OSM    H7G13875   4.254   2.042   7.321  2.5414  1.1884  1.2925
  129OSM    C8F13876   4.346   1.927   7.478 -0.5882  0.9206 -0.7118
  129OSM    H8F13877   4.403   1.833   7.494  0.6617  2.1188  2.1103
  129OSM    H8G13878   4.252   1.919   7.537 -0.2715 -1.3538 -0.4809
  129OSM    C9F13879   4.430   2.044   7.517 -0.6340 -0.6229  0.4554
  129OSM    H9F13880   4.533   2.037   7.479 -1.7579 -1.9272 -2.5049
  129OSM   C10F13881   4.396   2.144   7.608  0.1710  0.6941  0.0740
  129OSM   H10F13882   4.470   2.222   7.630  1.4446 -0.8003  1.2122
  129OSM   C11F13883   4.265   2.153   7.682  0.1220 -0.2268  0.1160
  129OSM   H11F13884   4.187   2.101   7.622 -0.7052 -0.6877  1.5603
  129OSM   H11G13885   4.228   2.256   7.697  1.5723  0.1036  1.5943
  129OSM   C12F13886   4.281   2.111   7.829 -1.1081 -0.2680  0.3236
  129OSM   H12F13887   4.311   2.004   7.834 -0.5242 -0.0532  1.6789
  129OSM   H12G13888   4.184   2.135   7.878 -2.2128  0.0576 -1.9312
  129OSM   C13F13889   4.397   2.184   7.910 -0.2139 -0.0533  0.2186
  129OSM   H13F13890   4.492   2.180   7.853 -0.9077  1.6615 -1.1199
  129OSM   H13G13891   4.412   2.120   8.000 -1.1491  0.2887  0.6240
  129OSM   C14F13892   4.353   2.324   7.952  0.3836  0.1873 -0.1875
  129OSM   H14F13893   4.256   2.316   8.005 -0.0748 -1.4520 -1.2447
  129OSM   H14G13894   4.341   2.385   7.860 -0.8072 -0.6162 -0.5666
  129OSM   C15F13895   4.454   2.398   8.044 -0.1955  0.3538 -0.0099
  129OSM   H15F13896   4.429   2.506   8.049  0.2390  0.4790 -0.4001
  129OSM   H15G13897   4.556   2.389   8.000 -0.5737 -2.4350 -0.3778
  129OSM   C16F13898   4.458   2.358   8.193  0.1466 -0.6747 -0.1328
  129OSM   H16F13899   4.528   2.423   8.250 -1.0220  0.7310 -0.2784
  129OSM   H16G13900   4.486   2.251   8.201  1.0340 -0.4300  0.0865
  129OSM   C17F13901   4.319   2.385   8.254 -0.3216 -0.3617  0.1336
  129OSM   H17F13902   4.240   2.317   8.215  2.1006 -2.5427 -1.1583
  129OSM   H17G13903   4.294   2.490   8.231  0.1474 -0.2853 -0.0324
  129OSM   C18F13904   4.336   2.370   8.409 -0.8068  0.1423  0.0290
  129OSM   H18F13905   4.418   2.438   8.442 -0.4173  0.0722 -0.7918
  129OSM   H18G13906   4.357   2.263   8.429 -0.7907  0.5080  2.1578
  129OSM   H18H13907   4.244   2.405   8.460 -2.2574 -0.3963 -2.1732
  130OSM      N13908   4.526   6.736   5.934  0.1890  0.6155 -0.3824
  130OSM    C1513909   4.399   6.712   6.015 -0.0841 -0.2547  0.0315
  130OSM   H15A13910   4.331   6.651   5.957  0.3184  0.2665 -1.0039
  130OSM   H15B13911   4.363   6.813   6.031  2.1052  0.3906  1.1137
  130OSM   H15C13912   4.413   6.664   6.111  2.4785  0.1638 -0.1218
  130OSM    C1413913   4.587   6.602   5.886  0.3201  0.2727 -0.1053
  130OSM   H14A13914   4.658   6.629   5.809  1.1543 -1.1292  0.1631
  130OSM   H14B13915   4.518   6.530   5.845  0.6033  1.1606 -2.2045
  130OSM   H14C13916   4.634   6.564   5.975 -1.3050  0.8323  1.0107
  130OSM    C1313917   4.484   6.824   5.825 -0.2935  0.1137  0.2713
  130OSM   H13A13918   4.448   6.920   5.860  2.3522  1.0489  0.5710
  130OSM   H13B13919   4.413   6.777   5.759  0.0725  0.0863 -0.1090
  130OSM   H13C13920   4.562   6.858   5.758  0.6398 -1.1356  0.7126
  130OSM    C1213921   4.631   6.810   6.009  0.0333  0.3128 -0.1124
  130OSM   H12A13922   4.601   6.912   6.028  3.6651  1.0330  2.3998
  130OSM   H12B13923   4.710   6.829   5.939  1.9303  2.4259  2.5047
  130OSM    C1113924   4.681   6.747   6.145 -0.9014 -0.2750 -0.3760
  130OSM   H11A13925   4.601   6.757   6.221 -0.4253  2.4452 -0.2065
  130OSM   H11B13926   4.763   6.817   6.173 -0.5093 -0.4691 -1.0245
  130OSM      P13927   4.891   6.574   6.148  0.0089  0.3234  0.4288
  130OSM    O1313928   4.901   6.429   6.120  0.2075 -0.0626  0.6099
  130OSM    O1413929   4.960   6.669   6.059 -0.4769  0.2471 -0.0769
  130OSM    O1113930   4.929   6.591   6.294 -0.2806 -0.6657 -0.0202
  130OSM    O1213931   4.736   6.612   6.136  0.1456 -0.3763 -0.0338
  130OSM    C1S13932   4.833   6.593   6.400  0.2095 -0.2934  0.1437
  130OSM    H1S13933   4.774   6.498   6.402 -1.5055  0.7735  1.4044
  130OSM    H1T13934   4.763   6.679   6.391  0.3141  0.0319  2.3747
  130OSM     NF13935   4.766   6.632   6.636 -0.3791 -0.9024 -0.3163
  130OSM    HNF13936   4.763   6.727   6.666  2.3974 -0.7868 -0.2486
  130OSM    C2S13937   4.883   6.606   6.551 -0.3998 -0.3164 -0.4524
  130OSM    H2S13938   4.931   6.515   6.592  1.1351  0.6120 -0.1529
  130OSM    C3S13939   4.990   6.718   6.564 -0.4705  0.0231  0.1115
  130OSM    H3S13940   4.931   6.811   6.550  2.2945  2.1539  1.9803
  130OSM     O313941   5.102   6.721   6.477  0.1084 -0.3215 -0.1218
  130OSM    HO313942   5.081   6.657   6.408  0.0029 -1.2583  0.7678
  130OSM    C4S13943   5.039   6.717   6.706  0.3464 -0.0111 -0.5699
  130OSM    H4S13944   4.966   6.762   6.774  1.9132 -1.0659  1.9036
  130OSM    C5S13945   5.146   6.654   6.767  0.2780 -0.0992  0.8321
  130OSM    H5S13946   5.218   6.605   6.700  0.5710  0.6764  0.5758
  130OSM    C6S13947   5.174   6.642   6.912 -0.1115 -0.2464 -0.4975
  130OSM    H6S13948   5.248   6.720   6.941 -1.2378  0.4699  0.4875
  130OSM    H6T13949   5.202   6.538   6.937  0.1525 -0.5023 -1.8254
  130OSM    C7S13950   5.065   6.674   7.006 -0.1498  0.1703 -0.5490
  130OSM    H7S13951   4.970   6.626   6.977  0.8183 -1.6951 -0.6785
  130OSM    H7T13952   5.046   6.783   6.993  0.3630  0.0325 -2.5677
  130OSM    C8S13953   5.085   6.617   7.149  0.9557 -0.2515 -0.4846
  130OSM    H8S13954   5.081   6.506   7.152  0.3903 -0.2150  1.0766
  130OSM    H8T13955   5.000   6.644   7.216  0.3158 -2.8479 -0.1788
  130OSM    C9S13956   5.219   6.668   7.220  0.1167 -0.1538  0.4214
  130OSM    H9S13957   5.233   6.772   7.184 -2.9094 -0.2502 -1.1399
  130OSM    H9T13958   5.289   6.593   7.176  1.0045  0.4346  0.8200
  130OSM   C10S13959   5.215   6.663   7.376  0.0813 -0.5777  0.5725
  130OSM   H10S13960   5.188   6.561   7.411  0.3933 -0.8512  0.0219
  130OSM   H10T13961   5.125   6.720   7.406 -0.6405 -1.9916  1.1373
  130OSM   C11S13962   5.348   6.715   7.444 -0.4727 -0.3068  0.2374
  130OSM   H11S13963   5.373   6.813   7.398 -4.0777  1.7962  2.4958
  130OSM   H11T13964   5.426   6.638   7.426 -0.0273 -0.5390  3.0271
  130OSM   C12S13965   5.317   6.751   7.591  0.6271  0.0435  0.0151
  130OSM   H12S13966   5.253   6.841   7.596  1.2447  0.4735  0.1884
  130OSM   H12T13967   5.417   6.780   7.630 -0.3143  1.9794  1.0701
  130OSM   C13S13968   5.276   6.636   7.675  1.5685 -0.0546 -0.6092
  130OSM   H13S13969   5.350   6.553   7.680 -1.4360 -2.8953 -1.6070
  130OSM   H13T13970   5.188   6.587   7.629  0.5714  0.6401  0.5068
  130OSM   C14S13971   5.242   6.669   7.817 -0.2966  0.3520 -0.0056
  130OSM   H14S13972   5.231   6.571   7.868  1.5041  1.7398  3.2020
  130OSM   H14T13973   5.153   6.733   7.835 -0.5400  0.3620 -1.1735
  130OSM   C15S13974   5.352   6.745   7.892 -0.3335  0.2838 -0.0846
  130OSM   H15S13975   5.350   6.852   7.861 -1.6156  0.2010 -0.3249
  130OSM   H15T13976   5.447   6.712   7.845 -0.3346  0.1982 -0.0274
  130OSM   C16S13977   5.331   6.724   8.041  0.2209 -0.0045 -0.1715
  130OSM   H16S13978   5.333   6.613   8.051 -1.9883  0.0671  1.2834
  130OSM   H16T13979   5.230   6.751   8.076 -0.1769 -0.1113 -1.2161
  130OSM   C17S13980   5.436   6.784   8.126 -0.1863 -0.1247  0.9866
  130OSM   H17S13981   5.425   6.894   8.139  1.7673  0.8951 -4.3432
  130OSM   H17T13982   5.533   6.793   8.072  0.4970 -2.7559  1.6997
  130OSM   C18S13983   5.434   6.717   8.262  0.1980 -0.6891 -0.1815
  130OSM   H18S13984   5.511   6.758   8.332  0.1745  2.1325 -1.7352
  130OSM   H18T13985   5.470   6.614   8.244  1.0663 -0.4836  0.3334
  130OSM   H18U13986   5.334   6.717   8.309  0.8369  0.6732  1.2588
  130OSM    C1F13987   4.669   6.544   6.660 -0.3305  0.0177 -0.0711
  130OSM     OF13988   4.685   6.427   6.641  0.2461  0.2843 -0.4058
  130OSM    C2F13989   4.545   6.603   6.724  0.4827  0.1424 -0.1654
  130OSM    H2F13990   4.491   6.640   6.635  0.4387  0.2127 -0.1111
  130OSM    H2G13991   4.582   6.687   6.788 -1.3259  2.2712 -1.8565
  130OSM    C3F13992   4.476   6.493   6.823 -0.1831 -0.6996  0.2570
  130OSM    H3F13993   4.449   6.399   6.771 -1.3046 -0.3096  0.1198
  130OSM    H3G13994   4.378   6.532   6.858  0.7294  0.9470  1.0923
  130OSM    C4F13995   4.569   6.459   6.944 -0.8019  0.5421  0.1342
  130OSM    H4F13996   4.674   6.443   6.911 -1.2659 -0.5734 -0.8604
  130OSM    H4G13997   4.554   6.358   6.988  0.6639  0.2023 -0.0948
  130OSM    C5F13998   4.554   6.562   7.056  0.3190  0.5921  0.1304
  130OSM    H5F13999   4.444   6.569   7.072 -0.2712 -2.9653 -1.9247
  130OSM    H5G14000   4.592   6.662   7.027  1.6368  0.2890  0.7642
  130OSM    C6F14001   4.625   6.514   7.184  0.4454  0.3882 -0.0929
  130OSM    H6F14002   4.563   6.430   7.222 -2.1244  2.1505 -0.2083
  130OSM    H6G14003   4.615   6.599   7.255  0.1739  2.3835 -2.4744
  130OSM    C7F14004   4.768   6.469   7.165  0.2475  0.7918 -0.3521
  130OSM    H7F14005   4.813   6.561   7.120 -1.8900  1.4195 -1.2937
  130OSM    H7G14006   4.777   6.398   7.080 -0.9130  0.7089 -0.4140
  130OSM    C8F14007   4.837   6.424   7.301  0.2825 -0.3783 -0.1282
  130OSM    H8F14008   4.834   6.507   7.374  2.3317  0.8502 -1.3934
  130OSM    H8G14009   4.943   6.407   7.274 -0.7719 -2.1890 -3.5516
  130OSM    C9F14010   4.778   6.292   7.353 -0.9983  0.1915 -0.0365
  130OSM    H9F14011   4.669   6.286   7.359 -0.9736 -0.8566 -0.5382
  130OSM   C10F14012   4.845   6.187   7.394  0.2281 -0.4643  0.4503
  130OSM   H10F14013   4.778   6.103   7.417  2.5222 -2.6791 -0.7397
  130OSM   C11F14014   4.995   6.176   7.393 -0.5739  0.1653 -0.4891
  130OSM   H11F14015   5.054   6.254   7.340 -0.9366  0.8549  0.1049
  130OSM   H11G14016   5.030   6.085   7.340 -2.6583 -0.7018 -0.4217
  130OSM   C12F14017   5.050   6.166   7.534 -0.7305 -0.1243  0.5696
  130OSM   H12F14018   5.160   6.161   7.525 -0.6755  1.9929 -0.3173
  130OSM   H12G14019   5.006   6.076   7.581 -2.1433  0.5697  0.6248
  130OSM   C13F14020   5.021   6.292   7.626  0.0289  0.0016  0.2334
  130OSM   H13F14021   4.912   6.297   7.644  0.0955  2.7112  0.1094
  130OSM   H13G14022   5.047   6.378   7.560  3.0326 -1.3002 -0.3775
  130OSM   C14F14023   5.092   6.302   7.759 -0.3088  0.5881 -1.1695
  130OSM   H14F14024   5.196   6.335   7.738  1.6446 -2.7254  2.7449
  130OSM   H14G14025   5.101   6.202   7.805  1.7927 -0.0358 -2.8547
  130OSM   C15F14026   5.032   6.391   7.872  0.0609  0.0472 -0.5414
  130OSM   H15F14027   4.922   6.378   7.875 -0.0782  1.4037  0.3978
  130OSM   H15G14028   5.042   6.492   7.828 -1.2183 -0.3809 -1.8577
  130OSM   C16F14029   5.093   6.380   8.016  0.1089 -0.2867  0.0117
  130OSM   H16F14030   5.204   6.382   8.018  0.1228  0.7065 -1.2158
  130OSM   H16G14031   5.069   6.280   8.057  1.2620 -0.2123  0.9283
  130OSM   C17F14032   5.027   6.493   8.102  0.4050  0.0167  0.2088
  130OSM   H17F14033   4.918   6.505   8.085  0.2835 -2.3034 -0.9414
  130OSM   H17G14034   5.082   6.585   8.074 -0.7414  0.8225  0.5859
  130OSM   C18F14035   5.068   6.472   8.252  0.2231 -0.5342  0.2514
  130OSM   H18F14036   5.176   6.483   8.276  0.0368 -0.2711  0.9910
  130OSM   H18G14037   5.029   6.376   8.291  2.3039 -1.4879  0.0548
  130OSM   H18H14038   5.019   6.552   8.312  3.2325  1.5086  0.0942
  131OSM      N14039   5.165   4.335   5.834 -1.0579 -0.7576  0.2741
  131OSM    C1514040   5.211   4.191   5.804 -0.2869  0.1987  0.1096
  131OSM   H15A14041   5.140   4.121   5.845 -2.0611 -0.1301 -3.3448
  131OSM   H15B14042   5.311   4.161   5.834  0.6257  2.0524 -0.9624
  131OSM   H15C14043   5.209   4.178   5.697 -1.2710 -0.8003  0.2452
  131OSM    C1414044   5.272   4.433   5.789  0.5362  0.0351  0.6947
  131OSM   H14A14045   5.299   4.404   5.689 -1.4010 -0.3651  0.2571
  131OSM   H14B14046   5.361   4.431   5.850 -0.8873 -0.3236  2.8340
  131OSM   H14C14047   5.245   4.535   5.811  1.8191  1.0799 -2.2940
  131OSM    C1314048   5.043   4.367   5.759 -0.6510 -0.0731  0.8784
  131OSM   H13A14049   5.055   4.347   5.653 -0.5731 -0.2386  0.9178
  131OSM   H13B14050   5.018   4.472   5.765 -0.1526  0.1816 -1.2715
  131OSM   H13C14051   4.955   4.312   5.790 -1.3066  0.5121  0.0884
  131OSM    C1214052   5.145   4.358   5.977 -0.0912 -0.0511  0.6445
  131OSM   H12A14053   5.240   4.343   6.025 -0.1711  2.6407  1.7209
  131OSM   H12B14054   5.084   4.278   6.017 -0.9340  0.5875  0.6442
  131OSM    C1114055   5.090   4.500   6.026  0.6148 -0.1885 -0.2652
  131OSM   H11A14056   5.079   4.490   6.136 -0.1264  0.1936 -0.3017
  131OSM   H11B14057   4.988   4.520   5.986  0.4408 -0.3879  0.0759
  131OSM      P14058   5.303   4.644   6.095  0.3550 -0.3519 -0.0143
  131OSM    O1314059   5.413   4.585   6.018  0.1264  0.0475 -0.0034
  131OSM    O1414060   5.304   4.788   6.134  0.1805  0.5381 -0.5557
  131OSM    O1114061   5.276   4.552   6.225  0.0225 -0.3549  1.0137
  131OSM    O1214062   5.173   4.610   6.005 -0.3249 -0.3626 -0.1557
  131OSM    C1S14063   5.335   4.598   6.341  0.4039  0.0505 -0.7508
  131OSM    H1S14064   5.338   4.709   6.352 -2.5862  0.2325 -1.3539
  131OSM    H1T14065   5.440   4.564   6.353  0.4075  0.5901  0.8799
  131OSM     NF14066   5.297   4.620   6.586 -0.3085  0.0984  0.1505
  131OSM    HNF14067   5.353   4.570   6.651 -0.7138  0.6620  0.9410
  131OSM    C2S14068   5.260   4.551   6.464 -0.7158  0.3591 -0.0935
  131OSM    H2S14069   5.149   4.563   6.462 -0.5800  1.7532  0.9681
  131OSM    C3S14070   5.292   4.401   6.480  0.6691 -0.1009  0.4623
  131OSM    H3S14071   5.400   4.388   6.504  0.6986 -1.5036 -0.3613
  131OSM     O314072   5.276   4.331   6.359 -0.5191 -0.4590 -0.1248
  131OSM    HO314073   5.277   4.403   6.296 -0.3233  1.9940  2.5459
  131OSM    C4S14074   5.207   4.344   6.584 -0.0118  0.2968  0.7134
  131OSM    H4S14075   5.099   4.358   6.568 -0.2310  0.1281  1.9651
  131OSM    C5S14076   5.250   4.249   6.680  0.2784 -0.1751  0.4551
  131OSM    H5S14077   5.355   4.216   6.678  0.0168 -0.9540 -2.3927
  131OSM    C6S14078   5.168   4.186   6.793 -0.8507 -0.6222  0.7839
  131OSM    H6S14079   5.094   4.262   6.825 -0.7440  0.2648 -1.0411
  131OSM    H6T14080   5.234   4.176   6.883 -0.3052  0.4627  0.5098
  131OSM    C7S14081   5.097   4.060   6.764  0.2507  0.4401  0.2602
  131OSM    H7S14082   5.154   3.995   6.694  1.0239 -0.8957  2.0895
  131OSM    H7T14083   5.001   4.085   6.712  1.4109 -0.2667 -2.3154
  131OSM    C8S14084   5.081   3.973   6.884  0.2527  0.1670 -0.6035
  131OSM    H8S14085   5.180   3.929   6.911  0.8410  1.5812 -0.4091
  131OSM    H8T14086   5.013   3.895   6.843  0.5847 -0.3549 -0.1827
  131OSM    C9S14087   5.020   4.023   7.010  0.0429 -0.2190 -0.6953
  131OSM    H9S14088   4.934   4.088   6.983 -0.2729  0.1933  1.2247
  131OSM    H9T14089   5.087   4.083   7.075 -1.0285 -0.4629  0.6812
  131OSM   C10S14090   4.973   3.902   7.095  0.4970 -0.2627  0.6162
  131OSM   H10S14091   5.053   3.839   7.140 -2.7926 -3.2742  2.4519
  131OSM   H10T14092   4.932   3.827   7.025 -0.1479  2.5534 -2.0867
  131OSM   C11S14093   4.870   3.936   7.208 -0.2662  0.1680 -0.5474
  131OSM   H11S14094   4.824   3.850   7.261  2.4066 -1.3543 -0.5700
  131OSM   H11T14095   4.781   3.980   7.159  1.2434  2.4205 -1.3500
  131OSM   C12S14096   4.924   4.039   7.305  0.1163 -0.4627 -0.0353
  131OSM   H12S14097   4.922   4.141   7.261  1.1767 -0.8250 -0.9600
  131OSM   H12T14098   5.025   4.024   7.350  0.5429  0.9929 -0.4560
  131OSM   C13S14099   4.837   4.046   7.433  0.1499 -0.4586  0.3577
  131OSM   H13S14100   4.849   3.953   7.493  0.0947 -0.9596 -0.3932
  131OSM   H13T14101   4.731   4.056   7.401 -0.0568 -1.1060  0.8160
  131OSM   C14S14102   4.885   4.147   7.533 -0.3819 -0.5733 -0.5764
  131OSM   H14S14103   4.880   4.241   7.475 -0.7144 -0.4111 -0.2889
  131OSM   H14T14104   4.987   4.122   7.569 -0.9089 -0.7622  0.8413
  131OSM   C15S14105   4.794   4.156   7.655 -0.2698 -0.2087 -0.3692
  131OSM   H15S14106   4.816   4.073   7.726 -0.0170 -1.0560 -1.4284
  131OSM   H15T14107   4.685   4.148   7.635 -0.8605  1.5225  1.9413
  131OSM   C16S14108   4.811   4.292   7.732 -0.0826 -0.2205  0.2146
  131OSM   H16S14109   4.914   4.317   7.765 -0.0089 -0.0884 -0.1091
  131OSM   H16T14110   4.749   4.295   7.824  1.4136  0.5987  1.2156
  131OSM   C17S14111   4.762   4.404   7.643  0.1030 -0.1483 -0.0795
  131OSM   H17S14112   4.662   4.370   7.607  0.1033 -0.2584  0.0255
  131OSM   H17T14113   4.834   4.416   7.560 -1.0390 -1.1543 -1.2328
  131OSM   C18S14114   4.752   4.536   7.717  0.0445  0.4857  0.2317
  131OSM   H18S14115   4.717   4.514   7.820  0.4745  0.1615  0.3063
  131OSM   H18T14116   4.682   4.607   7.668 -0.4282 -0.7886 -0.9501
  131OSM   H18U14117   4.848   4.590   7.731 -0.2136  0.9065  0.4070
  131OSM    C1F14118   5.271   4.747   6.608 -0.3285  0.3561  0.0359
  131OSM     OF14119   5.200   4.808   6.528 -0.2165  0.5923 -0.2280
  131OSM    C2F14120   5.325   4.812   6.728  0.0333 -0.3555  0.1739
  131OSM    H2F14121   5.373   4.745   6.802 -1.1916  0.2257  1.5139
  131OSM    H2G14122   5.243   4.867   6.779  0.0866 -0.8917  0.8343
  131OSM    C3F14123   5.432   4.920   6.687 -1.1861  0.3474 -0.8768
  131OSM    H3F14124   5.385   4.986   6.611  0.5958  0.9337 -1.4713
  131OSM    H3G14125   5.521   4.869   6.647 -0.9889  1.4120 -1.8075
  131OSM    C4F14126   5.475   5.009   6.809 -0.0510  0.6910  0.4638
  131OSM    H4F14127   5.392   5.071   6.849  0.2283  0.6442  1.1269
  131OSM    H4G14128   5.546   5.087   6.774 -0.4749  1.1049  0.5229
  131OSM    C5F14129   5.539   4.934   6.929 -0.1993  1.0685 -0.1444
  131OSM    H5F14130   5.637   4.899   6.891  0.6788  2.1620  1.0569
  131OSM    H5G14131   5.477   4.848   6.964 -0.6581  1.0403 -1.0234
  131OSM    C6F14132   5.577   5.021   7.050  0.7836  0.2964  0.6437
  131OSM    H6F14133   5.483   5.061   7.094  1.8467  0.1456  3.1727
  131OSM    H6G14134   5.648   5.100   7.017  2.0563 -1.4206 -0.8577
  131OSM    C7F14135   5.648   4.942   7.162 -0.1992 -0.1041  0.9461
  131OSM    H7F14136   5.736   4.902   7.109  0.4634 -1.7915  3.2277
  131OSM    H7G14137   5.584   4.861   7.204 -1.6457  0.0169 -0.9493
  131OSM    C8F14138   5.702   5.033   7.279  0.7377  0.5956 -0.2137
  131OSM    H8F14139   5.741   5.121   7.223  0.1045  0.8856 -0.1930
  131OSM    H8G14140   5.785   4.977   7.328  0.9680  1.0090 -0.1219
  131OSM    C9F14141   5.603   5.093   7.374  0.6077 -1.0046  1.0711
  131OSM    H9F14142   5.510   5.130   7.328  0.1162  0.3434  3.0863
  131OSM   C10F14143   5.600   5.095   7.511 -0.1013  0.2262 -0.1518
  131OSM   H10F14144   5.513   5.153   7.546 -0.2410  0.0255 -0.1639
  131OSM   C11F14145   5.695   5.043   7.612 -0.2326  0.1438  0.1981
  131OSM   H11F14146   5.791   5.014   7.564 -1.7068 -3.5631 -0.7105
  131OSM   H11G14147   5.658   4.952   7.665 -0.4211 -0.9796 -1.8153
  131OSM   C12F14148   5.722   5.148   7.719 -0.6568 -0.1407  0.4248
  131OSM   H12F14149   5.629   5.178   7.770  0.4167  0.4787  2.0473
  131OSM   H12G14150   5.755   5.232   7.653 -0.5467 -0.7581 -0.3128
  131OSM   C13F14151   5.834   5.098   7.814  0.0115  0.1688 -0.4909
  131OSM   H13F14152   5.927   5.105   7.753 -0.9146 -0.0166 -1.9475
  131OSM   H13G14153   5.811   4.997   7.857  2.7252 -0.3363 -0.1542
  131OSM   C14F14154   5.851   5.187   7.938  0.3831 -0.9533 -0.4140
  131OSM   H14F14155   5.843   5.297   7.923  1.0690 -0.7823  0.4268
  131OSM   H14G14156   5.948   5.163   7.987 -0.5288  2.1271  3.1772
  131OSM   C15F14157   5.732   5.163   8.046  0.1510 -0.0026  0.0369
  131OSM   H15F14158   5.745   5.064   8.095  4.5951 -0.4959 -1.9175
  131OSM   H15G14159   5.634   5.159   7.995 -0.4853 -0.7575  1.2896
  131OSM   C16F14160   5.735   5.274   8.155  0.0814  0.3733 -0.3027
  131OSM   H16F14161   5.690   5.362   8.105  1.1039  1.8492  1.2956
  131OSM   H16G14162   5.838   5.303   8.185 -0.1248  1.3751 -0.5436
  131OSM   C17F14163   5.656   5.235   8.278  0.2906  0.7252 -0.0855
  131OSM   H17F14164   5.568   5.167   8.267  0.1989  0.2396  3.0471
  131OSM   H17G14165   5.617   5.325   8.330  1.8012 -0.2211  2.8190
  131OSM   C18F14166   5.748   5.176   8.390 -0.0380 -0.4456  0.3934
  131OSM   H18F14167   5.829   5.243   8.426  1.9079 -2.6640  0.2665
  131OSM   H18G14168   5.807   5.087   8.359 -1.1167 -1.2371  0.5872
  131OSM   H18H14169   5.694   5.154   8.484 -1.2459  0.5610 -0.0544
  132OSM      N14170   0.103   0.637   6.120 -0.4493  0.7936 -0.0282
  132OSM    C1514171  -0.006   0.589   6.033  0.2683  0.4060 -0.0356
  132OSM   H15A14172  -0.033   0.485   6.041  0.8960  0.4024  2.4460
  132OSM   H15B14173   0.024   0.603   5.930  0.5415 -1.5688 -0.2444
  132OSM   H15C14174  -0.098   0.642   6.054  0.0467 -0.9546  2.5683
  132OSM    C1414175   0.071   0.601   6.265 -0.5826  0.1591  0.1641
  132OSM   H14A14176   0.161   0.616   6.324  0.5656  0.8341 -1.6943
  132OSM   H14B14177   0.063   0.494   6.275 -0.3402 -0.1216 -2.2400
  132OSM   H14C14178  -0.012   0.663   6.296 -0.9507  0.3055 -1.0786
  132OSM    C1314179   0.235   0.570   6.087  0.5013 -0.3422 -0.3706
  132OSM   H13A14180   0.260   0.591   5.984 -0.2359  0.6295 -0.3560
  132OSM   H13B14181   0.243   0.462   6.096  0.8593 -0.4470 -1.7695
  132OSM   H13C14182   0.317   0.602   6.148  0.5173 -0.7031 -0.2003
  132OSM    C1214183   0.109   0.784   6.105 -0.2878 -0.3503 -0.3304
  132OSM   H12A14184   0.022   0.833   6.146 -0.9320 -2.1328  0.5242
  132OSM   H12B14185   0.114   0.805   5.999  1.8854 -0.5075 -0.2939
  132OSM    C1114186   0.233   0.860   6.158 -0.0414  0.4642 -0.0364
  132OSM   H11A14187   0.194   0.964   6.152 -0.1502  0.3521 -1.8156
  132OSM   H11B14188   0.323   0.857   6.092  1.9165 -0.0025  2.6084
  132OSM      P14189   0.426   0.824   6.325  0.2979  0.0465 -0.2274
  132OSM    O1314190   0.489   0.741   6.219 -0.3568  0.0545 -0.3033
  132OSM    O1414191   0.469   0.965   6.351 -0.5209 -0.1861  0.8137
  132OSM    O1114192   0.427   0.747   6.457 -0.3258 -0.5644  0.0328
  132OSM    O1214193   0.268   0.821   6.294 -0.2852  0.1316 -0.5055
  132OSM    C1S14194   0.326   0.765   6.555 -1.1097  0.1016 -0.2430
  132OSM    H1S14195   0.239   0.697   6.540  0.6535 -2.3836  0.4749
  132OSM    H1T14196   0.289   0.869   6.556 -1.2435  0.0511  0.1533
  132OSM     NF14197   0.268   0.780   6.781  0.2309 -0.3317 -0.0303
  132OSM    HNF14198   0.268   0.876   6.808  0.2522 -0.2198 -0.4249
  132OSM    C2S14199   0.378   0.736   6.702  1.0954  0.2257  0.0112
  132OSM    H2S14200   0.385   0.625   6.709  1.0332  0.3345  2.1116
  132OSM    C3S14201   0.508   0.813   6.730 -0.6380 -0.5847 -0.2543
  132OSM    H3S14202   0.488   0.920   6.707  0.9915 -0.1972  0.0601
  132OSM     O314203   0.621   0.774   6.651  0.5569 -0.8735 -0.5834
  132OSM    HO314204   0.577   0.717   6.588 -0.2920 -1.6959  0.7353
  132OSM    C4S14205   0.538   0.791   6.874  0.3938 -0.0510  0.4603
  132OSM    H4S14206   0.497   0.872   6.936 -0.5432 -1.1784  1.3474
  132OSM    C5S14207   0.598   0.682   6.939 -1.0276 -0.2305 -0.8471
  132OSM    H5S14208   0.631   0.593   6.884  0.6726  1.1414 -2.0937
  132OSM    C6S14209   0.622   0.674   7.092 -0.1747  0.1693  0.6164
  132OSM    H6S14210   0.723   0.632   7.110  0.5151  0.4244 -2.3857
  132OSM    H6T14211   0.558   0.589   7.125  0.0073 -0.1646  0.1182
  132OSM    C7S14212   0.591   0.800   7.173 -0.2364  0.0200  0.3858
  132OSM    H7S14213   0.482   0.823   7.168 -0.7277 -1.8927  2.0295
  132OSM    H7T14214   0.655   0.885   7.142 -1.3525  1.1660  1.1571
  132OSM    C8S14215   0.616   0.782   7.316  0.1259  0.6284 -0.5254
  132OSM    H8S14216   0.721   0.746   7.328 -0.2484  0.2013  1.5845
  132OSM    H8T14217   0.550   0.697   7.345 -1.4073  1.6818 -0.8646
  132OSM    C9S14218   0.592   0.900   7.404 -0.7933  0.3424 -1.0275
  132OSM    H9S14219   0.489   0.940   7.395 -0.3653  1.5891 -0.6128
  132OSM    H9T14220   0.657   0.987   7.381 -1.2350  0.5322 -1.5834
  132OSM   C10S14221   0.612   0.863   7.548 -0.0807 -0.0721 -0.3373
  132OSM   H10S14222   0.720   0.845   7.564  0.6923  0.7691 -4.2356
  132OSM   H10T14223   0.555   0.769   7.567 -1.9324  0.8401 -1.2246
  132OSM   C11S14224   0.576   0.970   7.654  0.3976 -0.2575  0.2780
  132OSM   H11S14225   0.472   1.008   7.645  1.0825  1.6383  0.0318
  132OSM   H11T14226   0.651   1.048   7.629  1.3783 -1.4610 -0.6102
  132OSM   C12S14227   0.593   0.907   7.802  0.1352 -0.3006  0.4561
  132OSM   H12S14228   0.683   0.846   7.823 -0.5239 -1.0625  1.1153
  132OSM   H12T14229   0.506   0.840   7.821 -0.1436 -0.8040 -2.4593
  132OSM   C13S14230   0.613   1.016   7.904  0.1286 -0.4116 -0.2028
  132OSM   H13S14231   0.562   1.112   7.883 -0.4729 -1.2403 -2.5750
  132OSM   H13T14232   0.720   1.042   7.918  0.8155 -1.2456 -3.5883
  132OSM   C14S14233   0.569   0.977   8.049 -0.0870  0.2640  0.1710
  132OSM   H14S14234   0.624   0.882   8.067  2.5730  2.1519  2.2199
  132OSM   H14T14235   0.459   0.966   8.037 -0.0894  0.0843  0.3670
  132OSM   C15S14236   0.615   1.073   8.157  0.6115 -0.6055 -0.3819
  132OSM   H15S14237   0.564   1.168   8.131 -0.3525 -0.7227  1.0568
  132OSM   H15T14238   0.725   1.092   8.151  0.2928  1.3356 -0.3478
  132OSM   C16S14239   0.575   1.029   8.304  1.0616  0.2977  0.2090
  132OSM   H16S14240   0.613   1.102   8.378 -1.9769  0.4963  1.6219
  132OSM   H16T14241   0.624   0.931   8.322 -1.0593 -0.8280  0.0426
  132OSM   C17S14242   0.420   1.015   8.326 -0.0772 -0.6549 -0.0659
  132OSM   H17S14243   0.402   0.965   8.424  0.6238  0.3445  0.5831
  132OSM   H17T14244   0.385   0.943   8.249 -2.6834  3.4889 -2.9290
  132OSM   C18S14245   0.338   1.142   8.334  0.1780  0.5943  0.3390
  132OSM   H18S14246   0.230   1.119   8.333 -0.0726  1.6950  0.9714
  132OSM   H18T14247   0.357   1.216   8.253 -0.7442  1.6238  1.0458
  132OSM   H18U14248   0.347   1.194   8.432 -0.0019 -1.9837  1.7665
  132OSM    C1F14249   0.167   0.705   6.816 -0.0300  1.0847 -0.0201
  132OSM     OF14250   0.144   0.601   6.755 -0.0850  0.6018  0.4328
  132OSM    C2F14251   0.085   0.745   6.936  0.1741 -0.1791 -0.2348
  132OSM    H2F14252   0.003   0.673   6.955  2.4213 -2.3457  1.4218
  132OSM    H2G14253   0.027   0.838   6.916  1.0606  0.0946 -1.6234
  132OSM    C3F14254   0.179   0.761   7.059 -0.3674 -0.1388  0.2345
  132OSM    H3F14255   0.257   0.840   7.049  0.1986 -0.6016  1.0366
  132OSM    H3G14256   0.235   0.666   7.066 -1.0273 -0.4308  1.7862
  132OSM    C4F14257   0.095   0.787   7.181 -0.4030 -0.0855 -0.6458
  132OSM    H4F14258   0.016   0.709   7.194  0.2712 -0.2500  2.9421
  132OSM    H4G14259   0.042   0.885   7.183 -1.4592 -0.6582  0.5851
  132OSM    C5F14260   0.174   0.784   7.306  0.0437  0.3580 -0.0825
  132OSM    H5F14261   0.263   0.848   7.289 -0.4035  0.5171 -1.9339
  132OSM    H5G14262   0.216   0.682   7.318 -0.6343 -0.5382 -4.4233
  132OSM    C6F14263   0.101   0.832   7.436 -0.5272 -0.8172  0.3009
  132OSM    H6F14264   0.012   0.768   7.453  1.2257 -3.3836  0.0642
  132OSM    H6G14265   0.061   0.935   7.419  0.2922 -0.5529 -0.0599
  132OSM    C7F14266   0.189   0.844   7.555  0.5440 -0.1602  0.8328
  132OSM    H7F14267   0.267   0.921   7.536 -0.1682  0.1867 -0.8318
  132OSM    H7G14268   0.242   0.747   7.566  0.6706 -0.8109 -4.3118
  132OSM    C8F14269   0.098   0.871   7.679 -0.0076  0.0787  0.8470
  132OSM    H8F14270   0.021   0.791   7.686 -0.3040  0.2553 -0.2839
  132OSM    H8G14271   0.042   0.966   7.664  0.8174  0.8202  2.3467
  132OSM    C9F14272   0.180   0.876   7.801 -0.0789  0.1455  0.6498
  132OSM    H9F14273   0.274   0.822   7.787  0.3915  1.7605 -2.9340
  132OSM   C10F14274   0.147   0.934   7.916 -0.5608  0.6646  0.2897
  132OSM   H10F14275   0.214   0.933   8.004 -3.1198 -0.0629  2.2831
  132OSM   C11F14276   0.021   1.009   7.947  0.1423  0.3439 -0.4032
  132OSM   H11F14277  -0.036   0.940   8.012 -0.2969  0.8575 -0.2359
  132OSM   H11G14278  -0.054   1.015   7.865 -0.3571  0.0775  0.0309
  132OSM   C12F14279   0.039   1.146   8.008 -0.3177  0.1399  0.0764
  132OSM   H12F14280   0.073   1.218   7.931 -2.5981 -3.3348 -4.3914
  132OSM   H12G14281   0.123   1.147   8.081 -1.7331  0.2686  1.7354
  132OSM   C13F14282  -0.086   1.198   8.086  0.0328  0.2863  0.3341
  132OSM   H13F14283  -0.117   1.126   8.164  0.2931  1.0223  1.1270
  132OSM   H13G14284  -0.171   1.208   8.015 -0.1072 -1.3854  0.2507
  132OSM   C14F14285  -0.075   1.344   8.142 -0.6380  0.9983 -0.0619
  132OSM   H14F14286  -0.041   1.413   8.062 -0.4637  0.1019 -0.7725
  132OSM   H14G14287   0.001   1.352   8.222 -2.6315  3.4755  1.6393
  132OSM   C15F14288  -0.205   1.406   8.210 -0.3376 -0.0533 -0.4159
  132OSM   H15F14289  -0.273   1.407   8.122  0.1993 -3.9867 -0.9211
  132OSM   H15G14290  -0.184   1.511   8.243  0.0931  0.4767 -2.3551
  132OSM   C16F14291  -0.279   1.312   8.304  0.2335 -0.1814 -0.4332
  132OSM   H16F14292  -0.300   1.211   8.263  1.3452 -0.1885 -1.0142
  132OSM   H16G14293  -0.371   1.370   8.327 -0.2148 -1.9794  2.5159
  132OSM   C17F14294  -0.215   1.302   8.440  0.2171 -0.3034 -0.4087
  132OSM   H17F14295  -0.207   1.398   8.496 -1.1004 -0.2978 -0.2129
  132OSM   H17G14296  -0.123   1.241   8.424 -0.4786 -1.0506 -1.6609
  132OSM   C18F14297  -0.304   1.208   8.526 -0.4524  0.6117 -0.7847
  132OSM   H18F14298  -0.406   1.251   8.531 -1.6312 -2.1370 -0.4682
  132OSM   H18G14299  -0.272   1.204   8.633 -0.7438 -0.2852 -0.7208
  132OSM   H18H14300  -0.310   1.104   8.487  0.4262 -0.1741  1.0895
  133SAPE     N14301   1.673   6.018  10.823 -0.3690  0.6075 -0.6639
  133SAPE   HN114302   1.643   6.003  10.922  0.9851  0.9800 -0.1947
  133SAPE   HN214303   1.665   6.114  10.783  0.1027  0.9621  0.0767
  133SAPE   HN314304   1.599   5.970  10.767 -1.3784  0.9074  0.3794
  133SAPE   C1214305   1.818   5.983  10.792 -0.0794  0.8781  0.6895
  133SAPE  H12A14306   1.838   6.008  10.686 -2.6817 -0.9776 -0.3025
  133SAPE  H12B14307   1.831   5.873  10.799  1.8886  1.2545  3.5537
  133SAPE   C1114308   1.915   6.047  10.889  0.2955 -0.1989  0.2124
  133SAPE  H11A14309   1.871   6.037  10.990 -1.9527  0.3015 -0.6740
  133SAPE  H11B14310   1.915   6.157  10.873  1.2741 -0.2180  0.0612
  133SAPE     P14311   2.158   6.058  10.784  0.0054 -0.1723  0.4430
  133SAPE   O1314312   2.164   6.200  10.813  0.3641 -0.3773 -0.5202
  133SAPE   O1414313   2.289   5.982  10.791  0.4902  0.5271  0.2532
  133SAPE   O1214314   2.049   5.991  10.881 -0.5006 -0.4015  0.4403
  133SAPE   O1114315   2.092   6.048  10.644  0.0911 -0.2386  0.3847
  133SAPE    C114316   2.090   5.932  10.562  0.1762 -0.2946 -0.2772
  133SAPE    HA14317   2.109   5.841  10.624 -1.0198  0.7473  1.6510
  133SAPE    HB14318   1.992   5.914  10.514 -0.8485  0.1636  1.6104
  133SAPE    C214319   2.191   5.937  10.452 -0.2212  0.2474 -0.0400
  133SAPE    HS14320   2.294   5.963  10.485  0.0763 -1.1065  0.1313
  133SAPE   O2114321   2.134   6.026  10.354 -0.7347 -0.0784  0.7536
  133SAPE   C2114322   2.224   6.085  10.274 -0.8456  0.5447 -0.2731
  133SAPE   O2214323   2.345   6.088  10.291  0.4419 -0.8084 -0.0269
  133SAPE   C2214324   2.147   6.146  10.156  0.7482  0.4207  0.3619
  133SAPE   H2R14325   2.065   6.075  10.130  0.1193  0.8084  1.2732
  133SAPE   H2S14326   2.106   6.246  10.179  0.9332  1.2876 -2.8119
  133SAPE    C314327   2.206   5.800  10.390 -0.6097  0.0951 -0.4388
  133SAPE    HX14328   2.104   5.757  10.376 -1.2898  0.7955  2.0330
  133SAPE    HY14329   2.259   5.727  10.454 -1.8590 -1.9177 -1.6249
  133SAPE   O3114330   2.269   5.815  10.262  0.3821 -0.0919 -0.5592
  133SAPE   C3114331   2.400   5.801  10.259 -0.0077 -0.1220 -0.3625
  133SAPE   O3214332   2.472   5.779  10.353  1.0609  0.2611 -0.4632
  133SAPE   C3214333   2.451   5.801  10.111 -0.5178  0.3420 -0.0611
  133SAPE   H2X14334   2.374   5.814  10.033  1.9733  3.8673 -2.0959
  133SAPE   H2Y14335   2.490   5.697  10.098  1.2703  1.0396 -0.5000
  133SAPE   C2314336   2.240   6.156  10.034  0.0461  0.7493 -0.1281
  133SAPE   H3R14337   2.286   6.059  10.004 -0.8649  0.6874 -1.3939
  133SAPE   H3S14338   2.325   6.221  10.060  0.4183  0.2504 -0.0894
  133SAPE   C2414339   2.173   6.200   9.902 -0.2467  0.6592  0.1096
  133SAPE   H4R14340   2.078   6.145   9.883 -0.4291  1.0799 -0.1911
  133SAPE   H4S14341   2.228   6.165   9.811 -0.4524  0.3400  0.1070
  133SAPE   C2514342   2.144   6.352   9.895  0.4509  0.4482 -0.1431
  133SAPE   H5R14343   2.080   6.382   9.979 -0.5207  3.1727 -1.7860
  133SAPE   C2614344   2.189   6.444   9.811  0.6018 -0.4055  0.0495
  133SAPE   H6R14345   2.156   6.548   9.818  0.9942 -0.3134  0.5340
  133SAPE   C2714346   2.281   6.415   9.705 -0.3128  0.8745  0.1578
  133SAPE   H7R14347   2.320   6.314   9.680  0.7852  1.1911  0.5422
  133SAPE   H7S14348   2.381   6.460   9.723 -0.1535  0.2367  0.9093
  133SAPE   C2814349   2.231   6.467   9.577 -0.3273 -0.3394  0.3666
  133SAPE   H8R14350   2.125   6.437   9.569 -0.2434 -0.3733 -0.6882
  133SAPE   C2914351   2.288   6.533   9.473 -0.5532 -0.2737 -0.7452
  133SAPE   H9R14352   2.229   6.574   9.390 -0.9483  0.7689  0.0226
  133SAPE  C21014353   2.431   6.576   9.473 -0.4709 -0.4519 -0.2280
  133SAPE  H10R14354   2.445   6.641   9.561  1.4433  0.0427 -0.8728
  133SAPE  H10S14355   2.437   6.642   9.384 -0.6910 -0.0521  0.0521
  133SAPE  C21114356   2.546   6.475   9.466  0.2530  0.2815 -0.5677
  133SAPE  H11R14357   2.549   6.398   9.544  0.1291 -1.7083 -2.4717
  133SAPE  C21214358   2.642   6.480   9.374 -0.6823  0.8170  0.4816
  133SAPE  H12R14359   2.725   6.408   9.377 -0.3742  1.2022  1.2944
  133SAPE  C21314360   2.661   6.584   9.263  0.1077  0.4502  0.1460
  133SAPE  H13R14361   2.769   6.609   9.252  0.7001 -1.0164  2.1979
  133SAPE  H13S14362   2.600   6.676   9.274 -1.0740 -0.4064  0.9423
  133SAPE  C21414363   2.609   6.515   9.136  0.6165  0.4986 -0.7029
  133SAPE  H14R14364   2.589   6.407   9.138  0.3774  0.5378 -0.9485
  133SAPE  C21514365   2.608   6.564   9.014 -0.2575 -0.0998  0.9028
  133SAPE  H15R14366   2.576   6.504   8.928  0.0488  2.2513 -0.8652
  133SAPE  C21614367   2.652   6.699   8.971  0.6903 -0.1937 -0.5185
  133SAPE  H16R14368   2.689   6.768   9.051 -0.5728 -3.1118  2.6899
  133SAPE  H16S14369   2.555   6.748   8.947  1.4248  0.4663 -2.2473
  133SAPE  C21714370   2.746   6.706   8.845 -0.2785  1.0092  0.0880
  133SAPE  H17R14371   2.840   6.648   8.859 -0.1300  0.9987 -0.9485
  133SAPE  H17S14372   2.777   6.810   8.821  0.4281  1.0834  1.2550
  133SAPE  C21814373   2.686   6.652   8.714 -0.8666  0.0435  0.1353
  133SAPE  H18R14374   2.623   6.734   8.675 -2.5094 -1.3464 -0.1670
  133SAPE  H18S14375   2.619   6.564   8.725  0.1099 -1.1012 -2.5194
  133SAPE  C21914376   2.783   6.627   8.601 -0.3894  0.0706 -0.0881
  133SAPE  H19R14377   2.868   6.697   8.616 -0.9838  1.1296 -1.5492
  133SAPE  H19S14378   2.728   6.647   8.506  1.1117 -1.9141 -1.4188
  133SAPE  C22014379   2.844   6.484   8.612 -0.6830  0.2270 -0.1596
  133SAPE  H20R14380   2.906   6.454   8.525 -1.2314 -1.6622  0.0719
  133SAPE  H20S14381   2.755   6.418   8.617 -1.0721  0.6604 -1.2304
  133SAPE  H20T14382   2.905   6.485   8.705  1.2765  0.8462 -1.4272
  133SAPE   C3314383   2.561   5.914  10.087 -0.3327 -0.5192 -0.1119
  133SAPE   H3X14384   2.649   5.898  10.154 -0.9062 -0.0158  0.7673
  133SAPE   H3Y14385   2.514   6.014  10.102 -0.2725 -0.8551  2.5943
  133SAPE   C3414386   2.607   5.917   9.936 -0.1412 -0.1852 -0.2712
  133SAPE   H4X14387   2.626   5.810   9.912  3.1444  0.1333  0.7093
  133SAPE   H4Y14388   2.706   5.962   9.918  0.3484 -0.7875  0.8279
  133SAPE   C3514389   2.514   5.983   9.839  0.1775 -0.6922  0.3927
  133SAPE   H5X14390   2.500   6.091   9.863 -0.1138 -0.6185 -0.0944
  133SAPE   H5Y14391   2.414   5.936   9.852 -1.8006  3.1872  0.0754
  133SAPE   C3614392   2.554   5.976   9.692  0.1932  0.7942  0.3854
  133SAPE   H6X14393   2.575   5.870   9.667  0.0814  0.8778 -0.0858
  133SAPE   H6Y14394   2.656   6.020   9.689  0.8645 -0.6657  1.3989
  133SAPE   C3714395   2.443   6.039   9.601 -0.2968 -1.0253  0.5438
  133SAPE   H7X14396   2.433   6.146   9.629 -0.9106 -0.7013 -0.8435
  133SAPE   H7Y14397   2.340   6.002   9.623  0.0789 -1.9172  0.8118
  133SAPE   C3814398   2.482   6.027   9.448 -0.0615 -0.3897 -0.2328
  133SAPE   H8X14399   2.483   5.918   9.426  0.0584 -0.4113 -0.1175
  133SAPE   H8Y14400   2.584   6.066   9.430 -1.7958  4.5269 -0.2973
  133SAPE   C3914401   2.394   6.099   9.347 -0.2759 -0.7093 -0.0515
  133SAPE   H9X14402   2.392   6.209   9.365 -0.1126 -0.9219  1.3404
  133SAPE   H9Y14403   2.290   6.063   9.363 -0.2486 -0.5671  0.4616
  133SAPE  C31014404   2.428   6.058   9.201  0.3656 -0.5219  0.0065
  133SAPE  H10X14405   2.420   5.948   9.190  0.3637 -0.5873  0.6408
  133SAPE  H10Y14406   2.535   6.088   9.200 -0.0768  1.1617 -2.6822
  133SAPE  C31114407   2.349   6.141   9.096  0.4552  0.2722  0.0222
  133SAPE  H11X14408   2.363   6.250   9.115  2.3495  0.5564 -2.6476
  133SAPE  H11Y14409   2.244   6.111   9.116  0.7446 -0.6201  0.2170
  133SAPE  C31214410   2.380   6.107   8.952  0.1066  0.7988  0.7190
  133SAPE  H12X14411   2.348   6.004   8.927  1.4741  0.3588  0.7796
  133SAPE  H12Y14412   2.490   6.112   8.938  0.1107  0.2504  0.5547
  133SAPE  C31314413   2.311   6.202   8.854  0.4853  0.1286  0.6415
  133SAPE  H13X14414   2.338   6.174   8.750 -2.7708  0.2836 -0.3107
  133SAPE  H13Y14415   2.336   6.307   8.880  0.8954  0.3054 -0.4376
  133SAPE  C31414416   2.158   6.187   8.850 -0.0226 -0.2490 -0.6651
  133SAPE  H14X14417   2.126   6.197   8.956  1.8469  0.1501 -0.1238
  133SAPE  H14Y14418   2.129   6.084   8.821  1.4303 -0.9431  0.3217
  133SAPE  C31514419   2.081   6.286   8.761  0.3344  0.6401  0.1810
  133SAPE  H15X14420   2.104   6.389   8.794  0.4743 -0.0420  2.3130
  133SAPE  H15Y14421   1.973   6.261   8.768  0.9873 -3.6122 -2.7002
  133SAPE  C31614422   2.126   6.288   8.611 -0.0848 -0.3369 -0.2033
  133SAPE  H16X14423   2.108   6.187   8.568  3.1568 -2.0607  2.2650
  133SAPE  H16Y14424   2.236   6.296   8.614 -0.1352 -0.3227  2.0752
  133SAPE  C31714425   2.067   6.388   8.522 -0.7408  0.0550  0.1696
  133SAPE  H17X14426   2.083   6.494   8.553 -1.0380  0.5353 -1.3056
  133SAPE  H17Y14427   1.962   6.356   8.510  0.1714 -2.1740 -2.1840
  133SAPE  C31814428   2.127   6.378   8.384 -0.3537 -0.4538 -0.7682
  133SAPE  H18X14429   2.111   6.276   8.345 -0.7272 -1.4342  1.8350
  133SAPE  H18Y14430   2.236   6.395   8.372  0.2023 -0.9901  2.9173
  133SAPE  H18Z14431   2.082   6.454   8.317  0.1626  0.0495 -0.5447
  134SAPE     N14432   5.623   6.491  10.626  0.0242 -0.2809  0.5340
  134SAPE   HN114433   5.702   6.452  10.682  1.7752  1.5226 -0.6363
  134SAPE   HN214434   5.660   6.574  10.576 -1.0186 -1.3821 -2.1444
  134SAPE   HN314435   5.551   6.503  10.700 -1.8989  0.1305 -1.3785
  134SAPE   C1214436   5.570   6.388  10.534 -0.0151  0.1694  0.3626
  134SAPE  H12A14437   5.646   6.321  10.489 -1.5555 -0.6410 -1.0637
  134SAPE  H12B14438   5.512   6.429  10.448  1.5565  1.2077 -0.2275
  134SAPE   C1114439   5.477   6.295  10.615  0.0185 -0.2369  0.4978
  134SAPE  H11A14440   5.511   6.291  10.720  0.2292  0.7165  0.4742
  134SAPE  H11B14441   5.484   6.196  10.564  0.8462 -0.4577  1.0370
  134SAPE     P14442   5.240   6.260  10.699 -0.0009  0.5944  0.1237
  134SAPE   O1314443   5.279   6.269  10.841 -0.2110 -0.0495 -0.4303
  134SAPE   O1414444   5.107   6.310  10.665  0.4012  0.0367 -0.0615
  134SAPE   O1214445   5.346   6.344  10.610 -0.3074 -0.2149 -0.4854
  134SAPE   O1114446   5.262   6.108  10.658 -0.0710 -0.4767  0.5179
  134SAPE    C114447   5.163   6.046  10.573  0.3125 -0.4445 -0.8611
  134SAPE    HA14448   5.152   5.943  10.612  0.7250  0.1417  0.8357
  134SAPE    HB14449   5.061   6.091  10.576  0.2559 -0.7088  2.1685
  134SAPE    C214450   5.215   6.030  10.427  0.3536  0.4831  0.2810
  134SAPE    HS14451   5.325   6.013  10.433  0.1703 -0.2916  1.7216
  134SAPE   O2114452   5.169   6.155  10.359 -0.5008  0.0755  0.2689
  134SAPE   C2114453   5.269   6.212  10.305  0.3110  0.2942  1.0808
  134SAPE   O2214454   5.383   6.170  10.295  0.1722 -0.2400  0.1504
  134SAPE   C2214455   5.230   6.356  10.263  0.2883  0.1443 -0.6585
  134SAPE   H2R14456   5.137   6.349  10.203 -0.4768  1.3375  0.3766
  134SAPE   H2S14457   5.196   6.402  10.358 -0.1299 -1.3699 -0.0514
  134SAPE    C314458   5.166   5.903  10.345  0.1945 -0.1184  0.1368
  134SAPE    HX14459   5.071   5.922  10.291  0.6931  0.2244 -0.6202
  134SAPE    HY14460   5.143   5.829  10.425  0.9498  1.0210  1.4099
  134SAPE   O3114461   5.271   5.860  10.262  0.0388  0.3360 -0.1854
  134SAPE   C3114462   5.284   5.902  10.147 -0.6601 -0.4382 -0.2857
  134SAPE   O3214463   5.204   5.981  10.091 -0.7176  0.3057  0.7193
  134SAPE   C3214464   5.420   5.857  10.090  0.2562 -0.7133 -0.0260
  134SAPE   H2X14465   5.410   5.750  10.066 -1.3894 -0.5256 -0.2353
  134SAPE   H2Y14466   5.500   5.874  10.166 -1.9972 -1.1575  2.5452
  134SAPE   C2314467   5.341   6.429  10.183  0.1031 -1.3924  0.0485
  134SAPE   H3R14468   5.317   6.405  10.077  0.1667  0.9486 -0.5229
  134SAPE   H3S14469   5.439   6.390  10.219 -0.0372 -1.2295  0.6084
  134SAPE   C2414470   5.331   6.590  10.208  0.4181 -0.4718 -0.4557
  134SAPE   H4R14471   5.431   6.637  10.208  2.3046 -4.2563 -0.3971
  134SAPE   H4S14472   5.287   6.606  10.309 -0.1001  1.5398 -0.9920
  134SAPE   C2514473   5.243   6.660  10.109  0.2239  0.2834  0.7312
  134SAPE   H5R14474   5.161   6.716  10.156 -0.8982 -1.6558  1.1079
  134SAPE   C2614475   5.264   6.668   9.973  0.4075  0.6892 -0.1230
  134SAPE   H6R14476   5.191   6.727   9.915  0.4559 -0.8155 -1.7803
  134SAPE   C2714477   5.384   6.612   9.888 -0.6141  0.3126  0.0481
  134SAPE   H7R14478   5.349   6.548   9.804 -3.7033 -0.0871  1.5876
  134SAPE   H7S14479   5.456   6.551   9.945  1.7682  0.7095 -2.4086
  134SAPE   C2814480   5.453   6.730   9.827  0.3286 -0.4156  0.2123
  134SAPE   H8R14481   5.541   6.759   9.886  0.1618  0.0179  0.2520
  134SAPE   C2914482   5.424   6.786   9.708  0.9636  0.0465  0.1684
  134SAPE   H9R14483   5.489   6.871   9.680  0.3605  0.2527 -0.6326
  134SAPE  C21014484   5.317   6.742   9.610  0.8078 -0.1773 -0.7120
  134SAPE  H10R14485   5.243   6.670   9.650 -1.1378  2.0340 -0.2164
  134SAPE  H10S14486   5.374   6.704   9.522 -1.0162 -0.9261 -1.5989
  134SAPE  C21114487   5.228   6.860   9.568  0.1149 -0.0555 -0.3019
  134SAPE  H11R14488   5.134   6.867   9.623  0.7737 -2.1353  1.1668
  134SAPE  C21214489   5.254   6.942   9.459  0.1676  0.1102  0.5512
  134SAPE  H12R14490   5.172   7.010   9.432 -0.1443 -0.8729 -1.0433
  134SAPE  C21314491   5.366   6.936   9.359  0.6778  0.1492  0.0046
  134SAPE  H13R14492   5.332   6.874   9.273 -1.2239  1.6975 -0.3943
  134SAPE  H13S14493   5.450   6.883   9.409 -0.8074 -1.9634  0.3782
  134SAPE  C21414494   5.418   7.071   9.310 -0.0577 -0.2442 -0.9605
  134SAPE  H14R14495   5.478   7.136   9.375 -2.3909  1.0307 -0.0213
  134SAPE  C21514496   5.408   7.129   9.190  0.1855 -0.5852 -0.6030
  134SAPE  H15R14497   5.459   7.227   9.179  0.1385 -0.7040 -1.9642
  134SAPE  C21614498   5.326   7.074   9.079  0.6323  0.5200  1.0440
  134SAPE  H16R14499   5.279   6.979   9.113 -1.2705  0.6730 -1.0155
  134SAPE  H16S14500   5.391   7.049   8.992  0.3825  3.1949  0.0406
  134SAPE  C21714501   5.218   7.180   9.056  0.5963 -0.2743  0.4698
  134SAPE  H17R14502   5.264   7.277   9.027  1.2566 -1.3908 -2.4433
  134SAPE  H17S14503   5.156   7.190   9.147 -1.3931 -0.3357 -0.8338
  134SAPE  C21814504   5.123   7.126   8.945 -0.0049  0.0151  0.3888
  134SAPE  H18R14505   5.065   7.039   8.983  0.9010 -1.0972 -0.7431
  134SAPE  H18S14506   5.184   7.083   8.863  1.7089 -1.3385  2.2898
  134SAPE  C21914507   5.030   7.224   8.893  0.3673 -0.1174 -0.5798
  134SAPE  H19R14508   4.999   7.302   8.966  1.3202 -0.8337  0.6093
  134SAPE  H19S14509   4.940   7.173   8.855 -0.0263  2.5754 -3.4774
  134SAPE  C22014510   5.083   7.288   8.764 -0.1353  0.8165 -0.3922
  134SAPE  H20R14511   5.127   7.212   8.695 -2.0578  0.0974 -0.8586
  134SAPE  H20S14512   5.167   7.356   8.791 -0.3460  0.2440  1.7443
  134SAPE  H20T14513   4.999   7.334   8.708  0.3859  2.7782  0.3915
  134SAPE   C3314514   5.461   5.927   9.954 -0.6249  0.3424 -0.2978
  134SAPE   H3X14515   5.569   5.905   9.945  0.0501  3.2683  0.3124
  134SAPE   H3Y14516   5.437   6.032   9.981 -1.0980  0.3106 -0.5771
  134SAPE   C3414517   5.397   5.880   9.825  0.0687  0.3392 -0.6474
  134SAPE   H4X14518   5.287   5.881   9.833  0.0424  0.0629 -0.9810
  134SAPE   H4Y14519   5.431   5.775   9.815 -1.1650 -0.1839  0.5328
  134SAPE   C3514520   5.438   5.968   9.706  0.3533 -0.5726 -0.3079
  134SAPE   H5X14521   5.543   6.005   9.718 -0.8210  2.0594  2.5948
  134SAPE   H5Y14522   5.376   6.060   9.713  2.1451  0.7098 -1.0420
  134SAPE   C3614523   5.423   5.891   9.574  1.2545  0.4150 -1.2072
  134SAPE   H6X14524   5.316   5.864   9.562  0.2290  2.7359  2.1079
  134SAPE   H6Y14525   5.493   5.805   9.587  0.5063 -0.0199  0.0616
  134SAPE   C3714526   5.465   5.988   9.458 -0.2812  0.2105 -0.4329
  134SAPE   H7X14527   5.549   6.049   9.498  0.3648  0.3136 -1.9012
  134SAPE   H7Y14528   5.383   6.059   9.434 -1.0460  0.4828  2.8014
  134SAPE   C3814529   5.503   5.910   9.331  0.1231  0.1755  0.0856
  134SAPE   H8X14530   5.421   5.838   9.312  0.4685  0.2333 -1.7339
  134SAPE   H8Y14531   5.602   5.867   9.359  0.9859  1.6487 -0.6674
  134SAPE   C3914532   5.523   6.001   9.215  0.5257 -0.3116  0.0168
  134SAPE   H9X14533   5.578   6.092   9.245 -2.0099  0.6565  1.8618
  134SAPE   H9Y14534   5.424   6.046   9.189  0.9945  1.4518  1.2135
  134SAPE  C31014535   5.588   5.940   9.080  0.0045 -0.5756 -0.8868
  134SAPE  H10X14536   5.505   5.890   9.024  0.1783 -1.7689 -0.0861
  134SAPE  H10Y14537   5.659   5.863   9.116  0.5824 -0.2633 -1.3634
  134SAPE  C31114538   5.664   6.048   8.997  0.0952 -0.0270 -0.0349
  134SAPE  H11X14539   5.719   6.005   8.911 -1.8041  0.2404 -1.4187
  134SAPE  H11Y14540   5.733   6.111   9.057  1.3254 -0.0493 -1.4035
  134SAPE  C31214541   5.571   6.153   8.936 -0.3864  0.2324 -0.5096
  134SAPE  H12X14542   5.521   6.214   9.015  1.4519  1.8558 -0.5692
  134SAPE  H12Y14543   5.496   6.094   8.878 -1.0013  0.1606  0.3439
  134SAPE  C31314544   5.641   6.245   8.830 -0.2228  0.5158 -0.3141
  134SAPE  H13X14545   5.719   6.182   8.782  1.3768  2.3070 -0.1226
  134SAPE  H13Y14546   5.691   6.322   8.892  1.1720 -1.0431  0.5345
  134SAPE  C31414547   5.542   6.318   8.735 -0.4671  0.0507 -0.5333
  134SAPE  H14X14548   5.567   6.424   8.713 -2.0750  0.2704 -1.3523
  134SAPE  H14Y14549   5.436   6.298   8.759 -0.2118 -1.0812 -0.3263
  134SAPE  C31514550   5.550   6.265   8.593 -0.4005  0.3923  1.3408
  134SAPE  H15X14551   5.513   6.160   8.595  1.1768 -0.2119 -0.0620
  134SAPE  H15Y14552   5.647   6.276   8.540 -0.5473  1.5735  1.3074
  134SAPE  C31614553   5.441   6.329   8.507  0.0170 -0.2259 -0.0103
  134SAPE  H16X14554   5.476   6.430   8.475 -1.8317  0.7526  0.9695
  134SAPE  H16Y14555   5.345   6.343   8.562  0.2746  1.0105  0.1353
  134SAPE  C31714556   5.414   6.254   8.373  0.2383 -0.2214  0.1625
  134SAPE  H17X14557   5.497   6.182   8.359 -1.6560 -2.5726  0.8216
  134SAPE  H17Y14558   5.409   6.332   8.294 -1.5326 -0.0213  0.4361
  134SAPE  C31814559   5.277   6.189   8.382 -1.0809 -0.7212  0.4158
  134SAPE  H18X14560   5.267   6.120   8.469  2.6868 -0.6734  0.9867
  134SAPE  H18Y14561   5.257   6.129   8.291 -0.5614 -0.4063  0.0939
  134SAPE  H18Z14562   5.198   6.266   8.395 -1.8583 -1.5396  0.6391
  135SAPE     N14563   5.561   5.102  10.647 -0.0242 -0.4778 -0.0141
  135SAPE   HN114564   5.607   5.122  10.556  0.7007  0.3509  0.5261
  135SAPE   HN214565   5.471   5.152  10.630 -0.6003 -0.9925  1.4636
  135SAPE   HN314566   5.604   5.163  10.719  0.9436 -0.4882 -0.5795
  135SAPE   C1214567   5.516   4.960  10.679  0.8610  0.6068  0.4860
  135SAPE  H12A14568   5.442   4.965  10.762  3.5847  1.1394  2.9767
  135SAPE  H12B14569   5.599   4.898  10.718  1.7715  2.0037  0.7866
  135SAPE   C1114570   5.454   4.897  10.553 -0.0129  0.4688 -0.2886
  135SAPE  H11A14571   5.437   4.789  10.571 -1.9033  1.0153  1.3631
  135SAPE  H11B14572   5.527   4.891  10.469 -1.9915 -0.8434 -1.9664
  135SAPE     P14573   5.190   4.951  10.565 -0.0845 -0.4634 -0.5382
  135SAPE   O1314574   5.195   4.881  10.698 -0.3906  0.3242 -0.2241
  135SAPE   O1414575   5.110   5.074  10.551  0.2621 -0.2603 -0.3443
  135SAPE   O1214576   5.339   4.971  10.516 -0.0247  0.6265  0.0338
  135SAPE   O1114577   5.133   4.856  10.458 -0.4959  0.4771  0.4645
  135SAPE    C114578   5.161   4.717  10.447 -0.7271 -0.2510  0.1801
  135SAPE    HA14579   5.264   4.698  10.408  0.3440  1.5707  2.0015
  135SAPE    HB14580   5.167   4.666  10.546 -0.1611  1.8380  1.2460
  135SAPE    C214581   5.046   4.644  10.374  0.1163  0.1042 -0.1968
  135SAPE    HS14582   4.959   4.657  10.441  0.1445 -1.4938  0.1782
  135SAPE   O2114583   5.083   4.505  10.346 -0.7430 -0.2804  0.0989
  135SAPE   C2114584   5.016   4.411  10.403  0.0202 -0.1860 -0.0153
  135SAPE   O2214585   4.930   4.430  10.488 -0.3523  0.8933 -0.3203
  135SAPE   C2214586   5.055   4.273  10.358 -0.6272 -0.2145 -0.2828
  135SAPE   H2R14587   5.165   4.271  10.339 -0.5476 -0.0836  0.1573
  135SAPE   H2S14588   5.032   4.211  10.448  0.9179 -0.0335  0.2565
  135SAPE    C314589   5.022   4.720  10.242 -0.1058 -0.1139  0.1787
  135SAPE    HX14590   5.109   4.712  10.173  0.2307  2.0672  0.3354
  135SAPE    HY14591   4.997   4.826  10.262  0.4684  0.1262 -0.3785
  135SAPE   O3114592   4.913   4.661  10.170  0.5944  0.0716 -0.0200
  135SAPE   C3114593   4.868   4.743  10.082 -0.2504  0.1861  0.2526
  135SAPE   O3214594   4.898   4.856  10.066 -0.5997 -0.4214  0.5216
  135SAPE   C3214595   4.779   4.671   9.976  0.2883 -0.0370  0.2860
  135SAPE   H2X14596   4.711   4.603  10.033  0.6844  0.2938  1.1694
  135SAPE   H2Y14597   4.859   4.603   9.939  1.6065  2.0716 -0.7949
  135SAPE   C2314598   4.984   4.217  10.238  0.4078 -0.4064  0.2006
  135SAPE   H3R14599   4.875   4.214  10.257  0.4714  0.5797  0.7654
  135SAPE   H3S14600   5.013   4.111  10.221  0.8033 -0.4578  1.1613
  135SAPE   C2414601   5.018   4.304  10.112 -0.4376 -1.1386 -0.4642
  135SAPE   H4R14602   4.954   4.395  10.105 -0.2604 -0.9728  0.0373
  135SAPE   H4S14603   4.988   4.237  10.029  0.0134 -1.8403 -0.0616
  135SAPE   C2514604   5.166   4.356  10.091  0.2140 -0.0577  0.2983
  135SAPE   H5R14605   5.183   4.461  10.117 -0.9652  1.1381 -3.4582
  135SAPE   C2614606   5.256   4.300  10.014 -0.6350 -0.4881 -0.7792
  135SAPE   H6R14607   5.354   4.347   9.997  0.2325 -1.1574  2.0789
  135SAPE   C2714608   5.237   4.178   9.924 -0.8257 -0.8482 -0.1838
  135SAPE   H7R14609   5.176   4.097   9.970 -2.9736  0.6626 -0.3033
  135SAPE   H7S14610   5.331   4.119   9.921 -0.8061 -0.8040 -0.4483
  135SAPE   C2814611   5.192   4.194   9.784 -0.2462  0.7277  0.1016
  135SAPE   H8R14612   5.086   4.170   9.767 -0.2630  1.5259 -0.9556
  135SAPE   C2914613   5.257   4.240   9.678 -0.7186  0.5806 -0.3407
  135SAPE   H9R14614   5.206   4.230   9.581 -1.9840 -0.2409  0.3870
  135SAPE  C21014615   5.404   4.276   9.679  0.9544  0.4524 -0.1138
  135SAPE  H10R14616   5.465   4.191   9.643  0.3047  0.7671 -2.0890
  135SAPE  H10S14617   5.446   4.305   9.777 -0.1947 -0.8914  0.8036
  135SAPE  C21114618   5.433   4.395   9.592  0.0094 -0.5283  0.0575
  135SAPE  H11R14619   5.454   4.486   9.650  0.0365 -0.1845 -0.4855
  135SAPE  C21214620   5.435   4.397   9.456  0.1876  0.0125  0.2412
  135SAPE  H12R14621   5.446   4.499   9.417 -3.8151  0.0564 -0.9696
  135SAPE  C21314622   5.424   4.279   9.359 -0.1629 -0.4680  0.2963
  135SAPE  H13R14623   5.317   4.281   9.328 -1.0318 -0.1580  3.1015
  135SAPE  H13S14624   5.438   4.185   9.418 -0.8096 -0.7049  0.0733
  135SAPE  C21414625   5.519   4.297   9.241 -0.4758 -0.8313 -0.1199
  135SAPE  H14R14626   5.625   4.313   9.266 -1.1657 -0.4303  2.7503
  135SAPE  C21514627   5.479   4.293   9.114 -0.5829  0.3311  0.7536
  135SAPE  H15R14628   5.556   4.271   9.038 -1.3520 -1.3230  0.4331
  135SAPE  C21614629   5.336   4.272   9.064  0.4588  0.6590 -0.0524
  135SAPE  H16R14630   5.296   4.181   9.114 -0.7032 -0.1184 -2.3308
  135SAPE  H16S14631   5.345   4.245   8.956  0.2630  0.8141 -0.1075
  135SAPE  C21714632   5.239   4.388   9.067 -0.3565 -0.3962 -0.1166
  135SAPE  H17R14633   5.213   4.417   9.171 -1.5482  0.3571 -0.6183
  135SAPE  H17S14634   5.147   4.365   9.010 -2.1236  1.2205  2.0125
  135SAPE  C21814635   5.299   4.513   9.001  1.2653  0.2212 -0.0472
  135SAPE  H18R14636   5.327   4.488   8.896 -0.6396 -0.0929 -0.4934
  135SAPE  H18S14637   5.390   4.542   9.058  1.1349 -1.0043  0.8140
  135SAPE  C21914638   5.202   4.635   9.000 -0.2482 -0.0488  0.4146
  135SAPE  H19R14639   5.140   4.650   9.091  0.6379 -0.5408  1.1087
  135SAPE  H19S14640   5.132   4.602   8.921 -0.2256 -0.7587  0.6833
  135SAPE  C22014641   5.280   4.771   8.966 -0.2097 -0.1756 -0.8529
  135SAPE  H20R14642   5.302   4.777   8.857 -2.3435  0.2088 -1.2834
  135SAPE  H20S14643   5.371   4.766   9.031 -1.0141 -0.5622  0.2551
  135SAPE  H20T14644   5.228   4.864   8.995  1.5057  0.0006  1.8590
  135SAPE   C3314645   4.713   4.760   9.864 -0.0658 -0.6899  0.3611
  135SAPE   H3X14646   4.794   4.827   9.826 -0.7840  0.3983  0.7146
  135SAPE   H3Y14647   4.641   4.827   9.916  2.0230 -0.8294  3.5836
  135SAPE   C3414648   4.647   4.670   9.761  0.0569  0.3453  0.5973
  135SAPE   H4X14649   4.548   4.632   9.793  0.5078  0.2014  1.8130
  135SAPE   H4Y14650   4.713   4.582   9.743  0.0292  0.6567 -1.1660
  135SAPE   C3514651   4.624   4.745   9.632 -0.0668 -0.4860  0.7863
  135SAPE   H5X14652   4.714   4.807   9.610 -1.6101  1.3541 -0.5437
  135SAPE   H5Y14653   4.548   4.821   9.659  1.4069  2.0657 -1.9053
  135SAPE   C3614654   4.592   4.670   9.502 -0.1461 -0.0632 -0.0860
  135SAPE   H6X14655   4.497   4.614   9.514  0.6249 -1.4842 -0.4631
  135SAPE   H6Y14656   4.672   4.593   9.487 -0.7391 -0.7509  0.2659
  135SAPE   C3714657   4.588   4.763   9.375  0.1969 -0.0136  0.5506
  135SAPE   H7X14658   4.686   4.815   9.364 -0.5652  1.0559 -1.2737
  135SAPE   H7Y14659   4.512   4.843   9.379 -1.2021 -1.1830 -1.7337
  135SAPE   C3814660   4.554   4.684   9.244  0.3582 -0.7835 -0.8069
  135SAPE   H8X14661   4.445   4.666   9.256 -0.2175  2.9427  0.1894
  135SAPE   H8Y14662   4.611   4.589   9.244 -0.8577 -1.5436  1.1039
  135SAPE   C3914663   4.592   4.773   9.129  0.1822  0.2068 -0.1630
  135SAPE   H9X14664   4.698   4.804   9.141 -0.4839  2.7922 -0.7352
  135SAPE   H9Y14665   4.537   4.869   9.132  0.3939  0.3995 -2.0249
  135SAPE  C31014666   4.565   4.693   9.000  1.1808  0.5224  0.4312
  135SAPE  H10X14667   4.465   4.649   9.018 -0.1379  3.5854  0.9696
  135SAPE  H10Y14668   4.640   4.613   8.984  0.8204 -0.4026  3.1989
  135SAPE  C31114669   4.542   4.788   8.889  0.9455 -0.1974  0.3012
  135SAPE  H11X14670   4.606   4.879   8.896  1.4503 -0.2474 -2.9655
  135SAPE  H11Y14671   4.439   4.831   8.894  0.1702 -2.0782  0.7209
  135SAPE  C31214672   4.554   4.736   8.743  0.7446 -0.3084  0.5009
  135SAPE  H12X14673   4.520   4.812   8.670  1.9917 -0.8020 -0.6193
  135SAPE  H12Y14674   4.483   4.651   8.734 -0.9087  1.0909 -0.0049
  135SAPE  C31314675   4.694   4.681   8.708  0.0925 -0.6138 -0.1229
  135SAPE  H13X14676   4.700   4.632   8.608 -0.3831 -3.2794  1.1359
  135SAPE  H13Y14677   4.728   4.607   8.783 -0.8057 -0.1927  0.7164
  135SAPE  C31414678   4.797   4.789   8.728  0.6105 -0.3824  0.4552
  135SAPE  H14X14679   4.902   4.757   8.710  0.4415 -0.5745 -0.2016
  135SAPE  H14Y14680   4.778   4.835   8.828  0.5558  1.9687 -0.5986
  135SAPE  C31514681   4.779   4.904   8.630  0.3886  0.2378  0.6382
  135SAPE  H15X14682   4.843   4.978   8.684  2.0026 -0.5788 -0.1290
  135SAPE  H15Y14683   4.676   4.939   8.606  0.3793  1.6817  2.6400
  135SAPE  C31614684   4.838   4.877   8.492 -1.0696 -0.3382  0.0704
  135SAPE  H16X14685   4.780   4.800   8.437  1.6298 -2.7064  0.4153
  135SAPE  H16Y14686   4.942   4.841   8.509 -0.6409  0.5223 -0.7043
  135SAPE  C31714687   4.860   5.005   8.416 -0.0908 -0.0163  0.0745
  135SAPE  H17X14688   4.919   4.979   8.325  2.1861  0.7821  1.2723
  135SAPE  H17Y14689   4.928   5.073   8.472  1.0544 -0.6164 -0.5778
  135SAPE  C31814690   4.731   5.090   8.373  0.6598  0.1955  0.0004
  135SAPE  H18X14691   4.660   5.084   8.459  0.6276 -1.1479 -0.1039
  135SAPE  H18Y14692   4.675   5.051   8.285 -0.3657  1.8082 -0.0882
  135SAPE  H18Z14693   4.749   5.197   8.350 -1.8181 -0.2565 -4.6235
  136SAPE     N14694   1.517   4.864  10.959  0.4971 -0.3435  0.4410
  136SAPE   HN114695   1.586   4.940  10.942  1.5285 -1.5614 -0.9087
  136SAPE   HN214696   1.569   4.774  10.963 -0.0946 -0.8796 -2.9115
  136SAPE   HN314697   1.460   4.856  10.873  3.7012  3.1886 -2.1703
  136SAPE   C1214698   1.424   4.884  11.072 -0.0170  0.7185 -0.3361
  136SAPE  H12A14699   1.458   4.977  11.122  2.4423 -0.0048 -0.6020
  136SAPE  H12B14700   1.427   4.797  11.141 -1.0805  0.5200 -0.5178
  136SAPE   C1114701   1.288   4.886  11.009 -0.1191 -0.9205 -0.5734
  136SAPE  H11A14702   1.285   4.964  10.930  0.1704 -0.2748  0.0501
  136SAPE  H11B14703   1.220   4.918  11.091 -0.3305  2.1711 -1.9213
  136SAPE     P14704   1.114   4.734  10.887  0.4358  0.2666  0.1773
  136SAPE   O1314705   1.088   4.591  10.883 -0.4295  0.1361  0.2074
  136SAPE   O1414706   1.009   4.812  10.960  0.3231 -0.4615  0.5968
  136SAPE   O1214707   1.256   4.757  10.952  0.4103  0.4384 -0.4029
  136SAPE   O1114708   1.131   4.790  10.739  0.5078 -0.4285 -0.4069
  136SAPE    C114709   1.041   4.775  10.630  0.5811  0.6625 -0.7318
  136SAPE    HA14710   0.958   4.708  10.662  2.0861 -0.6602  0.4940
  136SAPE    HB14711   1.000   4.871  10.591 -1.6247  0.0609  0.0280
  136SAPE    C214712   1.105   4.704  10.506 -1.1766  0.3711 -0.4964
  136SAPE    HS14713   1.146   4.610  10.548 -0.8669 -0.0450 -1.6921
  136SAPE   O2114714   1.198   4.791  10.448  0.0996 -0.0753 -0.0316
  136SAPE   C2114715   1.296   4.732  10.379 -0.2874 -0.6459 -0.1052
  136SAPE   O2214716   1.329   4.619  10.393 -0.1890  0.3759 -0.3870
  136SAPE   C2214717   1.341   4.835  10.275 -0.0779  0.1473  0.1982
  136SAPE   H2R14718   1.246   4.881  10.238  0.4394  1.1089  0.0417
  136SAPE   H2S14719   1.404   4.908  10.330  1.6237 -0.6155 -0.7063
  136SAPE    C314720   0.996   4.666  10.406  0.1564  0.2942 -0.8919
  136SAPE    HX14721   0.932   4.754  10.385  0.7201  0.6780 -1.0079
  136SAPE    HY14722   0.927   4.596  10.458  1.3113 -0.8588 -0.8919
  136SAPE   O3114723   1.055   4.603  10.286  0.4077  0.4897 -0.2509
  136SAPE   C3114724   0.952   4.565  10.200 -0.2247 -0.2721 -0.1358
  136SAPE   O3214725   0.837   4.591  10.216 -0.1500  0.1617  0.2173
  136SAPE   C3214726   1.011   4.467  10.098 -0.6491  0.4627  0.2186
  136SAPE   H2X14727   0.931   4.425  10.032 -0.0616 -0.9675  0.4169
  136SAPE   H2Y14728   1.046   4.384  10.163 -0.0987  0.0765 -0.5644
  136SAPE   C2314729   1.418   4.774  10.157 -0.3222  0.4631 -0.2116
  136SAPE   H3R14730   1.398   4.665  10.149 -1.0482  0.6054 -0.4122
  136SAPE   H3S14731   1.526   4.791  10.172 -0.2451 -1.0118  1.0571
  136SAPE   C2414732   1.364   4.835  10.025  0.3885  0.1815 -0.0575
  136SAPE   H4R14733   1.394   4.940  10.005 -1.7075  0.7818 -0.1478
  136SAPE   H4S14734   1.253   4.835  10.029  0.2777 -0.0657 -2.6548
  136SAPE   C2514735   1.426   4.756   9.913 -0.2293  0.2868 -0.0675
  136SAPE   H5R14736   1.495   4.676   9.946 -1.0915  0.3704  2.0501
  136SAPE   C2614737   1.395   4.774   9.783  0.5236  0.2165  0.5870
  136SAPE   H6R14738   1.449   4.713   9.710  1.5652  2.0222 -0.1804
  136SAPE   C2714739   1.301   4.882   9.725  0.2238  0.4094  0.5124
  136SAPE   H7R14740   1.356   4.934   9.643 -0.4118  2.0257  1.0791
  136SAPE   H7S14741   1.289   4.958   9.806  1.1808  1.4587 -0.3039
  136SAPE   C2814742   1.175   4.812   9.687 -0.5722  0.6212 -0.7711
  136SAPE   H8R14743   1.115   4.788   9.775  0.2077  0.5826 -0.2414
  136SAPE   C2914744   1.127   4.795   9.563 -0.5773  0.2569  0.3771
  136SAPE   H9R14745   1.031   4.743   9.549 -1.3779  1.8459 -0.1454
  136SAPE  C21014746   1.195   4.856   9.438 -0.4750 -0.1712  0.6057
  136SAPE  H10R14747   1.250   4.951   9.453 -0.6157  0.0088  0.0072
  136SAPE  H10S14748   1.130   4.876   9.350  0.4482 -0.6170 -0.1871
  136SAPE  C21114749   1.300   4.765   9.394 -0.3880  0.6046  0.3951
  136SAPE  H11R14750   1.357   4.711   9.470  2.5190  1.3877 -1.1513
  136SAPE  C21214751   1.343   4.738   9.268  0.2236 -0.4207 -0.7415
  136SAPE  H12R14752   1.428   4.669   9.254  0.7148  0.1442 -0.5421
  136SAPE  C21314753   1.302   4.805   9.138  0.2811  0.6251 -0.5564
  136SAPE  H13R14754   1.379   4.849   9.071 -0.9878  3.1659 -0.4229
  136SAPE  H13S14755   1.234   4.889   9.162 -1.1516 -0.8104  0.4681
  136SAPE  C21414756   1.219   4.706   9.060  0.1930 -0.3787  0.5446
  136SAPE  H14R14757   1.175   4.626   9.121 -1.6018  0.6889  0.6935
  136SAPE  C21514758   1.202   4.712   8.930 -0.2908 -0.2004 -0.0368
  136SAPE  H15R14759   1.136   4.642   8.878  1.7655 -0.8136 -1.9246
  136SAPE  C21614760   1.264   4.819   8.842 -0.5498  0.6259  0.0400
  136SAPE  H16R14761   1.370   4.841   8.867 -0.0768 -1.0826 -0.4334
  136SAPE  H16S14762   1.219   4.918   8.866 -1.9129 -0.1710  0.8275
  136SAPE  C21714763   1.254   4.795   8.692 -0.2697  0.2554 -0.0812
  136SAPE  H17R14764   1.148   4.771   8.665  0.0281 -3.4581  1.7599
  136SAPE  H17S14765   1.320   4.714   8.655 -1.8938 -1.0547 -0.1564
  136SAPE  C21814766   1.307   4.911   8.608  0.1638 -0.3243 -0.3109
  136SAPE  H18R14767   1.414   4.921   8.638  0.0423 -2.7250  1.0282
  136SAPE  H18S14768   1.250   5.000   8.641  1.2084  0.2437 -0.0139
  136SAPE  C21914769   1.294   4.905   8.456 -0.6047 -0.2532  0.1058
  136SAPE  H19R14770   1.190   4.883   8.426  0.1285 -1.3702 -1.7780
  136SAPE  H19S14771   1.357   4.823   8.414 -0.6512 -0.5035  0.5214
  136SAPE  C22014772   1.341   5.033   8.385 -0.4664  0.3720  0.2766
  136SAPE  H20R14773   1.281   5.124   8.408  0.0462  0.7446  0.1417
  136SAPE  H20S14774   1.324   5.017   8.276 -1.0678  0.9647  0.2748
  136SAPE  H20T14775   1.445   5.052   8.416 -0.5982 -0.3729  1.1844
  136SAPE   C3314776   1.126   4.517  10.010  0.2985  0.3991 -0.6391
  136SAPE   H3X14777   1.213   4.561  10.063  0.1015  0.3781 -0.2954
  136SAPE   H3Y14778   1.083   4.601   9.951 -2.3067 -1.6367 -1.7729
  136SAPE   C3414779   1.164   4.421   9.898 -0.2983  0.1602  0.5589
  136SAPE   H4X14780   1.192   4.319   9.931 -1.7543 -0.0296  1.2372
  136SAPE   H4Y14781   1.257   4.466   9.857 -0.6379  1.3776  1.1246
  136SAPE   C3514782   1.055   4.414   9.793  0.4833 -0.1981 -0.1550
  136SAPE   H5X14783   1.018   4.519   9.789 -1.3897 -0.5644  3.9988
  136SAPE   H5Y14784   0.962   4.363   9.828  0.3101  0.5423  0.4792
  136SAPE   C3614785   1.094   4.368   9.652 -0.5106 -0.2344 -0.0346
  136SAPE   H6X14786   1.096   4.258   9.638 -2.4296  0.0720 -3.3970
  136SAPE   H6Y14787   1.197   4.406   9.636 -0.9188  1.8294  1.9728
  136SAPE   C3714788   1.007   4.426   9.535 -0.4066 -0.0708 -0.1462
  136SAPE   H7X14789   1.021   4.536   9.530  4.0773 -0.5206  0.8407
  136SAPE   H7Y14790   0.900   4.406   9.557 -0.9699 -0.0258 -2.7335
  136SAPE   C3814791   1.046   4.363   9.404 -0.0769  0.2548  0.4381
  136SAPE   H8X14792   1.034   4.252   9.402 -3.0398  0.5323 -0.5572
  136SAPE   H8Y14793   1.156   4.365   9.391 -0.0606 -0.8764  0.3204
  136SAPE   C3914794   0.985   4.425   9.278 -0.2371  0.4250 -0.8176
  136SAPE   H9X14795   1.025   4.529   9.289  0.5588  0.3641 -2.8922
  136SAPE   H9Y14796   0.874   4.425   9.279 -0.2375  1.1063 -0.2842
  136SAPE  C31014797   1.032   4.369   9.142 -0.1266  1.0180  0.0644
  136SAPE  H10X14798   1.013   4.262   9.120 -0.4656  0.9410  0.7472
  136SAPE  H10Y14799   1.141   4.387   9.134 -0.0207  0.0787 -0.7094
  136SAPE  C31114800   0.952   4.438   9.028 -1.1804 -0.2788 -0.1533
  136SAPE  H11X14801   0.979   4.546   9.032  1.1688 -0.8423  0.6163
  136SAPE  H11Y14802   0.844   4.415   9.041 -0.7999 -2.4401 -0.5741
  136SAPE  C31214803   0.992   4.386   8.893 -0.0694 -0.2431  0.7816
  136SAPE  H12X14804   0.962   4.281   8.872  3.5952 -1.1151 -0.4306
  136SAPE  H12Y14805   1.103   4.390   8.892 -0.0174 -1.0428  2.1917
  136SAPE  C31314806   0.928   4.466   8.773 -0.1070  0.2710 -0.1083
  136SAPE  H13X14807   0.931   4.577   8.772 -0.0508  0.2625 -0.5361
  136SAPE  H13Y14808   0.819   4.443   8.765  0.2078 -1.0085 -0.7005
  136SAPE  C31414809   0.986   4.423   8.643 -0.4223  0.2365 -0.2195
  136SAPE  H14X14810   0.976   4.313   8.643  3.4413 -0.2096 -0.6822
  136SAPE  H14Y14811   1.090   4.463   8.632 -0.3856  0.0225 -0.6527
  136SAPE  C31514812   0.912   4.473   8.518 -0.7140  0.3068  0.4147
  136SAPE  H15X14813   0.804   4.461   8.543 -1.0159  1.2814 -0.3997
  136SAPE  H15Y14814   0.935   4.409   8.430  0.0084 -1.6390  1.9626
  136SAPE  C31614815   0.942   4.618   8.493  0.4712  0.2059  0.8794
  136SAPE  H16X14816   1.049   4.637   8.513  1.3292 -0.8325 -2.3760
  136SAPE  H16Y14817   0.888   4.686   8.562 -1.7966  1.7022 -2.2636
  136SAPE  C31714818   0.919   4.662   8.347  0.2193 -0.2259  0.4423
  136SAPE  H17X14819   0.952   4.572   8.291  1.2979  0.3851  0.0597
  136SAPE  H17Y14820   0.984   4.748   8.317 -0.5085 -0.7538 -2.8082
  136SAPE  C31814821   0.773   4.693   8.305  0.3598  0.1640  0.4901
  136SAPE  H18X14822   0.732   4.779   8.362  0.0543 -1.0984  2.2233
  136SAPE  H18Y14823   0.718   4.600   8.331  1.1558 -0.8362 -1.2833
  136SAPE  H18Z14824   0.763   4.728   8.199  0.7746  3.0700  1.3601
  137SAPE     N14825   4.699   0.708  10.773  0.1094  0.3767  0.0457
  137SAPE   HN114826   4.640   0.623  10.762  1.7971 -0.6621 -1.2020
  137SAPE   HN214827   4.658   0.771  10.845 -0.4625 -0.9666  0.9227
  137SAPE   HN314828   4.699   0.757  10.682 -0.8711 -1.8996 -1.2146
  137SAPE   C1214829   4.836   0.668  10.802  0.0541  0.1834  1.1060
  137SAPE  H12A14830   4.841   0.562  10.768  2.0154 -0.0703  2.1327
  137SAPE  H12B14831   4.848   0.665  10.912  1.2902 -4.1188  0.9671
  137SAPE   C1114832   4.940   0.750  10.721  0.3569 -0.0525 -0.2957
  137SAPE  H11A14833   4.927   0.721  10.614  2.2523 -0.1024 -0.5175
  137SAPE  H11B14834   5.045   0.720  10.740  0.6113 -0.3694 -2.0977
  137SAPE     P14835   4.987   0.976  10.851  0.3254 -0.1734  0.1263
  137SAPE   O1314836   4.937   1.115  10.847 -0.3597  0.0987 -0.4334
  137SAPE   O1414837   4.974   0.911  10.985  0.4445  0.5259  0.0374
  137SAPE   O1214838   4.916   0.890  10.734 -0.0419 -0.4334  0.5207
  137SAPE   O1114839   5.135   0.976  10.809  0.7395 -0.0809  0.1197
  137SAPE    C114840   5.210   1.071  10.744  0.5655 -0.0702 -0.0958
  137SAPE    HA14841   5.159   1.170  10.741  1.4210  0.4040  0.8539
  137SAPE    HB14842   5.305   1.086  10.799  0.0631 -0.3965  0.8755
  137SAPE    C214843   5.244   1.024  10.596 -0.0237  0.0940  0.7124
  137SAPE    HS14844   5.302   1.099  10.539 -0.3477 -1.3407 -1.5750
  137SAPE   O2114845   5.123   1.001  10.520  0.3184 -0.2762 -0.3534
  137SAPE   C2114846   5.048   1.109  10.495 -0.5645  0.0249  0.5145
  137SAPE   O2214847   5.086   1.223  10.517 -0.3107  0.0635 -0.1332
  137SAPE   C2214848   4.921   1.067  10.421  0.5249  0.5578  0.1732
  137SAPE   H2R14849   4.850   1.027  10.497 -0.2911  0.8451 -0.4229
  137SAPE   H2S14850   4.884   1.167  10.389  0.2577  0.7621  1.1071
  137SAPE    C314851   5.333   0.899  10.588 -0.2072  0.1385 -0.1571
  137SAPE    HX14852   5.276   0.810  10.620  0.1471  1.0449  3.1413
  137SAPE    HY14853   5.418   0.921  10.656  1.6259 -0.0878 -2.2742
  137SAPE   O3114854   5.404   0.883  10.461  0.2122 -0.1431  0.6741
  137SAPE   C3114855   5.404   0.765  10.416  0.9009  0.3484 -0.6955
  137SAPE   O3214856   5.348   0.667  10.459 -0.2479 -0.4520 -0.1114
  137SAPE   C3214857   5.496   0.759  10.290  0.0587  0.4766 -0.7270
  137SAPE   H2X14858   5.494   0.656  10.249  1.9563 -0.5941  1.8113
  137SAPE   H2Y14859   5.596   0.790  10.325 -0.8077  1.5188  0.9081
  137SAPE   C2314860   4.947   0.963  10.310 -0.3121  0.7123 -0.4660
  137SAPE   H3R14861   4.854   0.959  10.249 -0.9837 -2.0946  0.6066
  137SAPE   H3S14862   4.968   0.866  10.361  0.5554  1.0764 -0.1387
  137SAPE   C2414863   5.061   1.000  10.206 -0.5462 -0.0290  0.4701
  137SAPE   H4R14864   5.080   0.914  10.138 -0.5659  0.8057 -0.6203
  137SAPE   H4S14865   5.153   1.008  10.267 -0.5776 -1.5408  0.7311
  137SAPE   C2514866   5.040   1.131  10.137 -0.8728 -0.5063  0.4743
  137SAPE   H5R14867   5.040   1.227  10.191 -0.4186  0.8384 -1.8555
  137SAPE   C2614868   5.024   1.146  10.001 -0.3495  0.1413 -0.5717
  137SAPE   H6R14869   5.011   1.245   9.955  1.6378  0.2898 -0.8667
  137SAPE   C2714870   5.032   1.029   9.901 -0.6488  0.2307  0.3137
  137SAPE   H7R14871   5.022   0.926   9.939 -2.3865 -0.2093 -1.2479
  137SAPE   H7S14872   5.130   1.039   9.849 -0.6194 -0.0870  0.3083
  137SAPE   C2814873   4.926   1.035   9.794 -0.1137 -1.1053 -0.2697
  137SAPE   H8R14874   4.842   0.964   9.798  0.3481 -1.5515  2.1022
  137SAPE   C2914875   4.932   1.106   9.676  0.1901 -0.5756  0.0923
  137SAPE   H9R14876   4.845   1.104   9.610  0.3977 -4.9619 -0.2370
  137SAPE  C21014877   5.044   1.196   9.630  0.1586  0.5358  0.0746
  137SAPE  H10R14878   5.109   1.238   9.710  1.1077 -0.6145 -0.0754
  137SAPE  H10S14879   5.008   1.290   9.582 -2.6641 -0.2481  0.5634
  137SAPE  C21114880   5.121   1.107   9.534 -0.2020  0.0239  0.2744
  137SAPE  H11R14881   5.125   1.000   9.558 -0.4519  0.4094  2.1445
  137SAPE  C21214882   5.193   1.152   9.427 -0.2607 -0.2696  0.0682
  137SAPE  H12R14883   5.244   1.077   9.366 -1.1589 -0.5975 -0.2908
  137SAPE  C21314884   5.198   1.288   9.366 -0.6167  0.6060 -0.2103
  137SAPE  H13R14885   5.188   1.358   9.452  1.2888 -2.2569  2.4344
  137SAPE  H13S14886   5.105   1.300   9.305  0.0388  0.2451 -1.3042
  137SAPE  C21414887   5.322   1.333   9.290 -0.3124  0.4009  0.0644
  137SAPE  H14R14888   5.404   1.383   9.343 -0.1492 -0.4303  0.6013
  137SAPE  C21514889   5.341   1.330   9.157 -0.0817  0.0478 -0.3358
  137SAPE  H15R14890   5.442   1.358   9.127 -0.0566  0.7207  0.3504
  137SAPE  C21614891   5.242   1.270   9.054 -1.2704  0.6553 -0.8359
  137SAPE  H16R14892   5.153   1.234   9.108  0.2427  1.9494  2.6628
  137SAPE  H16S14893   5.279   1.179   9.003  2.7954  1.5495  0.3303
  137SAPE  C21714894   5.208   1.366   8.943 -0.5177 -0.6613 -0.4040
  137SAPE  H17R14895   5.151   1.451   8.985 -0.5810 -1.7790  1.8042
  137SAPE  H17S14896   5.137   1.320   8.871 -0.0873  0.5483 -1.6202
  137SAPE  C21814897   5.334   1.412   8.865  0.4620 -0.4489  0.2248
  137SAPE  H18R14898   5.381   1.320   8.825 -0.4135 -0.5280 -0.6267
  137SAPE  H18S14899   5.409   1.464   8.929 -0.4503 -0.9537  1.7387
  137SAPE  C21914900   5.295   1.501   8.751  0.4118 -0.1726 -0.1387
  137SAPE  H19R14901   5.213   1.466   8.685  0.7784 -2.2565  0.4733
  137SAPE  H19S14902   5.386   1.503   8.687  0.3480 -0.6586 -0.2481
  137SAPE  C22014903   5.269   1.646   8.783  0.1567  0.5942 -0.1609
  137SAPE  H20R14904   5.170   1.640   8.834 -0.0006  1.5529 -0.3441
  137SAPE  H20S14905   5.254   1.709   8.692 -0.6560 -0.0236 -0.4653
  137SAPE  H20T14906   5.346   1.706   8.835  1.3431 -0.4514 -0.6749
  137SAPE   C3314907   5.459   0.852  10.172  0.0648  0.0594 -0.2232
  137SAPE   H3X14908   5.469   0.957  10.206 -1.2322 -0.0279  0.4551
  137SAPE   H3Y14909   5.349   0.845  10.160  0.0288  0.4127 -0.0930
  137SAPE   C3414910   5.539   0.814  10.053 -0.0149  0.6900 -0.2450
  137SAPE   H4X14911   5.529   0.708  10.021  0.1653  0.4807  0.3667
  137SAPE   H4Y14912   5.647   0.826  10.078  0.2507 -0.3711 -0.8417
  137SAPE   C3514913   5.497   0.893   9.930 -0.2089  0.1145 -0.6574
  137SAPE   H5X14914   5.498   0.999   9.961  2.0478  0.3698 -1.5181
  137SAPE   H5Y14915   5.393   0.860   9.905 -0.4998  1.0923 -0.7305
  137SAPE   C3614916   5.590   0.874   9.807 -0.7389  0.2896  0.4237
  137SAPE   H6X14917   5.597   0.769   9.772  0.3985  0.3406  0.5000
  137SAPE   H6Y14918   5.692   0.910   9.833  0.9657 -5.1908  2.0446
  137SAPE   C3714919   5.544   0.961   9.690  0.1712  0.7055  0.4663
  137SAPE   H7X14920   5.570   1.065   9.718 -1.8593  1.4226 -0.1589
  137SAPE   H7Y14921   5.434   0.949   9.676  0.1228  1.5397  0.0655
  137SAPE   C3814922   5.613   0.926   9.559 -0.1159  0.4109 -0.5203
  137SAPE   H8X14923   5.625   0.819   9.532  0.0460  0.4708 -0.6867
  137SAPE   H8Y14924   5.719   0.956   9.576  0.0631 -0.9276  0.8809
  137SAPE   C3914925   5.565   1.001   9.437 -0.0964 -0.1110 -0.7834
  137SAPE   H9X14926   5.552   1.107   9.467 -0.0573 -0.2414 -0.2981
  137SAPE   H9Y14927   5.463   0.963   9.412 -0.4307 -0.3417  0.8500
  137SAPE  C31014928   5.652   0.991   9.314  0.0669 -0.1066 -0.2480
  137SAPE  H10X14929   5.656   0.886   9.280 -0.6981 -0.7835  1.6836
  137SAPE  H10Y14930   5.749   1.026   9.356 -0.0083  3.2492 -2.6405
  137SAPE  C31114931   5.609   1.088   9.202  0.6329 -1.3035 -1.1335
  137SAPE  H11X14932   5.606   1.192   9.240  1.3852 -2.2016  1.4737
  137SAPE  H11Y14933   5.503   1.060   9.183  0.2641  0.0165 -1.1000
  137SAPE  C31214934   5.696   1.077   9.072 -0.0765 -0.0361  0.2476
  137SAPE  H12X14935   5.710   0.970   9.048 -0.4820  0.1630 -0.8699
  137SAPE  H12Y14936   5.797   1.117   9.100 -0.4044  0.4717  0.7230
  137SAPE  C31314937   5.631   1.150   8.951 -0.0129 -0.8791 -0.2052
  137SAPE  H13X14938   5.588   1.245   8.989  1.8211  0.0403 -0.3831
  137SAPE  H13Y14939   5.546   1.092   8.907  0.4626  0.3466 -2.8203
  137SAPE  C31414940   5.723   1.175   8.833  0.6303  0.8776  0.0890
  137SAPE  H14X14941   5.725   1.079   8.777  0.1479  0.1410  1.3062
  137SAPE  H14Y14942   5.824   1.212   8.860  1.8442 -0.6138 -2.2707
  137SAPE  C31514943   5.681   1.283   8.728 -0.1873  0.3637  0.9298
  137SAPE  H15X14944   5.578   1.261   8.693 -0.1641  1.3758  0.2240
  137SAPE  H15Y14945   5.759   1.270   8.650 -0.3278 -1.4077  1.0613
  137SAPE  C31614946   5.705   1.417   8.789 -0.2057  0.0393  0.1568
  137SAPE  H16X14947   5.800   1.418   8.846 -0.4257  0.6979  0.5241
  137SAPE  H16Y14948   5.625   1.425   8.865  0.8494 -0.6720  1.3576
  137SAPE  C31714949   5.691   1.543   8.701  0.5700 -0.0156  0.0822
  137SAPE  H17X14950   5.667   1.635   8.758 -0.6395 -0.2827  0.0226
  137SAPE  H17Y14951   5.603   1.521   8.636  0.7282  0.6833 -0.3668
  137SAPE  C31814952   5.815   1.570   8.614  0.8201 -0.8954  0.3585
  137SAPE  H18X14953   5.897   1.602   8.681  0.4810 -1.3292  0.9772
  137SAPE  H18Y14954   5.814   1.656   8.543  2.5252  1.1952  2.7696
  137SAPE  H18Z14955   5.849   1.475   8.568  0.5596 -1.1451  0.6839
  138SAPE     N14956   1.902   1.832  10.638 -0.1442  0.9273  0.1738
  138SAPE   HN114957   1.830   1.807  10.566 -0.6725 -2.0419  1.6295
  138SAPE   HN214958   1.944   1.924  10.615  2.3840  0.0127  1.0033
  138SAPE   HN314959   1.981   1.765  10.633 -0.1605  1.0611 -2.6259
  138SAPE   C1214960   1.851   1.841  10.783 -0.4919  0.5902 -0.2663
  138SAPE  H12A14961   1.814   1.738  10.801  0.5387  0.5139  1.5039
  138SAPE  H12B14962   1.765   1.909  10.767 -1.4741 -0.2854  1.1777
  138SAPE   C1114963   1.951   1.900  10.877  0.1266 -0.0529  0.2527
  138SAPE  H11A14964   1.892   1.881  10.969 -1.1613 -1.7315 -0.8755
  138SAPE  H11B14965   1.977   2.007  10.865 -0.0722  0.3108  2.8040
  138SAPE     P14966   2.196   1.850  10.808  0.0267 -0.2554 -0.0476
  138SAPE   O1314967   2.225   1.999  10.834 -0.6308  0.7741  0.6121
  138SAPE   O1414968   2.295   1.752  10.860  0.1167 -0.2305 -0.2495
  138SAPE   O1214969   2.062   1.815  10.875 -0.1462  0.1932 -0.1790
  138SAPE   O1114970   2.173   1.824  10.657 -0.1767 -0.8767  0.0304
  138SAPE    C114971   2.279   1.778  10.572 -0.2498  0.5901  0.1638
  138SAPE    HA14972   2.382   1.809  10.599 -0.4897  1.8158 -0.2760
  138SAPE    HB14973   2.284   1.667  10.570  0.3289  0.6194 -1.6576
  138SAPE    C214974   2.273   1.813  10.424 -0.4871 -0.2842 -0.5364
  138SAPE    HS14975   2.377   1.803  10.386  0.3529  1.6407  1.1373
  138SAPE   O2114976   2.225   1.946  10.401 -0.1750  0.2288 -0.0422
  138SAPE   C2114977   2.302   2.043  10.456 -0.3438 -0.2946  0.2535
  138SAPE   O2214978   2.410   2.023  10.517 -0.0816  0.4369  0.1209
  138SAPE   C2214979   2.245   2.183  10.436 -0.1460  0.2267 -0.4302
  138SAPE   H2R14980   2.142   2.181  10.478  0.5373  0.4041  1.2847
  138SAPE   H2S14981   2.303   2.259  10.492 -0.2642 -0.1978  0.2765
  138SAPE    C314982   2.174   1.716  10.342 -0.5412  0.1037  0.4448
  138SAPE    HX14983   2.080   1.734  10.399 -0.2453 -1.6425  1.5042
  138SAPE    HY14984   2.190   1.607  10.352 -0.4064 -0.1480 -2.0941
  138SAPE   O3114985   2.159   1.754  10.201 -0.3663 -0.0429 -0.8573
  138SAPE   C3114986   2.246   1.696  10.120 -0.7393  0.3373  0.3821
  138SAPE   O3214987   2.336   1.626  10.148 -0.8158  0.1109  0.0370
  138SAPE   C3214988   2.215   1.733   9.973 -0.4721 -0.3056  0.3866
  138SAPE   H2X14989   2.267   1.830   9.957 -0.9905 -0.1006 -0.0874
  138SAPE   H2Y14990   2.107   1.761   9.963  0.0759  0.9748 -2.5946
  138SAPE   C2314991   2.228   2.236  10.290  0.7197 -0.1756  0.2174
  138SAPE   H3R14992   2.223   2.347  10.300  0.9318 -0.1144 -0.3491
  138SAPE   H3S14993   2.145   2.193  10.230  1.8558  0.5258 -1.9221
  138SAPE   C2414994   2.366   2.228  10.208  0.1844  0.8372  0.2112
  138SAPE   H4R14995   2.452   2.238  10.277  1.1296 -0.5574 -0.7314
  138SAPE   H4S14996   2.368   2.316  10.141 -0.0061  1.0455  0.4797
  138SAPE   C2514997   2.368   2.106  10.121 -0.4972  0.0547 -0.6703
  138SAPE   H5R14998   2.330   2.014  10.168  4.2204  0.1417  3.6346
  138SAPE   C2614999   2.399   2.090   9.990 -0.4055 -0.5266  0.9949
  138SAPE   H6R15000   2.389   1.992   9.942 -2.8796  0.3060 -0.3251
  138SAPE   C2715001   2.454   2.202   9.898 -0.4527 -1.0138  0.0301
  138SAPE   H7R15002   2.449   2.303   9.943 -1.7527 -0.2507 -1.7742
  138SAPE   H7S15003   2.386   2.228   9.815 -0.2473  0.9823  0.4606
  138SAPE   C2815004   2.592   2.162   9.841  0.5149  0.0130  0.2148
  138SAPE   H8R15005   2.662   2.115   9.913  1.4602 -1.8754 -1.8573
  138SAPE   C2915006   2.628   2.171   9.711 -0.7275 -0.2768 -0.1537
  138SAPE   H9R15007   2.725   2.127   9.681 -0.8861  0.1450 -1.3249
  138SAPE  C21015008   2.562   2.233   9.592  0.1849  0.5569 -0.4783
  138SAPE  H10R15009   2.641   2.287   9.535 -0.9382  1.5014 -1.1732
  138SAPE  H10S15010   2.494   2.311   9.634 -1.1835 -0.7049 -0.3175
  138SAPE  C21115011   2.473   2.132   9.518  0.2528 -0.1475 -0.7166
  138SAPE  H11R15012   2.458   2.039   9.574 -4.4373  0.4494 -0.7875
  138SAPE  C21215013   2.419   2.142   9.400 -0.0693  0.2927 -0.5697
  138SAPE  H12R15014   2.367   2.054   9.359 -2.9632  2.1080 -0.9120
  138SAPE  C21315015   2.432   2.254   9.308  0.3363 -0.8325 -0.5671
  138SAPE  H13R15016   2.453   2.213   9.207  2.3760 -2.2371  0.3996
  138SAPE  H13S15017   2.515   2.322   9.336 -0.1862  0.3063 -1.7724
  138SAPE  C21415018   2.307   2.335   9.313 -1.0954 -0.6708  1.1927
  138SAPE  H14R15019   2.299   2.404   9.399 -1.4277 -0.8622  1.3180
  138SAPE  C21515020   2.206   2.350   9.224  1.2695 -0.0367 -0.4640
  138SAPE  H15R15021   2.117   2.406   9.256 -0.2834 -2.6898 -0.0215
  138SAPE  C21615022   2.194   2.272   9.092  0.5099 -0.4481 -0.8535
  138SAPE  H16R15023   2.195   2.162   9.100  0.4287 -0.3647  0.4506
  138SAPE  H16S15024   2.279   2.316   9.036  0.2201  0.5397 -0.5320
  138SAPE  C21715025   2.061   2.309   9.018 -0.9301  0.7942 -0.4972
  138SAPE  H17R15026   1.978   2.267   9.079  0.4501 -1.9011 -0.4304
  138SAPE  H17S15027   2.064   2.260   8.918 -0.3670  2.4625 -1.3247
  138SAPE  C21815028   2.031   2.456   8.991 -0.2404  0.1480 -0.9766
  138SAPE  H18R15029   2.111   2.490   8.922 -0.3256 -0.8788 -1.5927
  138SAPE  H18S15030   2.015   2.522   9.079 -1.3592  2.0194 -2.5453
  138SAPE  C21915031   1.913   2.467   8.900 -0.6669  0.1150 -0.2758
  138SAPE  H19R15032   1.821   2.445   8.959  0.3026 -0.4127  1.0575
  138SAPE  H19S15033   1.912   2.396   8.814 -0.7569 -0.9780  0.6224
  138SAPE  C22015034   1.900   2.608   8.831  0.0422 -0.4872  0.4576
  138SAPE  H20R15035   1.916   2.680   8.914 -1.7199 -0.4674  0.8026
  138SAPE  H20S15036   1.809   2.623   8.768 -0.2668  0.0788  1.0306
  138SAPE  H20T15037   1.987   2.617   8.763  0.0052 -0.3347  0.4306
  138SAPE   C3315038   2.241   1.628   9.869  0.2488 -0.5687 -0.1422
  138SAPE   H3X15039   2.201   1.530   9.903  3.0364 -0.8875  2.4384
  138SAPE   H3Y15040   2.350   1.611   9.855 -0.5097 -2.6450 -4.1564
  138SAPE   C3415041   2.186   1.667   9.726 -0.1258 -0.5080 -0.5042
  138SAPE   H4X15042   2.245   1.756   9.696 -1.2147  0.6573  0.7698
  138SAPE   H4Y15043   2.080   1.693   9.746  0.3502  1.0793  0.0387
  138SAPE   C3515044   2.199   1.541   9.636 -0.6475 -0.3634  0.0530
  138SAPE   H5X15045   2.167   1.444   9.678 -0.2767 -0.0561  1.0632
  138SAPE   H5Y15046   2.304   1.528   9.602 -0.3110  0.6178  0.7007
  138SAPE   C3615047   2.113   1.556   9.504 -0.7123 -0.0576  1.2858
  138SAPE   H6X15048   2.177   1.625   9.444 -0.1684 -1.3052  0.4039
  138SAPE   H6Y15049   2.014   1.600   9.525 -1.1898 -0.1076 -0.7655
  138SAPE   C3715050   2.093   1.426   9.416 -0.2219  0.1485 -0.2423
  138SAPE   H7X15051   2.024   1.450   9.332 -1.8616 -2.2687  0.3736
  138SAPE   H7Y15052   2.044   1.345   9.474  0.9145 -0.1936  0.2493
  138SAPE   C3815053   2.222   1.384   9.344 -0.6877  0.3872 -0.2239
  138SAPE   H8X15054   2.313   1.367   9.405 -0.8277 -0.9548 -0.3716
  138SAPE   H8Y15055   2.243   1.463   9.269 -0.2639  0.3179 -0.1763
  138SAPE   C3915056   2.198   1.265   9.259  0.0438  0.1359  0.3726
  138SAPE   H9X15057   2.096   1.263   9.216  0.1820 -2.1815  0.1021
  138SAPE   H9Y15058   2.206   1.175   9.324  0.7833  0.4277  0.6902
  138SAPE  C31015059   2.302   1.252   9.146 -0.0872 -0.1258  0.7643
  138SAPE  H10X15060   2.403   1.231   9.186 -0.0620 -2.3622 -0.4021
  138SAPE  H10Y15061   2.316   1.351   9.098  0.4071 -2.2702 -3.8116
  138SAPE  C31115062   2.252   1.149   9.042 -0.4296 -0.4152 -0.1507
  138SAPE  H11X15063   2.170   1.196   8.983  0.8688  0.3821 -1.3760
  138SAPE  H11Y15064   2.211   1.065   9.101 -2.3185 -0.0990 -0.9571
  138SAPE  C31215065   2.353   1.102   8.932 -0.4689 -0.7256  0.1905
  138SAPE  H12X15066   2.310   1.020   8.870  0.7854 -0.4001 -1.1468
  138SAPE  H12Y15067   2.446   1.059   8.974 -0.1225 -0.6473 -0.4800
  138SAPE  C31315068   2.391   1.220   8.844 -0.5322  1.0814  0.8946
  138SAPE  H13X15069   2.464   1.284   8.898  1.2298  0.6832 -0.9587
  138SAPE  H13Y15070   2.312   1.282   8.797  0.1265  1.3538  0.1410
  138SAPE  C31415071   2.482   1.185   8.718 -0.1202  0.6082  0.2746
  138SAPE  H14X15072   2.509   1.279   8.665 -0.4521 -0.1088 -1.1888
  138SAPE  H14Y15073   2.423   1.125   8.646 -1.7745  1.0377  1.2597
  138SAPE  C31515074   2.609   1.103   8.746  0.6819  0.2276  0.0995
  138SAPE  H15X15075   2.583   0.998   8.770 -0.0686  0.1526 -1.0193
  138SAPE  H15Y15076   2.674   1.132   8.831  1.6960  0.1078 -0.6192
  138SAPE  C31615077   2.706   1.099   8.624 -0.0201 -0.3352  0.0807
  138SAPE  H16X15078   2.774   1.013   8.644  0.2025 -0.5621 -1.5749
  138SAPE  H16Y15079   2.779   1.183   8.634 -0.7898  0.6774 -2.3248
  138SAPE  C31715080   2.644   1.089   8.483  0.3738  0.5426 -0.0707
  138SAPE  H17X15081   2.584   1.180   8.461  0.4008  0.2421 -1.4411
  138SAPE  H17Y15082   2.579   0.999   8.472  1.3448  0.0795 -2.4637
  138SAPE  C31815083   2.753   1.088   8.377 -0.1522  0.5234 -0.3718
  138SAPE  H18X15084   2.820   1.175   8.395  1.9075 -1.3257  1.1485
  138SAPE  H18Y15085   2.708   1.100   8.276  3.1238 -1.8186 -2.2043
  138SAPE  H18Z15086   2.824   1.003   8.372 -1.6078 -0.7262 -0.1901
  139SAPE     N15087   1.468   6.755  11.102  0.7340 -0.1612 -0.2320
  139SAPE   HN115088   1.366   6.763  11.083  0.5470 -1.8196  0.0467
  139SAPE   HN215089   1.486   6.767  11.204 -0.2198 -0.3383 -0.0384
  139SAPE   HN315090   1.523   6.824  11.047 -0.7043  1.9322  0.8523
  139SAPE   C1215091   1.509   6.615  11.076 -0.1777  0.0523  0.4537
  139SAPE  H12A15092   1.444   6.540  11.125  0.2940 -1.5307 -1.2534
  139SAPE  H12B15093   1.611   6.614  11.121 -0.6185 -0.8963  1.4581
  139SAPE   C1115094   1.520   6.585  10.925 -0.3738 -0.3083 -0.0339
  139SAPE  H11A15095   1.592   6.653  10.875  1.1262  0.2462  2.7385
  139SAPE  H11B15096   1.418   6.610  10.889 -0.5005 -1.9745 -0.8578
  139SAPE     P15097   1.701   6.401  10.846  0.3409 -0.1724 -0.2327
  139SAPE   O1315098   1.786   6.391  10.964  0.6534 -0.1083 -0.3064
  139SAPE   O1415099   1.680   6.277  10.766  0.4614 -0.5815 -0.0027
  139SAPE   O1215100   1.548   6.447  10.891 -0.1918 -0.2085 -0.3549
  139SAPE   O1115101   1.763   6.509  10.755  0.2063 -0.0703  0.0120
  139SAPE    C115102   1.709   6.527  10.618 -0.0948  0.3874  0.3329
  139SAPE    HA15103   1.683   6.431  10.569 -0.5612  0.0725  1.1963
  139SAPE    HB15104   1.635   6.609  10.603 -0.6044 -0.5728 -2.6348
  139SAPE    C215105   1.832   6.574  10.529 -0.2674  0.7076  0.1542
  139SAPE    HS15106   1.909   6.499  10.557 -0.9548 -0.2698 -0.5654
  139SAPE   O2115107   1.868   6.704  10.554  0.3523 -0.3156 -0.0759
  139SAPE   C2115108   1.991   6.741  10.533  0.3598  0.2440 -0.9107
  139SAPE   O2215109   2.086   6.670  10.512  0.7115  0.0369  0.2958
  139SAPE   C2215110   2.002   6.891  10.541 -0.4765  0.4459  0.4751
  139SAPE   H2R15111   1.958   6.937  10.632 -1.0357 -0.0791  0.4752
  139SAPE   H2S15112   2.109   6.918  10.537 -0.5740  1.0582  1.7066
  139SAPE    C315113   1.799   6.570  10.376 -0.4661 -0.4125 -0.4170
  139SAPE    HX15114   1.894   6.594  10.324 -1.8068  1.3944 -2.0840
  139SAPE    HY15115   1.719   6.646  10.367  0.0493  0.5884  2.8040
  139SAPE   O3115116   1.741   6.447  10.324  0.0509  0.7422  0.5303
  139SAPE   C3115117   1.807   6.393  10.217 -0.2974  0.2622  0.5874
  139SAPE   O3215118   1.905   6.433  10.156 -0.0790  0.0356  0.5986
  139SAPE   C3215119   1.731   6.259  10.178  0.4628  0.5367 -0.0015
  139SAPE   H2X15120   1.623   6.284  10.184  0.8687  2.1897  0.7495
  139SAPE   H2Y15121   1.766   6.192  10.259  0.2117  1.5664  0.9710
  139SAPE   C2315122   1.931   6.946  10.416  0.8189 -0.4273 -0.3628
  139SAPE   H3R15123   1.911   7.051  10.446 -1.6674 -1.5388  2.0836
  139SAPE   H3S15124   1.837   6.896  10.386 -0.7221  2.1405  0.0403
  139SAPE   C2415125   2.023   6.950  10.295  0.0909  0.4636  0.2590
  139SAPE   H4R15126   2.125   6.978  10.327  0.5441 -0.6541 -0.1942
  139SAPE   H4S15127   1.991   7.031  10.226 -1.4431 -0.6464 -0.3698
  139SAPE   C2515128   2.052   6.821  10.220  0.3462 -0.3762  0.3586
  139SAPE   H5R15129   2.138   6.758  10.248  0.2203 -1.3037 -1.3077
  139SAPE   C2615130   1.974   6.774  10.122 -0.2930 -0.4820  0.6117
  139SAPE   H6R15131   2.019   6.684  10.077  1.9557 -0.4077  2.6192
  139SAPE   C2715132   1.854   6.839  10.065 -0.3233  0.4410  0.5097
  139SAPE   H7R15133   1.895   6.904   9.985 -0.9634 -0.4775 -0.5723
  139SAPE   H7S15134   1.812   6.915  10.135  0.9665  1.0293  0.6646
  139SAPE   C2815135   1.768   6.726  10.015 -0.5526 -0.3924  0.0135
  139SAPE   H8R15136   1.718   6.680  10.102 -2.7921  0.0368 -1.0340
  139SAPE   C2915137   1.741   6.685   9.890 -0.0149 -0.1819  0.0132
  139SAPE   H9R15138   1.691   6.588   9.873  2.7203 -1.4895 -0.8389
  139SAPE  C21015139   1.799   6.743   9.766  0.4020  0.0730 -0.0154
  139SAPE  H10R15140   1.910   6.750   9.762  0.3836  2.4687  2.2517
  139SAPE  H10S15141   1.759   6.846   9.764  1.7725  0.6108 -3.0073
  139SAPE  C21115142   1.744   6.673   9.645 -0.1642  0.1804  0.4214
  139SAPE  H11R15143   1.657   6.605   9.648  0.3646 -0.5971 -1.2823
  139SAPE  C21215144   1.805   6.677   9.519  0.9416 -0.0578 -0.3915
  139SAPE  H12R15145   1.764   6.612   9.441 -0.6016 -2.3232  2.1854
  139SAPE  C21315146   1.927   6.757   9.480 -0.1322  0.0534 -0.0531
  139SAPE  H13R15147   1.966   6.712   9.386  3.5429  1.2996  0.8156
  139SAPE  H13S15148   2.012   6.732   9.546  1.4101 -0.9420 -2.3610
  139SAPE  C21415149   1.901   6.904   9.462 -0.2386 -0.3324 -0.5688
  139SAPE  H14R15150   1.937   6.970   9.542 -1.1971 -2.3819  1.6160
  139SAPE  C21515151   1.830   6.952   9.356 -0.7390  0.1988 -0.7429
  139SAPE  H15R15152   1.805   7.058   9.340 -0.4930  0.0464 -2.1513
  139SAPE  C21615153   1.776   6.863   9.243 -0.5712  0.1783  0.4090
  139SAPE  H16R15154   1.667   6.868   9.263 -1.1641  1.2467 -2.8495
  139SAPE  H16S15155   1.813   6.758   9.244  1.3382  0.8139 -0.5475
  139SAPE  C21715156   1.799   6.915   9.102  0.4670 -0.3974  0.5071
  139SAPE  H17R15157   1.907   6.915   9.077  0.4588 -0.6208  0.4714
  139SAPE  H17S15158   1.753   7.017   9.106 -2.8505 -1.8564  1.9087
  139SAPE  C21815159   1.721   6.832   9.002  0.1627 -0.3162  0.9125
  139SAPE  H18R15160   1.611   6.824   9.013 -0.1824 -0.0884 -1.9550
  139SAPE  H18S15161   1.767   6.734   9.027  1.0346 -0.1864 -0.1583
  139SAPE  C21915162   1.761   6.876   8.862 -0.0150 -0.3017 -0.1373
  139SAPE  H19R15163   1.735   6.790   8.796  0.9308  0.2943 -1.3191
  139SAPE  H19S15164   1.871   6.891   8.873 -0.1194 -0.9383  1.8360
  139SAPE  C22015165   1.690   7.003   8.827 -0.3175  0.5909 -0.0515
  139SAPE  H20R15166   1.703   7.080   8.907 -0.0609 -0.1401  0.6132
  139SAPE  H20S15167   1.582   6.996   8.805 -0.5738 -3.7404  2.2062
  139SAPE  H20T15168   1.721   7.047   8.729 -1.1288 -0.4439 -0.7732
  139SAPE   C3315169   1.767   6.201  10.039 -0.6021  0.1367  0.6510
  139SAPE   H3X15170   1.734   6.097  10.022  1.5421 -0.8051  2.0182
  139SAPE   H3Y15171   1.878   6.192  10.032 -0.8024 -1.6145 -0.7375
  139SAPE   C3415172   1.726   6.271   9.905 -0.2214 -0.3662 -0.5750
  139SAPE   H4X15173   1.707   6.380   9.922 -1.4494 -1.0012  2.5689
  139SAPE   H4Y15174   1.617   6.252   9.892 -0.7424  1.5166  0.7176
  139SAPE   C3515175   1.809   6.252   9.783  0.7765  0.2662  0.2969
  139SAPE   H5X15176   1.832   6.144   9.773 -1.4440 -0.0799 -1.2873
  139SAPE   H5Y15177   1.907   6.304   9.796  0.7498  0.0590  1.4198
  139SAPE   C3615178   1.749   6.291   9.641  0.4138 -1.2112  0.4992
  139SAPE   H6X15179   1.730   6.400   9.650  4.7280 -0.2733 -0.9350
  139SAPE   H6Y15180   1.651   6.244   9.617  0.6549 -2.2769  1.5268
  139SAPE   C3715181   1.847   6.274   9.531  0.1016 -0.0169  0.3902
  139SAPE   H7X15182   1.951   6.295   9.562  0.5635 -3.5673  1.4844
  139SAPE   H7Y15183   1.823   6.326   9.436  2.4811 -2.2905 -1.5098
  139SAPE   C3815184   1.845   6.125   9.479  0.7002 -0.8099 -0.2124
  139SAPE   H8X15185   1.741   6.108   9.443  1.3716 -0.4619 -2.3629
  139SAPE   H8Y15186   1.867   6.053   9.561 -0.1452  1.0111  1.6497
  139SAPE   C3915187   1.925   6.125   9.350  0.4700  0.7106 -0.6717
  139SAPE   H9X15188   2.027   6.154   9.384  0.1526  2.9186 -1.5037
  139SAPE   H9Y15189   1.898   6.199   9.272  2.1560  3.0475  0.8888
  139SAPE  C31015190   1.933   5.997   9.274 -0.7233 -0.3116 -0.2403
  139SAPE  H10X15191   1.944   5.912   9.344  0.7742  1.4243  1.6712
  139SAPE  H10Y15192   2.027   5.989   9.215  0.0477 -0.4901  1.0034
  139SAPE  C31115193   1.804   5.964   9.184  0.1824  0.3855  0.1999
  139SAPE  H11X15194   1.713   5.987   9.243 -1.1886  1.5479 -2.2739
  139SAPE  H11Y15195   1.803   5.859   9.149 -1.1196  1.0396 -1.8366
  139SAPE  C31215196   1.821   6.045   9.058 -0.5220  0.1184  0.1978
  139SAPE  H12X15197   1.929   6.056   9.036 -1.0078  1.9884 -1.3678
  139SAPE  H12Y15198   1.772   6.144   9.077 -0.5956  0.5187 -1.9775
  139SAPE  C31315199   1.761   5.977   8.937  0.1138 -0.0137 -0.2024
  139SAPE  H13X15200   1.652   5.962   8.955  0.6172 -1.2310  2.0745
  139SAPE  H13Y15201   1.811   5.879   8.923  1.6927  0.6570  0.6511
  139SAPE  C31415202   1.774   6.052   8.801  0.0471  0.0272  0.0588
  139SAPE  H14X15203   1.881   6.067   8.773  0.0113 -1.4900 -0.9817
  139SAPE  H14Y15204   1.730   6.153   8.811 -1.0285 -0.2520 -1.5739
  139SAPE  C31515205   1.717   5.990   8.673 -0.6060  0.2968  0.3864
  139SAPE  H15X15206   1.609   6.007   8.690 -0.5006 -0.0844  1.4733
  139SAPE  H15Y15207   1.730   5.879   8.670 -3.3199 -0.0653  1.1182
  139SAPE  C31615208   1.760   6.055   8.536  0.6423  0.3317 -0.2278
  139SAPE  H16X15209   1.721   6.159   8.537 -2.2358 -0.6605 -2.0383
  139SAPE  H16Y15210   1.871   6.058   8.532  0.8001 -2.6141  1.2184
  139SAPE  C31715211   1.717   5.987   8.405 -0.4407 -0.3717  0.4048
  139SAPE  H17X15212   1.607   5.993   8.393 -0.4685 -3.6078 -1.3832
  139SAPE  H17Y15213   1.753   5.882   8.409 -0.6963 -0.4328  1.1546
  139SAPE  C31815214   1.767   6.063   8.281  0.5297  0.6121 -0.3671
  139SAPE  H18X15215   1.728   6.167   8.289 -2.5473 -0.6862  3.6339
  139SAPE  H18Y15216   1.728   6.013   8.191 -0.5307  0.9799 -0.1222
  139SAPE  H18Z15217   1.878   6.066   8.277  0.6179 -1.4707  0.0124
  140SAPE     N15218   5.716   3.664  11.391  0.0425 -0.0163  0.5552
  140SAPE   HN115219   5.759   3.672  11.485  1.2605  3.3301 -0.2013
  140SAPE   HN215220   5.783   3.663  11.311 -1.6386  2.2242 -0.9401
  140SAPE   HN315221   5.664   3.754  11.391  1.2212  0.6784  1.0212
  140SAPE   C1215222   5.625   3.541  11.389 -0.1199 -0.2744 -0.2201
  140SAPE  H12A15223   5.553   3.553  11.472  0.6754 -1.8984  0.7449
  140SAPE  H12B15224   5.682   3.447  11.406  2.6094  1.0867 -1.4439
  140SAPE   C1115225   5.544   3.517  11.261 -0.0816  0.0914  0.0249
  140SAPE  H11A15226   5.463   3.593  11.254 -1.9047 -1.8043 -0.2309
  140SAPE  H11B15227   5.495   3.417  11.266 -1.0267  0.5560  0.1856
  140SAPE     P15228   5.634   3.632  11.040 -0.1005  0.0970  0.2394
  140SAPE   O1315229   5.640   3.765  11.096  0.1855 -0.3432 -0.1981
  140SAPE   O1415230   5.751   3.597  10.959  0.9039 -0.0335 -0.7998
  140SAPE   O1215231   5.636   3.522  11.150 -0.6935  0.0899 -0.2793
  140SAPE   O1115232   5.497   3.602  10.972  0.5683  0.3861 -0.2305
  140SAPE    C115233   5.458   3.479  10.915 -0.3901  0.3258 -0.7548
  140SAPE    HA15234   5.541   3.407  10.935 -1.2176 -0.2012  0.9029
  140SAPE    HB15235   5.358   3.450  10.955 -0.1854  2.5787  1.5432
  140SAPE    C215236   5.437   3.489  10.763  0.2011  0.8468 -0.0161
  140SAPE    HS15237   5.415   3.383  10.742 -1.3616  0.6252  2.5579
  140SAPE   O2115238   5.559   3.527  10.700  0.3689 -0.2081 -0.0780
  140SAPE   C2115239   5.575   3.464  10.587  0.2352  0.6419 -0.2300
  140SAPE   O2215240   5.504   3.384  10.531 -0.3336  0.1499 -0.1760
  140SAPE   C2215241   5.693   3.513  10.507 -0.1744 -0.4575  0.0280
  140SAPE   H2R15242   5.746   3.598  10.557  0.5881  0.0251 -1.5821
  140SAPE   H2S15243   5.773   3.436  10.501 -0.1314 -0.6135  2.1106
  140SAPE    C315244   5.319   3.579  10.726  0.0342  0.2720  0.8571
  140SAPE    HX15245   5.343   3.676  10.774  1.5374 -0.0272  0.7351
  140SAPE    HY15246   5.230   3.540  10.779  0.3741 -1.2272  0.3665
  140SAPE   O3115247   5.301   3.604  10.584 -0.4012 -0.0741  0.5044
  140SAPE   C3115248   5.224   3.524  10.523 -0.1819  0.2073 -0.6134
  140SAPE   O3215249   5.156   3.440  10.577 -0.2550 -0.3051  0.1505
  140SAPE   C3215250   5.240   3.537  10.372  0.3648 -0.1909 -0.2118
  140SAPE   H2X15251   5.351   3.542  10.359  0.8280 -0.8194  3.0406
  140SAPE   H2Y15252   5.193   3.633  10.339  0.3896 -0.3780 -0.7970
  140SAPE   C2315253   5.660   3.562  10.364  0.5437  0.3026 -0.5069
  140SAPE   H3R15254   5.576   3.635  10.361  0.3711  0.1681  0.7948
  140SAPE   H3S15255   5.626   3.466  10.322  1.5230  0.2491 -1.1832
  140SAPE   C2415256   5.781   3.615  10.285  0.7152 -0.3169  0.2330
  140SAPE   H4R15257   5.866   3.544  10.285  1.3837  0.4714  1.3958
  140SAPE   H4S15258   5.814   3.707  10.337 -2.1040  0.7162  0.2582
  140SAPE   C2515259   5.728   3.658  10.148 -0.2817 -0.1498 -0.5092
  140SAPE   H5R15260   5.621   3.680  10.143 -0.0895  1.5901  1.8392
  140SAPE   C2615261   5.794   3.663  10.036 -0.7627 -0.8568  0.0075
  140SAPE   H6R15262   5.749   3.696   9.941  0.3477 -0.3583 -0.3665
  140SAPE   C2715263   5.942   3.627  10.028  0.7027  0.4229 -0.3663
  140SAPE   H7R15264   5.959   3.582   9.928  0.3923  1.1656 -0.7625
  140SAPE   H7S15265   5.967   3.552  10.106  0.1348  2.2852  1.6699
  140SAPE   C2815266   6.037   3.740  10.038  0.1216 -0.0137  0.0981
  140SAPE   H8R15267   6.045   3.787  10.138 -0.0169  0.2127  0.0038
  140SAPE   C2915268   6.136   3.772   9.951 -0.5792 -0.1934  0.1787
  140SAPE   H9R15269   6.189   3.865   9.976  0.7360 -1.1160  0.9414
  140SAPE  C21015270   6.170   3.719   9.824  0.0689 -0.3172  0.7117
  140SAPE  H10R15271   6.089   3.656   9.783 -0.7862  0.5179  1.1148
  140SAPE  H10S15272   6.258   3.651   9.833  1.6441  1.3714 -1.3131
  140SAPE  C21115273   6.209   3.829   9.726 -0.4581 -0.4771 -0.0343
  140SAPE  H11R15274   6.279   3.899   9.775  1.5966 -1.2603 -1.7866
  140SAPE  C21215275   6.179   3.834   9.599  0.2241  0.4868 -0.4149
  140SAPE  H12R15276   6.219   3.918   9.540 -3.0531  0.8036 -2.2931
  140SAPE  C21315277   6.100   3.734   9.529  0.3297 -0.0832 -0.5620
  140SAPE  H13R15278   6.039   3.771   9.444  0.4572  1.2772 -0.0666
  140SAPE  H13S15279   6.033   3.681   9.601 -0.5398  0.9096 -0.6257
  140SAPE  C21415280   6.194   3.627   9.480 -0.1844  0.0165  0.7129
  140SAPE  H14R15281   6.263   3.579   9.551 -2.0428 -1.2838  1.7149
  140SAPE  C21515282   6.185   3.573   9.355 -0.2264 -0.0995 -0.0089
  140SAPE  H15R15283   6.251   3.486   9.338  1.6741  0.6774  2.9625
  140SAPE  C21615284   6.104   3.623   9.240 -0.1928 -0.0368 -0.7399
  140SAPE  H16R15285   6.100   3.733   9.247  0.4405  0.0513 -1.7031
  140SAPE  H16S15286   6.003   3.580   9.224  0.0261 -0.7005 -0.3849
  140SAPE  C21715287   6.184   3.600   9.114 -0.4285 -0.1227  0.3389
  140SAPE  H17R15288   6.289   3.633   9.128  0.6278 -1.9503 -2.7932
  140SAPE  H17S15289   6.134   3.652   9.029  1.0868  0.1025 -0.4378
  140SAPE  C21815290   6.171   3.454   9.056  0.4639 -0.8439 -0.6907
  140SAPE  H18R15291   6.069   3.410   9.066 -0.1014  0.5957 -0.0192
  140SAPE  H18S15292   6.226   3.390   9.128  0.0597 -1.7766 -1.2035
  140SAPE  C21915293   6.215   3.428   8.915 -0.4190 -0.2576 -0.2734
  140SAPE  H19R15294   6.318   3.467   8.897 -0.9041  0.8008 -0.7736
  140SAPE  H19S15295   6.158   3.493   8.846  2.3205 -0.3138 -2.7123
  140SAPE  C22015296   6.218   3.287   8.873 -0.3518  0.5851  0.5565
  140SAPE  H20R15297   6.118   3.240   8.884 -0.9704  1.5790 -0.5849
  140SAPE  H20S15298   6.289   3.225   8.930 -1.0179  0.4083  1.2049
  140SAPE  H20T15299   6.250   3.277   8.767  0.6306 -0.8382  0.9868
  140SAPE   C3315300   5.184   3.424  10.288 -0.0869 -0.5124 -0.4567
  140SAPE   H3X15301   5.081   3.407  10.325  0.8080  1.9119  3.4392
  140SAPE   H3Y15302   5.239   3.332  10.317 -2.0601 -2.1542 -1.7919
  140SAPE   C3415303   5.208   3.443  10.140  0.3769  0.0837  0.6859
  140SAPE   H4X15304   5.154   3.534  10.105  1.8353  1.4144  1.8079
  140SAPE   H4Y15305   5.175   3.350  10.088 -1.3107 -0.5326  2.8022
  140SAPE   C3515306   5.355   3.468  10.091  0.1264 -0.2106  0.3705
  140SAPE   H5X15307   5.410   3.371  10.089  0.2130 -0.1928  1.5171
  140SAPE   H5Y15308   5.406   3.543  10.155 -1.9911  1.6773 -0.1000
  140SAPE   C3615309   5.349   3.534   9.955  0.4505  0.6428 -0.2630
  140SAPE   H6X15310   5.456   3.531   9.926  0.3766 -1.1295 -0.3986
  140SAPE   H6Y15311   5.321   3.641   9.962  2.4185  1.3773 -3.0852
  140SAPE   C3715312   5.255   3.468   9.858  0.3443 -0.6182  0.7172
  140SAPE   H7X15313   5.147   3.478   9.884 -0.1439  1.6105 -1.9663
  140SAPE   H7Y15314   5.290   3.362   9.859  1.7232 -0.3103 -3.6699
  140SAPE   C3815315   5.272   3.528   9.713 -0.1425 -0.2691 -1.3823
  140SAPE   H8X15316   5.380   3.546   9.694 -0.5087  2.1509 -1.2912
  140SAPE   H8Y15317   5.227   3.628   9.700  4.1912  2.6350  3.6143
  140SAPE   C3915318   5.241   3.434   9.598 -0.8003 -0.1618 -0.3977
  140SAPE   H9X15319   5.130   3.433   9.592 -0.7329  1.2247 -2.3608
  140SAPE   H9Y15320   5.287   3.333   9.611 -2.2388 -0.5668  1.9622
  140SAPE  C31015321   5.282   3.486   9.465 -0.1551  0.0677  0.3401
  140SAPE  H10X15322   5.393   3.490   9.463 -0.1773  0.2992 -0.5952
  140SAPE  H10Y15323   5.247   3.591   9.454 -0.8279 -0.0130  1.5642
  140SAPE  C31115324   5.241   3.395   9.348  0.4990  0.0430 -0.3775
  140SAPE  H11X15325   5.130   3.402   9.340  0.5511  0.6015 -0.6823
  140SAPE  H11Y15326   5.262   3.290   9.376 -0.9367 -0.3074 -0.5530
  140SAPE  C31215327   5.310   3.446   9.219  0.3778  0.4680 -0.0311
  140SAPE  H12X15328   5.417   3.453   9.249  1.6937 -1.6775 -3.8758
  140SAPE  H12Y15329   5.273   3.546   9.187  0.6430 -0.5253 -3.6578
  140SAPE  C31315330   5.287   3.352   9.100  0.1764 -0.0147  0.2164
  140SAPE  H13X15331   5.189   3.368   9.050  0.3790  2.4854  0.5194
  140SAPE  H13Y15332   5.274   3.247   9.133  1.3036 -0.1803  0.1318
  140SAPE  C31415333   5.399   3.369   8.990  0.3310  0.1855 -0.3941
  140SAPE  H14X15334   5.496   3.382   9.043 -0.3658 -1.8920  1.4746
  140SAPE  H14Y15335   5.378   3.463   8.935  0.1677  0.1495 -0.3945
  140SAPE  C31515336   5.404   3.254   8.892  1.0580  0.7024 -0.3696
  140SAPE  H15X15337   5.421   3.151   8.929  1.1723  1.1506  0.8283
  140SAPE  H15Y15338   5.497   3.270   8.833  1.1237  1.8993  0.0484
  140SAPE  C31615339   5.280   3.241   8.817 -0.4604  0.5849  0.3908
  140SAPE  H16X15340   5.258   3.341   8.773  0.0520  0.8578  0.7514
  140SAPE  H16Y15341   5.195   3.207   8.881 -0.1267  0.2199  0.6388
  140SAPE  C31715342   5.286   3.135   8.700 -0.1834 -0.1457 -0.4163
  140SAPE  H17X15343   5.188   3.143   8.648 -0.3847  0.2194  0.0200
  140SAPE  H17Y15344   5.282   3.032   8.741  1.6739 -0.5778 -1.2865
  140SAPE  C31815345   5.412   3.148   8.610  0.4918  0.0031  0.1146
  140SAPE  H18X15346   5.438   3.250   8.577  1.1977 -0.5231 -0.9926
  140SAPE  H18Y15347   5.411   3.078   8.523 -1.1143 -0.6057  0.5906
  140SAPE  H18Z15348   5.498   3.117   8.672 -1.2469 -0.5739  2.3168
  141SAPE     N15349   5.118   3.827  11.049  0.5862 -0.0922 -0.4805
  141SAPE   HN115350   5.080   3.773  10.969  0.6614  1.6014 -1.6996
  141SAPE   HN215351   5.085   3.782  11.137 -0.1542  0.3754 -0.5106
  141SAPE   HN315352   5.088   3.926  11.037  1.5813  0.1659 -0.9004
  141SAPE   C1215353   5.267   3.826  11.064  0.0413  0.6657  0.1383
  141SAPE  H12A15354   5.311   3.727  11.039 -0.8860  0.3117 -0.1112
  141SAPE  H12B15355   5.292   3.846  11.171  0.4425 -1.3375  0.4457
  141SAPE   C1115356   5.329   3.931  10.968 -0.2897  0.2205 -0.2244
  141SAPE  H11A15357   5.284   3.925  10.867  2.7843  3.0958 -1.8605
  141SAPE  H11B15358   5.438   3.909  10.958 -0.1826 -0.4280  2.1057
  141SAPE     P15359   5.412   4.163  11.075 -0.0171  0.2993  0.5770
  141SAPE   O1315360   5.367   4.302  11.066  0.2488 -0.1912  0.2345
  141SAPE   O1415361   5.447   4.118  11.216 -0.7116 -0.1864  0.0862
  141SAPE   O1215362   5.304   4.063  11.014 -0.7872 -0.8556 -0.0312
  141SAPE   O1115363   5.531   4.137  10.981  0.4375  0.3415  0.6284
  141SAPE    C115364   5.522   4.168  10.840  0.1754 -0.9204 -0.0024
  141SAPE    HA15365   5.441   4.105  10.796  0.7305 -0.3278 -1.9177
  141SAPE    HB15366   5.494   4.272  10.813  0.3454 -0.7162  0.6025
  141SAPE    C215367   5.655   4.135  10.776 -0.8214  1.1859 -0.1794
  141SAPE    HS15368   5.681   4.030  10.805 -1.9502  1.3558  1.5193
  141SAPE   O2115369   5.750   4.228  10.835 -0.2118 -0.1942  0.3642
  141SAPE   C2115370   5.874   4.210  10.802 -0.1232  0.3075 -0.0519
  141SAPE   O2215371   5.924   4.113  10.749  0.2746  0.3445  0.0579
  141SAPE   C2215372   5.955   4.335  10.837  0.6055  0.4052 -0.6123
  141SAPE   H2R15373   5.912   4.377  10.930  0.5323 -1.4018  0.1836
  141SAPE   H2S15374   6.059   4.300  10.858  0.1457  0.2082  1.4631
  141SAPE    C315375   5.653   4.123  10.615  0.4863 -0.6399 -0.1581
  141SAPE    HX15376   5.753   4.096  10.574  1.0808  4.0049 -1.9990
  141SAPE    HY15377   5.639   4.223  10.569 -0.0109 -1.0507 -0.9028
  141SAPE   O3115378   5.554   4.021  10.572  0.3841  0.6344 -0.3144
  141SAPE   C3115379   5.443   4.057  10.512  0.1882  0.1717 -0.2526
  141SAPE   O3215380   5.405   4.169  10.512 -0.4744 -0.3315 -0.3434
  141SAPE   C3215381   5.359   3.939  10.478  0.2391 -0.0348  0.0400
  141SAPE   H2X15382   5.280   3.931  10.556 -1.1515 -1.7651 -1.4815
  141SAPE   H2Y15383   5.423   3.849  10.485  0.2303  0.0424  1.1183
  141SAPE   C2315384   5.968   4.440  10.724  0.0889  0.5354 -0.3319
  141SAPE   H3R15385   5.955   4.381  10.632 -0.0665 -0.0690  0.0752
  141SAPE   H3S15386   6.066   4.491  10.711  1.7126 -2.0221  1.5683
  141SAPE   C2415387   5.852   4.536  10.724 -0.0423 -0.1304  0.1576
  141SAPE   H4R15388   5.851   4.578  10.827 -1.8836 -4.5145  2.0740
  141SAPE   H4S15389   5.754   4.486  10.710 -1.3427  1.9144  1.6644
  141SAPE   C2515390   5.857   4.641  10.615  0.5516 -0.3253 -0.7851
  141SAPE   H5R15391   5.885   4.740  10.655 -0.9880  0.5586 -1.8258
  141SAPE   C2615392   5.805   4.624  10.496  0.2466 -1.5017  0.1692
  141SAPE   H6R15393   5.819   4.713  10.433  1.0747 -1.7321  0.0207
  141SAPE   C2715394   5.744   4.507  10.435 -0.1382  0.6074  0.0582
  141SAPE   H7R15395   5.787   4.413  10.475  2.0976  1.6742  0.2235
  141SAPE   H7S15396   5.791   4.497  10.335 -0.2845 -0.6258  0.1084
  141SAPE   C2815397   5.594   4.494  10.433 -0.0845 -0.2520 -0.5974
  141SAPE   H8R15398   5.545   4.436  10.512  0.5318 -0.2083 -0.1745
  141SAPE   C2915399   5.514   4.546  10.337 -0.0385  0.1877  0.1009
  141SAPE   H9R15400   5.408   4.516  10.344  0.3082 -0.8666  0.9303
  141SAPE  C21015401   5.565   4.620  10.219  0.0772  0.1381 -0.5135
  141SAPE  H10R15402   5.588   4.554  10.133 -2.0154  0.3679 -1.2759
  141SAPE  H10S15403   5.655   4.685  10.230  0.4330 -0.2602 -1.0809
  141SAPE  C21115404   5.448   4.705  10.179  0.7991  0.3823 -0.0636
  141SAPE  H11R15405   5.417   4.766  10.266  1.6665  0.8650 -0.0932
  141SAPE  C21215406   5.386   4.712  10.060  0.2300  0.4193 -0.2763
  141SAPE  H12R15407   5.300   4.781  10.058  1.7043  2.2933 -0.5457
  141SAPE  C21315408   5.412   4.645   9.930 -0.2578  0.3637  0.2440
  141SAPE  H13R15409   5.343   4.558   9.928  2.6124 -1.9643 -0.9294
  141SAPE  H13S15410   5.514   4.600   9.928 -0.3347  0.2077 -0.3950
  141SAPE  C21415411   5.394   4.749   9.823  0.0998 -0.4208 -0.9190
  141SAPE  H14R15412   5.474   4.821   9.800 -0.2109  0.3459  0.3966
  141SAPE  C21515413   5.286   4.759   9.745 -0.6939  0.2852  0.8783
  141SAPE  H15R15414   5.275   4.828   9.660  1.7869 -0.2891  0.0533
  141SAPE  C21615415   5.165   4.669   9.754 -0.1511 -0.5203  0.2547
  141SAPE  H16R15416   5.093   4.707   9.829  0.4040  0.9990  0.0463
  141SAPE  H16S15417   5.197   4.563   9.763 -2.7615 -1.6307 -2.5911
  141SAPE  C21715418   5.087   4.680   9.626  0.0891  0.3533  0.5680
  141SAPE  H17R15419   5.041   4.781   9.610  1.8225  0.8574 -1.5251
  141SAPE  H17S15420   4.999   4.613   9.639  0.1039  0.3131  0.4619
  141SAPE  C21815421   5.141   4.630   9.492 -0.5692 -0.7093 -0.9558
  141SAPE  H18R15422   5.210   4.547   9.516  2.0380  1.2483 -1.4593
  141SAPE  H18S15423   5.200   4.720   9.463 -1.8396  0.1972 -0.7726
  141SAPE  C21915424   5.051   4.595   9.371  0.4914 -0.2980 -0.4298
  141SAPE  H19R15425   5.111   4.589   9.277 -0.3676  0.7758 -1.0626
  141SAPE  H19S15426   4.981   4.681   9.366  1.0239  0.1793  0.2937
  141SAPE  C22015427   4.979   4.463   9.378  0.3519  0.5015 -0.2537
  141SAPE  H20R15428   4.910   4.459   9.291 -0.3700  0.3826  0.3157
  141SAPE  H20S15429   4.918   4.472   9.470  0.3172  1.1926 -0.3449
  141SAPE  H20T15430   5.037   4.369   9.388 -1.1899 -0.6147 -1.5690
  141SAPE   C3315431   5.301   3.936  10.339  0.3499  0.4677 -1.0108
  141SAPE   H3X15432   5.243   4.028  10.317 -0.6782 -0.3728 -1.8517
  141SAPE   H3Y15433   5.220   3.861  10.326  0.6317 -0.3527  1.6607
  141SAPE   C3415434   5.416   3.927  10.235  0.2498  0.1013  0.4585
  141SAPE   H4X15435   5.482   3.839  10.255 -0.2800 -0.6503 -1.0105
  141SAPE   H4Y15436   5.485   4.013  10.250  1.6705 -0.6340 -1.6056
  141SAPE   C3515437   5.358   3.896  10.094  0.0661  0.0878 -0.1115
  141SAPE   H5X15438   5.278   3.973  10.093  0.0828  0.1136  0.5294
  141SAPE   H5Y15439   5.303   3.800  10.099  0.2264  0.0342  0.6357
  141SAPE   C3615440   5.466   3.891   9.988  0.4893 -0.3387 -0.8886
  141SAPE   H6X15441   5.538   3.810  10.012  0.2671  0.0979  1.4129
  141SAPE   H6Y15442   5.525   3.984   9.977  0.6497 -0.4080 -0.6230
  141SAPE   C3715443   5.421   3.858   9.846 -0.1118 -0.4969  0.2349
  141SAPE   H7X15444   5.396   3.954   9.795 -1.8066 -1.1628 -0.2294
  141SAPE   H7Y15445   5.325   3.802   9.837 -0.4206 -0.0914  0.9605
  141SAPE   C3815446   5.533   3.808   9.754  0.3447  0.2324 -0.3879
  141SAPE   H8X15447   5.538   3.697   9.755 -0.7991  0.1853  1.3723
  141SAPE   H8Y15448   5.636   3.842   9.781  0.2607  0.3084 -0.1634
  141SAPE   C3915449   5.500   3.836   9.611 -0.4163  0.1822 -0.3388
  141SAPE   H9X15450   5.524   3.941   9.583  1.2874 -0.1263 -0.0988
  141SAPE   H9Y15451   5.392   3.814   9.596 -0.0603 -1.3531 -0.7486
  141SAPE  C31015452   5.570   3.747   9.516  0.2696  0.5464  0.5038
  141SAPE  H10X15453   5.556   3.638   9.533  1.7066  0.0172 -1.5068
  141SAPE  H10Y15454   5.677   3.774   9.523  0.2549  0.0922  2.8723
  141SAPE  C31115455   5.520   3.760   9.371 -0.6444  0.6886  0.7809
  141SAPE  H11X15456   5.487   3.862   9.341 -2.1566  0.0777  0.3175
  141SAPE  H11Y15457   5.424   3.704   9.376  0.4163 -1.3336 -0.6548
  141SAPE  C31215458   5.619   3.688   9.280 -0.7523 -0.0231 -0.2507
  141SAPE  H12X15459   5.640   3.589   9.327  2.5374  0.1474 -1.2416
  141SAPE  H12Y15460   5.719   3.729   9.305 -0.4539  0.0652 -1.5826
  141SAPE  C31315461   5.594   3.680   9.128 -0.0904 -0.7834 -0.5543
  141SAPE  H13X15462   5.573   3.782   9.089  2.5149  0.1096  0.3050
  141SAPE  H13Y15463   5.502   3.618   9.118 -1.0570  0.2668  1.4046
  141SAPE  C31415464   5.716   3.624   9.059  0.5016  0.4298 -0.5133
  141SAPE  H14X15465   5.751   3.537   9.118  0.1733  0.4404 -0.3039
  141SAPE  H14Y15466   5.798   3.699   9.065  1.7420 -0.9685  0.4961
  141SAPE  C31515467   5.700   3.596   8.909  0.6769 -0.4429  0.0981
  141SAPE  H15X15468   5.685   3.696   8.861  3.2641 -0.5516 -0.9780
  141SAPE  H15Y15469   5.609   3.533   8.901  1.2938 -1.2019 -1.0363
  141SAPE  C31615470   5.822   3.516   8.842 -0.1291 -0.2163  0.3035
  141SAPE  H16X15471   5.851   3.427   8.903 -0.6511  0.4425  1.5173
  141SAPE  H16Y15472   5.913   3.577   8.824  0.4563 -1.0364  0.4641
  141SAPE  C31715473   5.788   3.459   8.705  0.0350  0.0895  0.1648
  141SAPE  H17X15474   5.701   3.394   8.726  1.2013 -1.8917 -0.9428
  141SAPE  H17Y15475   5.872   3.391   8.679 -0.2999 -0.8096  1.3920
  141SAPE  C31815476   5.772   3.565   8.597 -0.7190  0.3704 -0.0617
  141SAPE  H18X15477   5.733   3.518   8.505  1.9771 -0.7967 -0.6419
  141SAPE  H18Y15478   5.857   3.632   8.575  0.8942 -2.0433 -1.3110
  141SAPE  H18Z15479   5.694   3.634   8.637  0.2770  1.4497  0.0494
  142SAPE     N15480   5.891   2.974  10.869  0.1144  0.0078 -0.2551
  142SAPE   HN115481   5.845   3.018  10.787  0.0204 -1.7181 -1.1540
  142SAPE   HN215482   5.957   2.900  10.837  3.6841  2.4472  1.0703
  142SAPE   HN315483   5.821   2.935  10.934 -3.0702 -1.0248 -4.1076
  142SAPE   C1215484   5.979   3.075  10.940 -0.5923 -0.2035 -0.1154
  142SAPE  H12A15485   5.918   3.163  10.969 -1.6033 -1.5896  2.0661
  142SAPE  H12B15486   6.051   3.118  10.868 -0.0230 -1.1166 -0.0880
  142SAPE   C1115487   6.056   3.019  11.058 -0.0584 -0.3780 -0.2905
  142SAPE  H11A15488   5.980   2.981  11.130 -1.2610  2.6037  0.0989
  142SAPE  H11B15489   6.111   3.093  11.119 -0.0473 -0.0004 -0.7578
  142SAPE     P15490   6.151   2.760  11.038  0.2784 -0.2403  0.0494
  142SAPE   O1315491   6.190   2.723  11.173  0.7230 -0.0688 -0.3134
  142SAPE   O1415492   6.020   2.713  10.992 -0.0078 -0.4098 -1.1070
  142SAPE   O1215493   6.153   2.922  11.026  0.0461  0.7253  0.3171
  142SAPE   O1115494   6.265   2.711  10.937 -0.3110  0.0988 -0.1609
  142SAPE    C115495   6.373   2.795  10.904 -0.4492  0.3100  0.4291
  142SAPE    HA15496   6.398   2.866  10.987 -2.5570  0.8185  0.6665
  142SAPE    HB15497   6.459   2.736  10.867 -1.1858 -0.3725 -0.1919
  142SAPE    C215498   6.337   2.881  10.776 -0.0049 -0.4120 -0.7051
  142SAPE    HS15499   6.266   2.961  10.808  2.1311  1.2311  0.0666
  142SAPE   O2115500   6.296   2.801  10.668 -0.0696 -0.1006 -0.7397
  142SAPE   C2115501   6.166   2.792  10.648 -0.0085 -0.2178  0.7286
  142SAPE   O2215502   6.080   2.862  10.696 -0.0342  0.0697  0.2275
  142SAPE   C2215503   6.127   2.668  10.563 -0.2142  0.4521  0.2150
  142SAPE   H2R15504   6.219   2.639  10.507  0.2677 -1.0431  1.7366
  142SAPE   H2S15505   6.103   2.590  10.639 -0.6566  0.0121 -0.3668
  142SAPE    C315506   6.478   2.936  10.726  0.0894 -0.1658  0.0409
  142SAPE    HX15507   6.538   2.845  10.706 -2.6587 -1.8454 -0.7890
  142SAPE    HY15508   6.518   3.010  10.798  4.4183  0.6915 -3.0814
  142SAPE   O3115509   6.473   2.998  10.597 -0.8305  0.3483 -0.1275
  142SAPE   C3115510   6.402   3.110  10.588  0.9547  0.0494 -0.3584
  142SAPE   O3215511   6.348   3.169  10.680 -0.2554 -0.1827  0.2196
  142SAPE   C3215512   6.398   3.141  10.440 -0.3120 -0.8384  0.6602
  142SAPE   H2X15513   6.504   3.157  10.409 -0.7117  1.3267  0.3633
  142SAPE   H2Y15514   6.329   3.227  10.427 -2.4972 -2.5963  0.1846
  142SAPE   C2315515   6.003   2.708  10.481 -0.1875 -0.0392  0.0944
  142SAPE   H3R15516   6.030   2.806  10.436 -1.3321 -0.1884 -0.9404
  142SAPE   H3S15517   5.915   2.716  10.548 -1.2754 -0.0126 -1.2982
  142SAPE   C2415518   5.970   2.609  10.361 -0.0104 -0.2793 -0.4383
  142SAPE   H4R15519   5.914   2.673  10.290 -1.0846  1.6575  2.0655
  142SAPE   H4S15520   5.906   2.531  10.408 -2.4713  1.3488 -0.9919
  142SAPE   C2515521   6.085   2.550  10.287 -0.2618  0.5835  0.4693
  142SAPE   H5R15522   6.159   2.485  10.335 -1.4266 -2.1424 -1.2901
  142SAPE   C2615523   6.091   2.547  10.152  0.4997  0.2671 -1.6020
  142SAPE   H6R15524   6.187   2.505  10.119  1.4458  0.0385  1.3115
  142SAPE   C2715525   5.987   2.592  10.051  0.4100  1.0696 -0.4487
  142SAPE   H7R15526   5.886   2.590  10.096 -0.0849  0.8064 -1.5709
  142SAPE   H7S15527   5.980   2.513   9.974 -2.0858 -1.1010  1.9257
  142SAPE   C2815528   6.030   2.727  10.010  0.5449 -0.0564  0.5905
  142SAPE   H8R15529   6.027   2.806  10.087  1.0931  1.2800 -0.7319
  142SAPE   C2915530   6.074   2.759   9.887  0.2577 -0.5902  0.6362
  142SAPE   H9R15531   6.112   2.862   9.873 -2.0239  0.0162 -1.3420
  142SAPE  C21015532   6.096   2.663   9.769  0.3302  0.0986  0.0319
  142SAPE  H10R15533   5.996   2.647   9.724 -0.3513  2.0805  0.7782
  142SAPE  H10S15534   6.135   2.566   9.807  1.1038 -0.2516 -1.6121
  142SAPE  C21115535   6.200   2.712   9.663  0.8151 -0.1901  0.1734
  142SAPE  H11R15536   6.293   2.761   9.697  1.2352 -2.0121  1.7211
  142SAPE  C21215537   6.177   2.728   9.531 -0.0076 -0.1360 -0.4661
  142SAPE  H12R15538   6.250   2.780   9.469  1.0358 -0.3315  0.5836
  142SAPE  C21315539   6.057   2.690   9.454  0.0225  0.3528  0.3673
  142SAPE  H13R15540   6.018   2.588   9.478 -1.9293  1.4243  1.9466
  142SAPE  H13S15541   6.077   2.682   9.345 -1.3730 -2.1197  0.2380
  142SAPE  C21415542   5.943   2.796   9.470 -0.1281  0.6439 -0.2279
  142SAPE  H14R15543   5.934   2.844   9.569  1.4891 -0.5506  0.5150
  142SAPE  C21515544   5.854   2.841   9.377  0.3509 -0.5318  0.0860
  142SAPE  H15R15545   5.783   2.919   9.408  0.3672  0.1480 -1.5543
  142SAPE  C21615546   5.836   2.794   9.236  0.4483 -0.4635  0.1805
  142SAPE  H16R15547   5.936   2.795   9.188  0.4622 -0.9372  0.1921
  142SAPE  H16S15548   5.772   2.868   9.183 -0.2796  0.2629  2.0246
  142SAPE  C21715549   5.779   2.646   9.227  0.6317 -0.4409  0.3629
  142SAPE  H17R15550   5.676   2.636   9.268  0.2677 -2.5223 -1.0248
  142SAPE  H17S15551   5.831   2.578   9.298  0.6916 -0.8486 -0.0761
  142SAPE  C21815552   5.783   2.591   9.088  0.3569  0.2370  0.4481
  142SAPE  H18R15553   5.757   2.671   9.015 -0.3632 -2.7242 -2.7065
  142SAPE  H18S15554   5.699   2.518   9.078 -0.8273  1.6817 -0.2370
  142SAPE  C21915555   5.910   2.519   9.055 -0.4321  0.5042  0.6203
  142SAPE  H19R15556   5.925   2.426   9.113 -0.7656 -1.0866 -1.7937
  142SAPE  H19S15557   5.996   2.589   9.061 -0.7468  1.0580 -1.0813
  142SAPE  C22015558   5.919   2.469   8.908  0.2460 -0.2881 -0.5600
  142SAPE  H20R15559   5.920   2.555   8.838 -0.1378  0.5123  0.4087
  142SAPE  H20S15560   5.836   2.400   8.879 -0.4834  0.1627  0.4269
  142SAPE  H20T15561   6.014   2.415   8.889 -0.2799 -0.9004 -1.4988
  142SAPE   C3315562   6.342   3.030  10.351 -0.3911  0.0527  0.3834
  142SAPE   H3X15563   6.233   3.016  10.369 -0.4972 -0.7958 -0.8349
  142SAPE   H3Y15564   6.383   2.928  10.366  1.8003  1.0510  1.3107
  142SAPE   C3415565   6.365   3.067  10.207 -0.3088  0.1857  0.4055
  142SAPE   H4X15566   6.475   3.080  10.197  0.1853 -1.6441  2.8316
  142SAPE   H4Y15567   6.315   3.164  10.184 -2.2241 -0.6565  0.9307
  142SAPE   C3515568   6.311   2.964  10.111 -0.8048 -0.8681 -0.0395
  142SAPE   H5X15569   6.202   2.951  10.131 -0.5957 -0.9363  1.0867
  142SAPE   H5Y15570   6.342   2.860  10.136 -0.1776  0.3614  4.9233
  142SAPE   C3615571   6.347   2.985   9.966 -0.1144 -0.2748  0.4059
  142SAPE   H6X15572   6.314   2.889   9.921 -0.3325 -1.3034  2.6863
  142SAPE   H6Y15573   6.456   3.002   9.952 -0.3122  1.1561  0.5151
  142SAPE   C3715574   6.273   3.106   9.892  0.2756  0.5054  0.1582
  142SAPE   H7X15575   6.299   3.205   9.934  1.7959  0.7514 -1.3404
  142SAPE   H7Y15576   6.164   3.081   9.892  0.3106  0.3561 -0.6550
  142SAPE   C3815577   6.310   3.109   9.742  0.5721 -0.6893  0.2818
  142SAPE   H8X15578   6.261   3.021   9.695 -0.4921 -0.3987  0.8170
  142SAPE   H8Y15579   6.419   3.094   9.726  0.9898  0.8931  1.5356
  142SAPE   C3915580   6.271   3.235   9.663  0.2971 -0.0874 -0.0146
  142SAPE   H9X15581   6.348   3.309   9.695  0.7598  0.2792 -1.9147
  142SAPE   H9Y15582   6.170   3.274   9.690  0.1258  0.7178 -1.7600
  142SAPE  C31015583   6.278   3.204   9.513  0.0716 -0.0090 -0.2561
  142SAPE  H10X15584   6.271   3.292   9.446  2.3669 -0.3411 -0.9551
  142SAPE  H10Y15585   6.198   3.130   9.490  2.1344 -2.5910  0.4843
  142SAPE  C31115586   6.411   3.141   9.464 -0.3858 -0.2032 -0.2754
  142SAPE  H11X15587   6.433   3.048   9.521  0.3599  0.2666  0.2207
  142SAPE  H11Y15588   6.491   3.216   9.482  0.0047 -0.9499  1.1666
  142SAPE  C31215589   6.406   3.116   9.310  0.3585  0.0172 -0.5915
  142SAPE  H12X15590   6.507   3.102   9.267  1.1459  1.2662  0.8139
  142SAPE  H12Y15591   6.359   3.200   9.256 -0.8450  0.2962  0.8646
  142SAPE  C31315592   6.335   2.983   9.277  0.1372  0.0488  0.6013
  142SAPE  H13X15593   6.228   2.976   9.307 -0.4103  0.3525 -1.2146
  142SAPE  H13Y15594   6.397   2.898   9.312  1.0763  0.9109  1.0415
  142SAPE  C31415595   6.308   2.966   9.120 -0.1952 -0.1476  0.3590
  142SAPE  H14X15596   6.410   2.971   9.077 -1.0150 -2.0477 -1.9569
  142SAPE  H14Y15597   6.248   3.046   9.073 -0.5225 -0.5486  0.0955
  142SAPE  C31515598   6.252   2.817   9.094  0.0164 -0.4614  0.2017
  142SAPE  H15X15599   6.148   2.791   9.125 -1.2826  1.2858 -2.4578
  142SAPE  H15Y15600   6.326   2.745   9.135 -0.8966 -0.7375  1.3985
  142SAPE  C31615601   6.247   2.795   8.944  0.4063 -0.6919 -0.0685
  142SAPE  H16X15602   6.188   2.879   8.903  1.3126  1.2209  2.4019
  142SAPE  H16Y15603   6.197   2.697   8.925 -1.5826  0.5319 -1.3008
  142SAPE  C31715604   6.379   2.798   8.870 -0.0783 -0.2808  0.4007
  142SAPE  H17X15605   6.429   2.717   8.928 -2.3856 -2.2488 -0.2695
  142SAPE  H17Y15606   6.435   2.894   8.869 -0.0187 -0.2765  2.9215
  142SAPE  C31815607   6.373   2.757   8.717 -0.5622  0.4956  0.2346
  142SAPE  H18X15608   6.317   2.665   8.691  0.4708  0.1965 -0.9994
  142SAPE  H18Y15609   6.476   2.754   8.676 -0.9825 -0.3234 -0.7668
  142SAPE  H18Z15610   6.340   2.849   8.665  1.3531  0.4789 -1.0534
  143SAPE     N15611   0.305   4.406  11.394  0.1556  0.4884 -0.4290
  143SAPE   HN115612   0.228   4.385  11.327  1.7327  0.5583 -2.2624
  143SAPE   HN215613   0.282   4.402  11.496  2.9747  1.9299  0.3090
  143SAPE   HN315614   0.334   4.499  11.359 -0.7352  0.3667 -1.5049
  143SAPE   C1215615   0.421   4.319  11.362  0.0949  0.0683 -0.0187
  143SAPE  H12A15616   0.482   4.323  11.454 -0.4731  2.2246  0.2768
  143SAPE  H12B15617   0.476   4.364  11.277  0.6981 -1.4249 -0.4385
  143SAPE   C1115618   0.387   4.173  11.335  0.3881  0.0140 -0.1379
  143SAPE  H11A15619   0.322   4.164  11.246 -1.5476  0.2546  1.2107
  143SAPE  H11B15620   0.335   4.128  11.423  3.6483 -0.8819  1.3923
  143SAPE     P15621   0.548   4.006  11.208 -0.2848  0.4216 -0.3962
  143SAPE   O1315622   0.695   3.974  11.227  0.8759  0.2583 -0.2803
  143SAPE   O1415623   0.445   3.897  11.207 -0.0631 -0.6710 -0.1539
  143SAPE   O1215624   0.511   4.102  11.323 -0.1248  0.7223 -0.0917
  143SAPE   O1115625   0.538   4.095  11.074 -0.5424 -0.1417 -0.3998
  143SAPE    C115626   0.632   4.195  11.051  0.1222  0.5782 -0.1483
  143SAPE    HA15627   0.573   4.284  11.019 -1.9771 -0.9139 -0.5097
  143SAPE    HB15628   0.687   4.221  11.145 -0.2473 -1.1494  0.5510
  143SAPE    C215629   0.736   4.175  10.934  0.4911  0.2427  0.2553
  143SAPE    HS15630   0.804   4.262  10.942  3.1600 -1.8643  1.4945
  143SAPE   O2115631   0.668   4.158  10.803  0.3183 -0.1684  0.5967
  143SAPE   C2115632   0.621   4.272  10.751 -0.9683 -0.6115 -0.3996
  143SAPE   O2215633   0.650   4.379  10.791 -0.7284 -0.2155  0.5266
  143SAPE   C2215634   0.545   4.243  10.618  0.2357  0.6015 -0.5421
  143SAPE   H2R15635   0.490   4.147  10.631 -1.2496  1.7229  1.7393
  143SAPE   H2S15636   0.479   4.331  10.603 -0.9039  0.1050  1.4405
  143SAPE    C315637   0.838   4.050  10.960  0.2534  0.0531  0.1897
  143SAPE    HX15638   0.775   3.959  10.954  0.7404 -0.2423 -0.4302
  143SAPE    HY15639   0.880   4.071  11.061 -0.3707 -0.2023  0.5033
  143SAPE   O3115640   0.938   4.067  10.862  0.2423 -0.4321 -0.0080
  143SAPE   C3115641   0.989   3.945  10.830  0.2441 -0.4975 -0.1062
  143SAPE   O3215642   0.969   3.845  10.897  0.0619 -0.0431  0.2041
  143SAPE   C3215643   1.098   3.961  10.724 -0.5328 -0.4190  0.0537
  143SAPE   H2X15644   1.197   3.969  10.774 -1.1135  0.3979  1.1134
  143SAPE   H2Y15645   1.081   4.047  10.656  1.8789  0.6545  0.7432
  143SAPE   C2315646   0.648   4.242  10.500  0.6291  0.2300 -0.3942
  143SAPE   H3R15647   0.712   4.332  10.504 -0.0273  0.6676  0.4059
  143SAPE   H3S15648   0.587   4.237  10.407 -3.4926  1.6667  2.1027
  143SAPE   C2415649   0.745   4.121  10.510 -1.0555  0.3062  0.6520
  143SAPE   H4R15650   0.806   4.126  10.603  0.5637 -0.7561 -0.3174
  143SAPE   H4S15651   0.809   4.121  10.419 -0.4992  0.0859  1.0393
  143SAPE   C2515652   0.673   3.988  10.511  0.3826 -0.2447  0.7507
  143SAPE   H5R15653   0.665   3.934  10.606  0.0007 -1.4034  0.0671
  143SAPE   C2615654   0.620   3.927  10.399 -0.8573 -0.0054  0.4657
  143SAPE   H6R15655   0.573   3.827  10.409  0.0825 -0.3903  1.0327
  143SAPE   C2715656   0.631   3.983  10.260 -0.1937 -0.3113 -0.7273
  143SAPE   H7R15657   0.663   4.089  10.258 -2.6570  0.4833  0.2654
  143SAPE   H7S15658   0.523   3.991  10.235 -0.5082  0.1507  0.7724
  143SAPE   C2815659   0.704   3.909  10.154 -0.3351 -0.5353 -0.0466
  143SAPE   H8R15660   0.766   3.827  10.192 -1.5646 -1.4137  0.0654
  143SAPE   C2915661   0.701   3.934  10.025  0.4872 -0.0258  0.0691
  143SAPE   H9R15662   0.767   3.878   9.957 -1.2980 -1.5713 -0.4635
  143SAPE  C21015663   0.622   4.041   9.956 -0.1115  0.6794  0.1432
  143SAPE  H10R15664   0.689   4.122   9.918  1.5410  0.3311  2.2619
  143SAPE  H10S15665   0.558   4.088  10.034  0.1138 -0.1642  0.8481
  143SAPE  C21115666   0.529   3.979   9.853  0.1414 -0.0695 -0.4836
  143SAPE  H11R15667   0.433   3.949   9.897  0.9036 -1.3398  0.3340
  143SAPE  C21215668   0.555   3.957   9.721  0.7580 -0.2636  0.1662
  143SAPE  H12R15669   0.474   3.903   9.670  1.2167 -1.3732  0.5940
  143SAPE  C21315670   0.684   3.987   9.647  0.9886 -0.3601 -0.2243
  143SAPE  H13R15671   0.689   3.918   9.559 -0.2531  1.8140 -2.0522
  143SAPE  H13S15672   0.774   3.961   9.707 -0.4418 -0.6593  1.8068
  143SAPE  C21415673   0.675   4.130   9.618 -1.0213  0.2137  0.4970
  143SAPE  H14R15674   0.666   4.202   9.701  0.8975 -0.3610  1.2213
  143SAPE  C21515675   0.684   4.178   9.492  0.2765  0.9983  0.7506
  143SAPE  H15R15676   0.668   4.284   9.469 -0.2746  1.0177  1.2065
  143SAPE  C21615677   0.715   4.097   9.371 -0.1316 -0.1671 -0.0047
  143SAPE  H16R15678   0.651   4.006   9.370 -1.7842  0.9490 -1.0728
  143SAPE  H16S15679   0.822   4.068   9.365  0.5126  2.5154 -2.4147
  143SAPE  C21715680   0.676   4.171   9.242 -0.0441 -0.2622 -0.4076
  143SAPE  H17R15681   0.739   4.257   9.212  0.8178 -1.5017 -2.2889
  143SAPE  H17S15682   0.576   4.215   9.261  0.1882  1.1521 -2.3300
  143SAPE  C21815683   0.667   4.071   9.125  0.5725 -0.3647  0.1323
  143SAPE  H18R15684   0.598   3.988   9.150 -0.4227  0.2547 -0.5337
  143SAPE  H18S15685   0.770   4.036   9.100  0.9215  1.3619 -0.9492
  143SAPE  C21915686   0.622   4.151   9.010  0.3426 -0.8858  0.6488
  143SAPE  H19R15687   0.704   4.213   8.968  0.1499 -1.1291 -0.0967
  143SAPE  H19S15688   0.536   4.219   9.024  1.2465  0.8574 -2.0107
  143SAPE  C22015689   0.582   4.062   8.893 -0.3098  0.1072  0.1870
  143SAPE  H20R15690   0.597   4.116   8.797 -1.8049  0.4024  0.1141
  143SAPE  H20S15691   0.478   4.023   8.890 -1.0080  1.4780  3.6039
  143SAPE  H20T15692   0.663   3.986   8.890  1.4072  1.8510  0.7086
  143SAPE   C3315693   1.119   3.824  10.644 -0.3836  0.8880 -0.0191
  143SAPE   H3X15694   1.123   3.737  10.713 -1.2592  2.0934  1.5515
  143SAPE   H3Y15695   1.218   3.824  10.593 -0.2894 -1.9779  0.0924
  143SAPE   C3415696   1.016   3.796  10.537  0.2228  0.2531  0.3062
  143SAPE   H4X15697   1.049   3.867  10.458 -1.6981  0.0569 -0.6872
  143SAPE   H4Y15698   0.915   3.818  10.576 -0.5645 -3.9931  0.8920
  143SAPE   C3515699   1.006   3.655  10.488 -0.2789 -0.5538 -0.6387
  143SAPE   H5X15700   0.965   3.592  10.571  2.8509  0.0586  1.4549
  143SAPE   H5Y15701   1.103   3.610  10.456  0.0875 -0.0625 -0.2292
  143SAPE   C3615702   0.917   3.647  10.362 -0.0539 -0.0122  0.6855
  143SAPE   H6X15703   0.964   3.701  10.277 -1.5275  1.7843  1.0006
  143SAPE   H6Y15704   0.815   3.682  10.388  0.2477  2.5283 -1.4277
  143SAPE   C3715705   0.903   3.495  10.334  0.1458 -0.4649 -0.4018
  143SAPE   H7X15706   0.863   3.442  10.423  1.4221 -0.3892  0.2188
  143SAPE   H7Y15707   1.004   3.453  10.318 -0.1201 -1.4345  0.4571
  143SAPE   C3815708   0.824   3.462  10.199  0.0865 -0.3592  0.2105
  143SAPE   H8X15709   0.715   3.477  10.216  0.2701  1.1314  0.1625
  143SAPE   H8Y15710   0.842   3.358  10.165 -1.7269 -0.3888 -0.6811
  143SAPE   C3915711   0.878   3.549  10.084  0.0334  0.5702 -0.4080
  143SAPE   H9X15712   0.986   3.528  10.090 -0.1349  0.2108  1.7368
  143SAPE   H9Y15713   0.859   3.656  10.107 -0.7553  0.0764  1.3131
  143SAPE  C31015714   0.819   3.504   9.949 -0.7268  0.3250 -0.0748
  143SAPE  H10X15715   0.715   3.545   9.949  0.1820  2.6730  1.0667
  143SAPE  H10Y15716   0.815   3.395   9.928 -2.0442  0.1959  0.7610
  143SAPE  C31115717   0.908   3.568   9.848 -0.6365  0.0155 -0.6843
  143SAPE  H11X15718   1.007   3.521   9.869 -0.7538  0.3950  0.8066
  143SAPE  H11Y15719   0.914   3.677   9.865 -0.4391  0.0979 -1.2844
  143SAPE  C31215720   0.870   3.526   9.705 -0.0930  0.6167 -0.0729
  143SAPE  H12X15721   0.858   3.416   9.697 -1.6867  0.8372 -0.9200
  143SAPE  H12Y15722   0.956   3.569   9.649 -1.4101  1.7544 -1.2466
  143SAPE  C31315723   0.741   3.596   9.651 -0.1682 -0.1971 -0.8977
  143SAPE  H13X15724   0.759   3.705   9.641 -1.4534 -0.1390 -2.7886
  143SAPE  H13Y15725   0.666   3.585   9.733  1.0451  0.3982  0.2946
  143SAPE  C31415726   0.688   3.545   9.522  0.2918  0.6468  0.6345
  143SAPE  H14X15727   0.592   3.597   9.499 -0.3328  0.0774  1.9270
  143SAPE  H14Y15728   0.654   3.445   9.555 -0.6576  1.2070  1.3876
  143SAPE  C31515729   0.790   3.547   9.404 -0.7823 -0.9285  0.1729
  143SAPE  H15X15730   0.854   3.457   9.392  0.8052  0.1666  0.2942
  143SAPE  H15Y15731   0.857   3.633   9.424 -1.2776 -0.4937 -0.0256
  143SAPE  C31615732   0.717   3.564   9.274 -0.2817 -0.3108  0.1501
  143SAPE  H16X15733   0.647   3.651   9.275  1.7679  1.3627  0.8621
  143SAPE  H16Y15734   0.674   3.464   9.251 -0.5970 -0.1863  0.1951
  143SAPE  C31715735   0.817   3.592   9.159 -0.4175  0.3924  0.3987
  143SAPE  H17X15736   0.765   3.552   9.069  2.2796  0.1410 -1.1091
  143SAPE  H17Y15737   0.913   3.540   9.178  0.1637  1.0519 -0.6595
  143SAPE  C31815738   0.860   3.737   9.145 -0.2137  0.1970 -0.6456
  143SAPE  H18X15739   0.948   3.754   9.080  2.4903 -2.8450  2.0497
  143SAPE  H18Y15740   0.881   3.780   9.246  0.4805 -0.0940 -0.6658
  143SAPE  H18Z15741   0.777   3.803   9.110  0.4575  1.4245  0.0254
  144SAPE     N15742   3.376   1.842  10.804  0.2272  0.0993  0.4470
  144SAPE   HN115743   3.401   1.881  10.897  1.8964 -0.9038  0.4466
  144SAPE   HN215744   3.274   1.824  10.793  0.3449 -0.6815  0.6175
  144SAPE   HN315745   3.433   1.756  10.795 -0.9465 -0.5469 -1.0584
  144SAPE   C1215746   3.424   1.928  10.699 -0.9028 -0.3559 -0.3330
  144SAPE  H12A15747   3.340   1.998  10.677 -1.0905 -0.1447  0.9631
  144SAPE  H12B15748   3.461   1.867  10.615  0.0658  0.0836 -0.2261
  144SAPE   C1115749   3.539   2.017  10.759  0.9790 -0.2517  1.0466
  144SAPE  H11A15750   3.578   2.091  10.687 -2.1111  0.4164  0.0317
  144SAPE  H11B15751   3.629   1.952  10.772  1.9128  0.6083 -0.8659
  144SAPE     P15752   3.404   2.201  10.907 -0.0530  0.4548 -0.1197
  144SAPE   O1315753   3.265   2.149  10.901  0.7590  0.0944 -0.3368
  144SAPE   O1415754   3.439   2.258  11.040 -0.6286 -0.0617 -0.0241
  144SAPE   O1215755   3.506   2.081  10.881 -0.2530 -0.3861  0.4664
  144SAPE   O1115756   3.442   2.309  10.793  0.6031  0.6260  0.2715
  144SAPE    C115757   3.331   2.383  10.734 -0.5590  0.4722 -0.2169
  144SAPE    HA15758   3.250   2.407  10.807 -0.6917 -0.3507 -0.0891
  144SAPE    HB15759   3.376   2.480  10.705  1.9980 -1.4120 -2.9023
  144SAPE    C215760   3.262   2.306  10.616  0.2446  0.1589 -0.0183
  144SAPE    HS15761   3.198   2.228  10.664  0.9037 -0.5064 -0.2172
  144SAPE   O2115762   3.352   2.225  10.536 -0.8518  0.2972  0.5272
  144SAPE   C2115763   3.459   2.288  10.495  0.8128 -0.2726  0.4229
  144SAPE   O2215764   3.477   2.406  10.504 -0.9399 -1.0971 -1.0587
  144SAPE   C2215765   3.545   2.194  10.415  0.2456 -0.1220  0.3435
  144SAPE   H2R15766   3.613   2.138  10.482  0.3671 -1.8348 -1.1510
  144SAPE   H2S15767   3.478   2.134  10.350  0.5416  0.9963 -1.0150
  144SAPE    C315768   3.172   2.406  10.525 -0.3172  1.0449 -0.0128
  144SAPE    HX15769   3.225   2.498  10.492  2.1549  0.0290  1.0138
  144SAPE    HY15770   3.097   2.450  10.594 -0.6180 -0.2604  0.5275
  144SAPE   O3115771   3.126   2.343  10.405 -0.2819  0.0865  0.7703
  144SAPE   C3115772   2.994   2.326  10.401 -0.0897  0.1199 -0.6192
  144SAPE   O3215773   2.918   2.324  10.499  0.0637  0.1896  0.8542
  144SAPE   C3215774   2.963   2.276  10.259  0.7438 -0.6691  0.6352
  144SAPE   H2X15775   3.012   2.178  10.241  1.7440  0.0924 -0.8975
  144SAPE   H2Y15776   3.013   2.352  10.195  1.2168 -1.3533  0.1862
  144SAPE   C2315777   3.635   2.266  10.315 -0.0826  0.2415  0.1709
  144SAPE   H3R15778   3.705   2.312  10.388  0.7004 -0.1954 -0.3046
  144SAPE   H3S15779   3.571   2.336  10.257 -1.9932 -0.2285  1.6323
  144SAPE   C2415780   3.702   2.179  10.210 -0.5084  0.2538 -0.0735
  144SAPE   H4R15781   3.629   2.140  10.136 -1.1235  0.7008  0.3010
  144SAPE   H4S15782   3.761   2.094  10.251  0.3419  1.2416  0.7619
  144SAPE   C2515783   3.802   2.271  10.144  0.2016  0.4866 -0.3498
  144SAPE   H5R15784   3.875   2.309  10.217  1.3031 -0.7740 -0.7590
  144SAPE   C2615785   3.804   2.318  10.016 -0.6650 -0.5083  0.4362
  144SAPE   H6R15786   3.896   2.375   9.996 -1.1028  0.4385  1.0843
  144SAPE   C2715787   3.701   2.291   9.914 -0.7697 -0.5269  0.7439
  144SAPE   H7R15788   3.651   2.386   9.887  3.2943  1.2012 -1.0433
  144SAPE   H7S15789   3.619   2.223   9.947  0.9836 -1.7104  2.7643
  144SAPE   C2815790   3.763   2.237   9.784 -0.4430 -0.0713 -0.7993
  144SAPE   H8R15791   3.857   2.180   9.792  0.3055  1.4891  2.0858
  144SAPE   C2915792   3.718   2.251   9.659  0.9165 -0.4139  1.1770
  144SAPE   H9R15793   3.790   2.227   9.579  0.6381  0.8727  0.5311
  144SAPE  C21015794   3.593   2.321   9.616  0.2890 -0.3663 -0.0551
  144SAPE  H10R15795   3.609   2.361   9.513  3.2469 -2.1049 -0.3299
  144SAPE  H10S15796   3.575   2.397   9.695 -0.7725 -1.6246  0.9336
  144SAPE  C21115797   3.477   2.227   9.603  1.1125 -0.2215 -0.3423
  144SAPE  H11R15798   3.445   2.179   9.696  0.7773 -0.6015 -0.6521
  144SAPE  C21215799   3.408   2.202   9.486 -0.1250  0.7265  0.4965
  144SAPE  H12R15800   3.326   2.129   9.484 -0.5608  1.2491 -2.6045
  144SAPE  C21315801   3.441   2.250   9.345  0.5987 -0.0890 -0.6933
  144SAPE  H13R15802   3.408   2.168   9.278  0.8090  1.3631 -2.6150
  144SAPE  H13S15803   3.549   2.264   9.327  0.9488 -1.4012  0.2504
  144SAPE  C21415804   3.362   2.367   9.286 -0.4440 -0.6497  0.6415
  144SAPE  H14R15805   3.362   2.458   9.347  0.8339 -0.3344  0.1799
  144SAPE  C21515806   3.305   2.381   9.166  0.1231  0.0855 -0.0311
  144SAPE  H15R15807   3.257   2.474   9.132  1.7071  0.9987  0.1949
  144SAPE  C21615808   3.299   2.268   9.059 -0.0562  0.7460  0.2923
  144SAPE  H16R15809   3.202   2.262   9.005 -0.2133 -1.4723  0.7735
  144SAPE  H16S15810   3.321   2.169   9.105 -2.5623 -0.6150 -1.3177
  144SAPE  C21715811   3.407   2.314   8.951  0.0350 -0.4211 -0.8760
  144SAPE  H17R15812   3.500   2.301   9.011 -0.6938  1.7007  0.7823
  144SAPE  H17S15813   3.402   2.423   8.931  0.1904  0.1296  1.8374
  144SAPE  C21815814   3.390   2.240   8.815 -0.1464  0.1314  0.7929
  144SAPE  H18R15815   3.433   2.299   8.731 -2.0528  0.0676 -0.2699
  144SAPE  H18S15816   3.285   2.256   8.782 -0.2198  1.6701  1.7298
  144SAPE  C21915817   3.428   2.091   8.807 -0.4104 -0.1069  0.2768
  144SAPE  H19R15818   3.349   2.038   8.864 -0.3235 -0.6159 -0.0755
  144SAPE  H19S15819   3.525   2.076   8.859 -1.2585 -2.8935  1.1630
  144SAPE  C22015820   3.443   2.035   8.659  0.4430 -0.0524 -0.4905
  144SAPE  H20R15821   3.502   2.106   8.597 -0.2434  3.1452  2.3579
  144SAPE  H20S15822   3.338   2.032   8.624  0.3559  0.9318 -0.3481
  144SAPE  H20T15823   3.488   1.934   8.659  0.8515  0.1283 -0.7083
  144SAPE   C3315824   2.813   2.281  10.213 -0.1403  0.3298 -0.2781
  144SAPE   H3X15825   2.749   2.215  10.275 -1.0183  1.4878  0.0670
  144SAPE   H3Y15826   2.808   2.244  10.108 -0.5422  2.7321 -1.1332
  144SAPE   C3415827   2.765   2.428  10.211  0.2730  0.7985 -0.2660
  144SAPE   H4X15828   2.784   2.485  10.304 -0.8348 -0.0592  0.5037
  144SAPE   H4Y15829   2.654   2.420  10.203  0.2953  0.8888 -0.6928
  144SAPE   C3515830   2.791   2.521  10.080  0.3212 -0.0879  0.0281
  144SAPE   H5X15831   2.900   2.541  10.085 -0.1816  2.3382  2.0890
  144SAPE   H5Y15832   2.741   2.611  10.121  0.4770  0.0501 -0.0879
  144SAPE   C3615833   2.750   2.477   9.945 -0.7779  0.4729  0.1177
  144SAPE   H6X15834   2.642   2.451   9.950 -0.6308  0.0527  1.0934
  144SAPE   H6Y15835   2.809   2.396   9.898  1.8931  2.3145  0.1476
  144SAPE   C3715836   2.758   2.598   9.845  1.0467  0.1427  0.5214
  144SAPE   H7X15837   2.866   2.613   9.821  1.1881 -1.6786 -0.0631
  144SAPE   H7Y15838   2.712   2.684   9.897 -2.0077 -0.3167 -1.3124
  144SAPE   C3815839   2.685   2.580   9.708 -0.3678  0.1610  0.9114
  144SAPE   H8X15840   2.578   2.551   9.716 -0.5890  0.3046 -1.2480
  144SAPE   H8Y15841   2.737   2.498   9.654 -1.8535 -2.1047  2.8245
  144SAPE   C3915842   2.700   2.705   9.620  0.2443 -0.6711 -0.1302
  144SAPE   H9X15843   2.809   2.721   9.603 -0.3628  1.9621 -1.7012
  144SAPE   H9Y15844   2.671   2.802   9.665  0.9148 -0.1435 -0.8398
  144SAPE  C31015845   2.628   2.681   9.485  0.4015 -0.1615 -0.4079
  144SAPE  H10X15846   2.519   2.662   9.499  1.0647 -3.4673  0.6954
  144SAPE  H10Y15847   2.670   2.588   9.441  1.5304  0.8518 -1.4948
  144SAPE  C31115848   2.646   2.804   9.390  1.2068  0.1336 -0.2275
  144SAPE  H11X15849   2.748   2.822   9.350  0.8573  0.0217 -1.1888
  144SAPE  H11Y15850   2.600   2.888   9.445  0.5530  1.2945 -2.4812
  144SAPE  C31215851   2.552   2.803   9.265  0.3584  0.3521  0.3620
  144SAPE  H12X15852   2.567   2.899   9.212 -0.6271  0.5284  0.3787
  144SAPE  H12Y15853   2.445   2.796   9.294  0.3944  1.2316  0.7281
  144SAPE  C31315854   2.572   2.696   9.155  0.2217 -0.2387  0.1984
  144SAPE  H13X15855   2.597   2.597   9.199 -2.2315 -1.2318 -0.5436
  144SAPE  H13Y15856   2.659   2.724   9.092 -0.2920 -0.4266 -0.6011
  144SAPE  C31415857   2.453   2.677   9.062 -0.4160 -0.1885  0.1942
  144SAPE  H14X15858   2.360   2.650   9.117 -0.4296  2.9830  1.9065
  144SAPE  H14Y15859   2.472   2.599   8.986 -2.0574 -0.4482  0.0245
  144SAPE  C31515860   2.406   2.804   8.984  0.1431 -0.3745 -0.0625
  144SAPE  H15X15861   2.496   2.860   8.951  0.0782 -0.5337 -0.5252
  144SAPE  H15Y15862   2.366   2.858   9.072  0.7082 -1.6193  0.9875
  144SAPE  C31615863   2.309   2.779   8.869 -0.2190 -0.0857  0.0301
  144SAPE  H16X15864   2.240   2.694   8.890  0.5372 -1.2169 -1.8547
  144SAPE  H16Y15865   2.361   2.747   8.776  0.1753  0.4603  0.0620
  144SAPE  C31715866   2.237   2.905   8.832 -0.0123  1.0303  0.5696
  144SAPE  H17X15867   2.187   2.950   8.921 -1.8986  0.4435 -0.1755
  144SAPE  H17Y15868   2.150   2.873   8.771  0.8341 -0.5447  0.1737
  144SAPE  C31815869   2.327   3.017   8.773  0.4642 -0.3420  0.4792
  144SAPE  H18X15870   2.408   3.053   8.841  0.6991  0.5842 -0.2745
  144SAPE  H18Y15871   2.265   3.107   8.753  1.5215  0.7397  1.8697
  144SAPE  H18Z15872   2.350   2.988   8.669  1.1915 -1.3936  0.9258
  145SAPE     N15873   1.331   2.305  11.511 -0.4790 -0.7315  0.6595
  145SAPE   HN115874   1.251   2.243  11.487 -3.1976  2.1522  1.8566
  145SAPE   HN215875   1.404   2.269  11.576 -1.3744 -1.1002  1.4801
  145SAPE   HN315876   1.277   2.370  11.571  0.1810 -2.3908  3.1413
  145SAPE   C1215877   1.391   2.366  11.389  0.5445  0.7158  0.4072
  145SAPE  H12A15878   1.476   2.302  11.357 -0.9229 -1.0680 -0.0674
  145SAPE  H12B15879   1.429   2.468  11.407 -0.8905  1.4249 -0.4555
  145SAPE   C1115880   1.288   2.370  11.278 -0.0333  0.0493 -0.8807
  145SAPE  H11A15881   1.258   2.269  11.243 -0.7838 -0.2268  0.5057
  145SAPE  H11B15882   1.344   2.426  11.200 -1.9975  1.1033 -1.5698
  145SAPE     P15883   1.129   2.584  11.279  0.1520 -0.4818 -0.0903
  145SAPE   O1315884   0.999   2.622  11.341 -0.1687 -0.6672 -0.1343
  145SAPE   O1415885   1.239   2.679  11.310  0.1569 -0.6976  0.2070
  145SAPE   O1215886   1.171   2.439  11.320 -0.7238 -0.1089 -0.4007
  145SAPE   O1115887   1.110   2.575  11.125 -0.5132 -0.1683  0.8750
  145SAPE    C115888   1.064   2.459  11.059  0.6071  0.3326  0.1274
  145SAPE    HA15889   1.140   2.377  11.058  0.2607  0.0068 -0.7222
  145SAPE    HB15890   0.971   2.421  11.107  1.0557  1.8113  2.1913
  145SAPE    C215891   1.016   2.484  10.917 -0.5060 -0.0303 -0.2148
  145SAPE    HS15892   0.996   2.390  10.861 -0.1070  0.9399 -2.0030
  145SAPE   O2115893   1.115   2.565  10.847  0.3988  0.2829  0.4877
  145SAPE   C2115894   1.201   2.500  10.780 -0.0516  0.6133  0.6153
  145SAPE   O2215895   1.212   2.381  10.767 -0.1188  0.0977  0.5538
  145SAPE   C2215896   1.303   2.597  10.709  0.2684  0.6684  0.2797
  145SAPE   H2R15897   1.296   2.690  10.770 -1.6792  1.1078 -0.5689
  145SAPE   H2S15898   1.401   2.546  10.713 -1.1697 -2.1057  2.2463
  145SAPE    C315899   0.875   2.554  10.917 -0.4210 -0.9214  0.9146
  145SAPE    HX15900   0.890   2.647  10.975  1.0387  0.3782 -1.5133
  145SAPE    HY15901   0.803   2.495  10.978 -2.1916  1.2375  0.9589
  145SAPE   O3115902   0.821   2.581  10.783  0.0959  1.2753  0.5347
  145SAPE   C3115903   0.827   2.706  10.732 -0.0122 -0.4779  0.2340
  145SAPE   O3215904   0.892   2.799  10.780 -0.1021 -0.8100  0.0596
  145SAPE   C3215905   0.743   2.714  10.598 -0.0339 -0.3984  0.0488
  145SAPE   H2X15906   0.656   2.774  10.631  0.3055  0.4168 -0.5248
  145SAPE   H2Y15907   0.714   2.608  10.582 -0.2240 -0.6595  2.0596
  145SAPE   C2315908   1.269   2.643  10.561 -0.0907  0.4876  0.3257
  145SAPE   H3R15909   1.356   2.694  10.514  1.2455 -1.8139  0.2183
  145SAPE   H3S15910   1.188   2.719  10.561 -1.5291 -1.0055  1.7121
  145SAPE   C2415911   1.221   2.520  10.484 -0.2530  0.1396 -0.3203
  145SAPE   H4R15912   1.132   2.478  10.537 -1.5098  2.3629 -0.5967
  145SAPE   H4S15913   1.305   2.447  10.487 -2.2854 -2.2461  0.3730
  145SAPE   C2515914   1.184   2.556  10.339 -0.0135 -0.5630 -0.0905
  145SAPE   H5R15915   1.133   2.654  10.332  1.2587  0.2722  1.7576
  145SAPE   C2615916   1.224   2.498  10.230  0.4883  0.1524 -0.0226
  145SAPE   H6R15917   1.191   2.548  10.138 -1.4258 -3.3321 -1.3069
  145SAPE   C2715918   1.314   2.378  10.221 -0.5405  0.1820 -0.4463
  145SAPE   H7R15919   1.263   2.297  10.278  0.9457 -0.4695 -0.0126
  145SAPE   H7S15920   1.410   2.396  10.275 -1.2475 -1.8594  1.5614
  145SAPE   C2815921   1.332   2.329  10.076 -0.8429 -0.2377 -0.1437
  145SAPE   H8R15922   1.251   2.289  10.013 -0.5253  1.6185 -1.7526
  145SAPE   C2915923   1.451   2.329  10.018  0.8780 -0.7362  0.3136
  145SAPE   H9R15924   1.470   2.288   9.917  1.5264 -1.1475  0.6000
  145SAPE  C21015925   1.573   2.389  10.082  1.2739  0.3132  0.0668
  145SAPE  H10R15926   1.587   2.333  10.177 -0.9629  2.1753  1.5471
  145SAPE  H10S15927   1.561   2.495  10.113 -2.4657 -0.1270  0.4269
  145SAPE  C21115928   1.694   2.375   9.995 -0.2879 -0.1657 -0.5811
  145SAPE  H11R15929   1.765   2.308  10.045  2.0060  0.9808 -2.2357
  145SAPE  C21215930   1.718   2.445   9.882 -0.9321 -0.0943  0.6968
  145SAPE  H12R15931   1.818   2.435   9.837  0.0165 -0.1132  2.7970
  145SAPE  C21315932   1.616   2.542   9.825  1.0966 -0.2551  0.3722
  145SAPE  H13R15933   1.564   2.594   9.908  0.2640 -0.2392 -0.1532
  145SAPE  H13S15934   1.540   2.477   9.776  0.7212 -0.6960  1.5259
  145SAPE  C21415935   1.676   2.643   9.730  0.5058  0.2452 -0.1320
  145SAPE  H14R15936   1.737   2.721   9.778 -2.4887  0.6819  3.1787
  145SAPE  C21515937   1.653   2.645   9.597 -0.5474 -0.3540 -0.4778
  145SAPE  H15R15938   1.708   2.713   9.529 -0.8389  0.6408  0.2635
  145SAPE  C21615939   1.585   2.545   9.512  0.6315 -0.3511  0.1701
  145SAPE  H16R15940   1.571   2.572   9.405  0.2993  3.2670  1.0474
  145SAPE  H16S15941   1.484   2.516   9.547  0.9778 -1.2530  0.4412
  145SAPE  C21715942   1.664   2.411   9.515 -0.1346 -0.1336 -0.1692
  145SAPE  H17R15943   1.667   2.374   9.619  0.5669 -1.3707 -0.6193
  145SAPE  H17S15944   1.770   2.420   9.484  0.6808  0.9263  2.8026
  145SAPE  C21815945   1.601   2.304   9.424 -0.5908  0.7273 -0.0234
  145SAPE  H18R15946   1.500   2.282   9.464 -0.5551 -0.7858 -0.7208
  145SAPE  H18S15947   1.657   2.208   9.435 -2.7922 -0.5548  0.3989
  145SAPE  C21915948   1.610   2.342   9.277  0.1306 -0.0176  0.5244
  145SAPE  H19R15949   1.710   2.385   9.257 -0.0729 -0.2638 -1.1290
  145SAPE  H19S15950   1.535   2.424   9.272 -1.5217 -1.3552  2.4494
  145SAPE  C22015951   1.574   2.228   9.187 -0.4273  0.6936  0.1650
  145SAPE  H20R15952   1.627   2.134   9.214 -1.4328  0.0675 -0.0167
  145SAPE  H20S15953   1.601   2.266   9.087 -0.7664  0.7645  0.1020
  145SAPE  H20T15954   1.467   2.200   9.192 -0.6784  1.3270 -1.5138
  145SAPE   C3315955   0.825   2.771  10.479  0.5055 -0.4831  0.0818
  145SAPE   H3X15956   0.911   2.705  10.455 -0.2330 -1.2750 -0.4363
  145SAPE   H3Y15957   0.861   2.869  10.516 -1.0183  0.6649 -1.3909
  145SAPE   C3415958   0.741   2.792  10.349  0.7935  0.8744 -0.4487
  145SAPE   H4X15959   0.791   2.871  10.289  2.6221  0.2894  0.2974
  145SAPE   H4Y15960   0.637   2.827  10.367  0.8275  0.1107  1.3313
  145SAPE   C3515961   0.737   2.653  10.271  0.1597 -0.8417 -0.0443
  145SAPE   H5X15962   0.641   2.629  10.220  1.1310 -3.0237 -0.9339
  145SAPE   H5Y15963   0.746   2.580  10.355  1.4208  1.4604  1.8797
  145SAPE   C3615964   0.858   2.642  10.168  0.8558  0.4000  0.2634
  145SAPE   H6X15965   0.878   2.538  10.136 -1.2138  0.0358  0.0704
  145SAPE   H6Y15966   0.951   2.670  10.222  0.9916 -0.6785  0.5850
  145SAPE   C3715967   0.836   2.724  10.037 -0.3409 -0.0425  0.4103
  145SAPE   H7X15968   0.942   2.754  10.019 -0.9695  1.7978 -0.3386
  145SAPE   H7Y15969   0.775   2.813  10.065 -3.5912 -2.3237  0.7677
  145SAPE   C3815970   0.766   2.645   9.925  0.2003  0.1744  1.0472
  145SAPE   H8X15971   0.675   2.602   9.972  0.0851 -0.9526 -0.1733
  145SAPE   H8Y15972   0.832   2.562   9.891  1.5101 -0.0338  3.9348
  145SAPE   C3915973   0.739   2.736   9.808 -0.2399 -0.4787 -0.2701
  145SAPE   H9X15974   0.820   2.805   9.778 -1.0288 -0.7595 -3.1886
  145SAPE   H9Y15975   0.667   2.808   9.853  1.9665  1.0803  0.8539
  145SAPE  C31015976   0.691   2.658   9.681  0.6142  0.0342 -0.2590
  145SAPE  H10X15977   0.597   2.600   9.693  1.6084 -1.7925 -1.1818
  145SAPE  H10Y15978   0.765   2.575   9.675  0.4733 -0.3974  2.9765
  145SAPE  C31115979   0.687   2.744   9.554 -0.5661  0.6323 -0.5355
  145SAPE  H11X15980   0.788   2.791   9.545 -0.9018  1.1196 -1.9184
  145SAPE  H11Y15981   0.609   2.822   9.561 -2.0330 -0.7408 -1.1783
  145SAPE  C31215982   0.665   2.665   9.423 -0.3066  0.1820  0.4718
  145SAPE  H12X15983   0.561   2.625   9.419 -0.4039  0.4757  0.0229
  145SAPE  H12Y15984   0.741   2.584   9.417 -1.8587 -1.2594 -0.1972
  145SAPE  C31315985   0.690   2.761   9.306 -0.7886 -0.0652  0.2991
  145SAPE  H13X15986   0.797   2.787   9.322 -0.5407 -0.1924 -1.0856
  145SAPE  H13Y15987   0.626   2.850   9.320 -0.4786  0.2038  0.0179
  145SAPE  C31415988   0.679   2.695   9.168 -0.0072  0.5853 -0.8167
  145SAPE  H14X15989   0.570   2.684   9.150 -0.4999  4.7356 -0.8099
  145SAPE  H14Y15990   0.735   2.599   9.164  2.8314  2.1094  0.7846
  145SAPE  C31515991   0.732   2.784   9.054  0.2610 -0.6959  0.4583
  145SAPE  H15X15992   0.827   2.837   9.074  0.3882  0.2223 -2.3993
  145SAPE  H15Y15993   0.662   2.869   9.039 -0.3732 -1.3680 -0.4559
  145SAPE  C31615994   0.743   2.719   8.916 -0.7312  0.2113 -0.3331
  145SAPE  H16X15995   0.831   2.651   8.918 -0.5438  0.4416 -0.7097
  145SAPE  H16Y15996   0.764   2.801   8.844  4.2391 -0.8654 -0.2481
  145SAPE  C31715997   0.625   2.625   8.880 -0.0918  0.1534 -0.2699
  145SAPE  H17X15998   0.530   2.674   8.911 -0.1132  0.2428 -0.4785
  145SAPE  H17Y15999   0.627   2.531   8.939  2.8222  0.3666  0.0633
  145SAPE  C31816000   0.621   2.589   8.735 -0.2096  0.0675  0.4970
  145SAPE  H18X16001   0.556   2.500   8.720  1.2190 -0.5967 -2.0306
  145SAPE  H18Y16002   0.724   2.562   8.704 -0.5658 -0.5863 -0.1401
  145SAPE  H18Z16003   0.572   2.664   8.669  1.2832  0.6606  0.0367
  146SAPE     N16004   4.904   1.381  10.830  0.3438  0.5588 -0.0648
  146SAPE   HN116005   4.828   1.414  10.892 -1.5495 -0.1331 -1.9406
  146SAPE   HN216006   4.905   1.277  10.833 -0.2364  0.5850  3.6336
  146SAPE   HN316007   4.996   1.419  10.860  1.6440 -1.5983 -1.1808
  146SAPE   C1216008   4.889   1.426  10.687 -0.6640  0.0937 -0.1062
  146SAPE  H12A16009   4.826   1.354  10.631  2.0423 -1.3805 -1.3419
  146SAPE  H12B16010   4.992   1.419  10.645  0.0822 -0.4989  1.7637
  146SAPE   C1116011   4.838   1.568  10.690  0.8509 -0.2443  1.0433
  146SAPE  H11A16012   4.800   1.594  10.588 -0.4841 -1.8963  1.0979
  146SAPE  H11B16013   4.914   1.648  10.704 -0.7333  1.2220  1.4254
  146SAPE     P16014   4.581   1.526  10.756 -0.1846 -0.2399  0.4048
  146SAPE   O1316015   4.606   1.380  10.755  0.5964 -0.1795 -0.0585
  146SAPE   O1416016   4.487   1.568  10.855  0.9200 -0.1755 -0.7496
  146SAPE   O1216017   4.729   1.588  10.783  0.0571  0.0049  0.2322
  146SAPE   O1116018   4.542   1.560  10.603 -0.6393  0.4323  0.3494
  146SAPE    C116019   4.477   1.677  10.567  0.0864  0.4085 -0.2055
  146SAPE    HA16020   4.414   1.640  10.483  0.4850 -1.7913  0.4232
  146SAPE    HB16021   4.400   1.708  10.640  1.1100 -2.2711  2.0946
  146SAPE    C216022   4.567   1.789  10.521  0.0704 -0.1124 -0.3728
  146SAPE    HS16023   4.492   1.860  10.480 -2.6401 -4.3071 -2.9409
  146SAPE   O2116024   4.666   1.749  10.427  0.3403 -0.1354 -0.3329
  146SAPE   C2116025   4.687   1.850  10.331 -0.0121  1.2486  0.0142
  146SAPE   O2216026   4.607   1.940  10.305 -0.0251  0.5155 -0.4449
  146SAPE   C2216027   4.804   1.807  10.245  0.0909  0.5640  0.1503
  146SAPE   H2R16028   4.869   1.745  10.311 -0.5303 -0.7413 -0.4554
  146SAPE   H2S16029   4.761   1.749  10.161  2.3118  0.2879 -0.8435
  146SAPE    C316030   4.637   1.871  10.638  0.3723  0.6767  0.3579
  146SAPE    HX16031   4.715   1.810  10.689  1.7450  2.5467  0.5271
  146SAPE    HY16032   4.552   1.902  10.702 -0.3276  1.0571 -0.7305
  146SAPE   O3116033   4.696   1.993  10.583 -0.5328 -0.2873  0.0054
  146SAPE   C3116034   4.617   2.096  10.554  0.6689 -0.1385 -0.1071
  146SAPE   O3216035   4.496   2.099  10.562  0.2282  1.2273 -0.3224
  146SAPE   C3216036   4.703   2.209  10.499 -0.3510 -0.4815  1.0347
  146SAPE   H2X16037   4.753   2.157  10.414  0.3509  0.5601  0.8006
  146SAPE   H2Y16038   4.785   2.231  10.570  1.5635 -2.3455 -0.5261
  146SAPE   C2316039   4.894   1.932  10.205 -0.9155  0.0725 -1.5360
  146SAPE   H3R16040   4.976   1.960  10.275  0.0812 -1.5575 -2.0302
  146SAPE   H3S16041   4.825   2.018  10.193 -1.3423  0.1136  0.8451
  146SAPE   C2416042   4.959   1.919  10.070  1.2194  0.3645  0.0149
  146SAPE   H4R16043   5.015   2.013  10.050  1.4842  0.5201  1.4564
  146SAPE   H4S16044   4.884   1.901   9.989  0.7177 -0.8203  0.7379
  146SAPE   C2516045   5.050   1.800  10.070  0.6463  0.0579 -0.0720
  146SAPE   H5R16046   5.002   1.702  10.057 -0.1738  0.7228 -2.3896
  146SAPE   C2616047   5.187   1.789  10.063 -0.5123 -0.1045 -0.6447
  146SAPE   H6R16048   5.231   1.688  10.070  3.5479  1.5364 -0.9903
  146SAPE   C2716049   5.283   1.900  10.069 -0.0469  0.3536 -0.7070
  146SAPE   H7R16050   5.285   1.941  10.172  2.0956  0.1564 -0.6380
  146SAPE   H7S16051   5.261   1.984   9.999  0.5100  1.3919  0.3378
  146SAPE   C2816052   5.430   1.860  10.051  0.5482  0.3099 -0.1986
  146SAPE   H8R16053   5.458   1.760  10.017  1.4242 -0.1402  1.7681
  146SAPE   C2916054   5.528   1.945  10.075 -0.1539 -0.6855  0.1278
  146SAPE   H9R16055   5.631   1.915  10.049 -0.1763  0.0298 -0.8247
  146SAPE  C21016056   5.513   2.091  10.108 -0.1157  0.2289  0.2217
  146SAPE  H10R16057   5.543   2.106  10.214  3.2047  3.2771 -1.0421
  146SAPE  H10S16058   5.409   2.128  10.116  0.0770  0.6648  0.8083
  146SAPE  C21116059   5.598   2.184  10.025  0.4610  0.2875 -0.3367
  146SAPE  H11R16060   5.560   2.209   9.925 -0.6787  0.8684  0.2307
  146SAPE  C21216061   5.716   2.241  10.067  0.0006  0.3153  0.1541
  146SAPE  H12R16062   5.765   2.308   9.994 -0.9774 -0.0028 -0.8203
  146SAPE  C21316063   5.785   2.239  10.200 -0.7401 -0.3886  0.0514
  146SAPE  H13R16064   5.718   2.257  10.286 -1.8467 -1.5690 -0.5614
  146SAPE  H13S16065   5.872   2.309  10.202 -0.1965 -0.9884 -1.9399
  146SAPE  C21416066   5.850   2.103  10.212 -0.2716 -0.1103  0.0814
  146SAPE  H14R16067   5.790   2.019  10.250  1.0225  0.5817  3.8239
  146SAPE  C21516068   5.972   2.065  10.161 -0.6281 -0.0804 -0.8254
  146SAPE  H15R16069   6.020   1.971  10.194  1.2672  1.5469  1.2046
  146SAPE  C21616070   6.081   2.153  10.102 -0.3022 -0.2240  0.3874
  146SAPE  H16R16071   6.170   2.154  10.167  1.4970 -0.4813 -1.9945
  146SAPE  H16S16072   6.043   2.257  10.093 -2.4256 -1.2159 -3.3030
  146SAPE  C21716073   6.112   2.101   9.962  0.2468 -0.0759  0.4373
  146SAPE  H17R16074   6.018   2.083   9.905  0.4162  3.2113 -1.0143
  146SAPE  H17S16075   6.171   2.007   9.967 -1.9006 -1.4577  0.6095
  146SAPE  C21816076   6.186   2.215   9.884 -0.9951 -0.8493  0.2661
  146SAPE  H18R16077   6.167   2.312   9.935  0.7525 -1.3826  1.9932
  146SAPE  H18S16078   6.137   2.228   9.786 -1.6297  0.1540  0.7113
  146SAPE  C21916079   6.329   2.177   9.864 -0.6243  0.4786  0.4663
  146SAPE  H19R16080   6.332   2.072   9.828  0.0283 -0.5235  3.3684
  146SAPE  H19S16081   6.392   2.186   9.955 -0.1475  2.1937 -0.0036
  146SAPE  C22016082   6.394   2.264   9.757 -0.2534  0.0303  0.0323
  146SAPE  H20R16083   6.392   2.368   9.796 -0.2131 -0.5828  1.6998
  146SAPE  H20S16084   6.328   2.260   9.667 -2.5882  0.0460  1.6784
  146SAPE  H20T16085   6.503   2.243   9.751 -0.5972 -1.4657 -1.4696
  146SAPE   C3316086   4.627   2.347  10.462  0.0031 -0.3116 -0.1845
  146SAPE   H3X16087   4.696   2.431  10.440 -2.2639  1.7693  0.3858
  146SAPE   H3Y16088   4.565   2.374  10.550  1.5698 -0.3836  0.9778
  146SAPE   C3416089   4.538   2.324  10.340 -0.0983 -0.7413 -0.8971
  146SAPE   H4X16090   4.447   2.385  10.352  1.0408  0.5767  1.3746
  146SAPE   H4Y16091   4.523   2.214  10.330  0.0302 -0.7913 -0.5382
  146SAPE   C3516092   4.596   2.367  10.205 -0.6937  0.1127 -0.0400
  146SAPE   H5X16093   4.647   2.465  10.214  0.7437 -0.6982  0.8999
  146SAPE   H5Y16094   4.506   2.372  10.140 -1.9970 -3.7114  1.3008
  146SAPE   C3616095   4.680   2.256  10.137  0.4477 -0.7099 -0.7294
  146SAPE   H6X16096   4.628   2.158  10.130  1.8470 -1.7065  2.0155
  146SAPE   H6Y16097   4.758   2.227  10.210 -0.4808 -0.6592  0.2976
  146SAPE   C3716098   4.728   2.317   9.997  0.7458  0.4662 -0.2074
  146SAPE   H7X16099   4.800   2.401  10.008 -1.7315  2.3369  2.4295
  146SAPE   H7Y16100   4.637   2.355   9.945 -0.9640  1.5992  3.3824
  146SAPE   C3816101   4.764   2.196   9.912  0.9033 -0.1558 -0.1129
  146SAPE   H8X16102   4.704   2.110   9.949  1.7172 -0.1842  1.2066
  146SAPE   H8Y16103   4.866   2.171   9.949  1.1068  0.7013 -0.0872
  146SAPE   C3916104   4.763   2.221   9.768  1.7411 -0.4924 -0.0350
  146SAPE   H9X16105   4.831   2.306   9.750  0.4070  0.4365 -0.7857
  146SAPE   H9Y16106   4.664   2.265   9.746  3.0712  1.7416 -1.7877
  146SAPE  C31016107   4.795   2.108   9.666  0.1546 -0.3451 -0.0266
  146SAPE  H10X16108   4.722   2.027   9.686 -0.9399  0.8671  0.9946
  146SAPE  H10Y16109   4.896   2.067   9.687 -1.1261 -2.5702  2.0368
  146SAPE  C31116110   4.790   2.144   9.517 -0.1846 -0.9605  0.4469
  146SAPE  H11X16111   4.854   2.234   9.512  0.3786 -1.3902 -0.0847
  146SAPE  H11Y16112   4.686   2.177   9.493  0.9595  1.3450 -1.6088
  146SAPE  C31216113   4.840   2.043   9.409  0.1530  0.2634  0.0914
  146SAPE  H12X16114   4.759   1.969   9.395  0.8163 -0.2755 -0.9886
  146SAPE  H12Y16115   4.928   1.988   9.447  0.0527 -0.1450 -0.2593
  146SAPE  C31316116   4.876   2.098   9.272  0.3839 -0.1225 -0.0972
  146SAPE  H13X16117   4.918   2.011   9.218 -1.1708 -1.3334  0.6060
  146SAPE  H13Y16118   4.963   2.164   9.294  0.4775  0.2747 -1.5785
  146SAPE  C31416119   4.775   2.167   9.188  0.1322  0.3145  0.5106
  146SAPE  H14X16120   4.750   2.270   9.223 -1.8997 -0.6206  1.9574
  146SAPE  H14Y16121   4.689   2.101   9.214 -0.8052  1.0285 -0.7189
  146SAPE  C31516122   4.796   2.186   9.034 -1.2876 -0.5956  0.1883
  146SAPE  H15X16123   4.787   2.085   8.989 -1.8895 -0.2398 -0.5026
  146SAPE  H15Y16124   4.890   2.239   9.012 -0.5399 -1.0579  2.1287
  146SAPE  C31616125   4.694   2.286   8.973 -0.0712 -0.3189  0.2413
  146SAPE  H16X16126   4.712   2.392   9.001  1.2988 -0.1312 -1.3081
  146SAPE  H16Y16127   4.593   2.261   9.014  0.1817 -0.0062  1.0553
  146SAPE  C31716128   4.690   2.279   8.819 -0.2749  0.2757 -0.5062
  146SAPE  H17X16129   4.703   2.174   8.784  1.2502 -0.6483  2.6318
  146SAPE  H17Y16130   4.781   2.324   8.773  1.7527 -1.6267  1.5106
  146SAPE  C31816131   4.560   2.339   8.761 -0.5048 -0.1871 -0.2108
  146SAPE  H18X16132   4.477   2.297   8.822 -1.2675  0.9674 -0.4328
  146SAPE  H18Y16133   4.542   2.316   8.654  0.5080 -2.9590  0.1680
  146SAPE  H18Z16134   4.551   2.448   8.780 -0.3332 -0.2764  0.3964
  147SAPE     N16135   2.737   6.426   6.020  0.3117  0.4641  0.4916
  147SAPE   HN116136   2.806   6.420   6.097  2.0445 -2.2059 -1.1841
  147SAPE   HN216137   2.730   6.339   5.965 -0.6636  1.1805 -0.5465
  147SAPE   HN316138   2.775   6.504   5.961 -0.1045  0.7612  0.6147
  147SAPE   C1216139   2.602   6.484   6.065 -0.4367  0.8712  0.4044
  147SAPE  H12A16140   2.518   6.415   6.045 -0.5452  1.4696 -1.2346
  147SAPE  H12B16141   2.590   6.576   6.005 -0.7443  0.7311  0.2516
  147SAPE   C1116142   2.607   6.513   6.221 -0.0042  0.1307  0.2509
  147SAPE  H11A16143   2.615   6.415   6.272 -0.4099  0.5409  1.1178
  147SAPE  H11B16144   2.515   6.571   6.244  1.7271  2.7912  0.6824
  147SAPE     P16145   2.724   6.747   6.292 -0.0764  0.3464  0.3128
  147SAPE   O1316146   2.862   6.789   6.314 -0.4330 -0.7323  0.1089
  147SAPE   O1416147   2.636   6.821   6.199  0.7008  0.0917  0.4581
  147SAPE   O1216148   2.724   6.592   6.244  0.4901  0.7157 -0.1178
  147SAPE   O1116149   2.656   6.725   6.430  0.2084 -0.0066 -0.1667
  147SAPE    C116150   2.731   6.677   6.543 -0.3620  0.3891 -0.2639
  147SAPE    HA16151   2.775   6.579   6.516  0.1258  0.5705 -0.1307
  147SAPE    HB16152   2.816   6.740   6.577  1.2556 -1.3788 -0.9082
  147SAPE    C216153   2.637   6.661   6.667 -0.1789 -0.1241  0.2469
  147SAPE    HS16154   2.694   6.588   6.728 -0.7398 -0.3502  0.5099
  147SAPE   O2116155   2.503   6.617   6.625  0.5065 -0.7825 -0.1027
  147SAPE   C2116156   2.496   6.492   6.586 -0.0644 -0.1168  0.5169
  147SAPE   O2216157   2.583   6.409   6.596 -0.3975 -0.5608 -0.5149
  147SAPE   C2216158   2.362   6.470   6.514 -0.4486  0.1648  0.5222
  147SAPE   H2R16159   2.294   6.550   6.551  0.5873  0.6610  1.3417
  147SAPE   H2S16160   2.379   6.486   6.405  1.5261  0.7202  0.9010
  147SAPE    C316161   2.626   6.796   6.741  0.9742 -0.0081  0.4100
  147SAPE    HX16162   2.579   6.866   6.669  2.2835  1.8768  1.3428
  147SAPE    HY16163   2.732   6.826   6.756  0.7336  0.9376  0.2533
  147SAPE   O3116164   2.555   6.772   6.867 -0.4395 -0.0425 -0.1365
  147SAPE   C3116165   2.568   6.877   6.963 -0.7243  0.2391  0.5691
  147SAPE   O3216166   2.609   6.984   6.930 -0.4565  0.0290 -1.2169
  147SAPE   C3216167   2.509   6.829   7.101 -0.5428  0.0236  0.3773
  147SAPE   H2X16168   2.498   6.718   7.099  3.1706 -0.4504  1.9952
  147SAPE   H2Y16169   2.417   6.888   7.117 -1.1669  0.3401 -3.7684
  147SAPE   C2316170   2.295   6.323   6.530  0.7629 -1.3116 -0.1364
  147SAPE   H3R16171   2.347   6.277   6.616 -1.3877  0.8667  2.4147
  147SAPE   H3S16172   2.319   6.253   6.447 -0.6929 -1.9319 -0.0426
  147SAPE   C2416173   2.141   6.320   6.544 -0.2301 -0.0791 -1.1387
  147SAPE   H4R16174   2.097   6.218   6.545 -3.3419  1.2360  1.2484
  147SAPE   H4S16175   2.088   6.374   6.463  0.8881  1.3923 -0.9031
  147SAPE   C2516176   2.110   6.384   6.667  0.1813 -0.0818  0.5616
  147SAPE   H5R16177   2.098   6.494   6.665 -0.9813 -0.2080  0.1771
  147SAPE   C2616178   2.096   6.316   6.784  0.5730 -0.3426  0.9553
  147SAPE   H6R16179   2.073   6.376   6.873 -0.7013 -0.3327  0.6210
  147SAPE   C2716180   2.122   6.170   6.813 -0.4288 -0.1131  0.5528
  147SAPE   H7R16181   2.180   6.115   6.736 -1.5273 -2.1921  1.1811
  147SAPE   H7S16182   2.024   6.117   6.812  0.2366 -1.3550 -0.8929
  147SAPE   C2816183   2.206   6.150   6.942 -0.1939  0.5403  0.5259
  147SAPE   H8R16184   2.308   6.116   6.917 -0.8399  0.3770 -2.0759
  147SAPE   C2916185   2.153   6.159   7.066 -0.2772 -0.8928  0.5130
  147SAPE   H9R16186   2.214   6.137   7.155  2.9095 -1.5717 -1.7535
  147SAPE  C21016187   2.008   6.191   7.107 -0.4502  0.2408  0.0261
  147SAPE  H10R16188   1.937   6.169   7.024  0.8379 -0.5411 -0.8942
  147SAPE  H10S16189   2.001   6.302   7.118  2.0508  0.2790  1.8092
  147SAPE  C21116190   1.961   6.125   7.234  0.7724  0.1788 -0.3409
  147SAPE  H11R16191   1.933   6.020   7.215 -0.5062  0.5502 -0.5975
  147SAPE  C21216192   1.939   6.189   7.354 -0.6524 -0.1315 -0.0879
  147SAPE  H12R16193   1.888   6.145   7.441 -1.3411  2.3447  0.8039
  147SAPE  C21316194   1.975   6.337   7.387 -0.1461 -0.1665 -0.2608
  147SAPE  H13R16195   2.020   6.400   7.308 -0.3861  0.2970 -0.0315
  147SAPE  H13S16196   2.063   6.329   7.456  0.6446  2.1057 -0.9560
  147SAPE  C21416197   1.858   6.409   7.445 -0.9237 -0.4085  0.5084
  147SAPE  H14R16198   1.798   6.458   7.368  0.2947  1.1366  0.5196
  147SAPE  C21516199   1.822   6.440   7.572 -0.2083  0.1070 -0.0762
  147SAPE  H15R16200   1.724   6.487   7.586  0.7020  2.4975 -1.4110
  147SAPE  C21616201   1.894   6.388   7.695  0.4044 -0.5503 -0.6076
  147SAPE  H16R16202   2.003   6.407   7.684  0.2031  1.3695  0.5848
  147SAPE  H16S16203   1.875   6.279   7.696 -0.2387 -0.4396  2.2080
  147SAPE  C21716204   1.854   6.453   7.822  0.3314 -0.7303 -0.4001
  147SAPE  H17R16205   1.753   6.416   7.846  0.7403 -1.5275  0.1037
  147SAPE  H17S16206   1.847   6.563   7.803  1.5294 -0.5852 -0.0443
  147SAPE  C21816207   1.953   6.430   7.943  0.3352 -0.7699  0.6712
  147SAPE  H18R16208   1.899   6.450   8.039 -0.9171 -1.6191  0.1515
  147SAPE  H18S16209   2.035   6.505   7.943  1.1727 -1.6559 -1.3871
  147SAPE  C21916210   2.000   6.289   7.954  0.1286 -0.4870 -0.5063
  147SAPE  H19R16211   2.079   6.294   8.032  0.9414 -0.8371 -1.3073
  147SAPE  H19S16212   2.050   6.259   7.859  0.3558 -0.0830 -0.5105
  147SAPE  C22016213   1.893   6.186   7.994 -0.1302 -0.3619 -0.1537
  147SAPE  H20R16214   1.903   6.088   7.942  0.0598  0.3197 -1.4188
  147SAPE  H20S16215   1.795   6.234   7.970  0.1826 -1.0633 -3.1203
  147SAPE  H20T16216   1.897   6.167   8.103 -3.9409  0.6607  0.2483
  147SAPE   C3316217   2.605   6.866   7.212  0.0326 -0.4564  0.9677
  147SAPE   H3X16218   2.661   6.959   7.187  2.9524 -2.6379 -1.0006
  147SAPE   H3Y16219   2.685   6.790   7.228 -0.3171 -0.4989  2.6754
  147SAPE   C3416220   2.536   6.897   7.347 -0.1009 -0.1818  0.4350
  147SAPE   H4X16221   2.488   6.805   7.387  0.3232 -0.6620 -0.1488
  147SAPE   H4Y16222   2.442   6.953   7.329  0.2407  0.2811  0.1002
  147SAPE   C3516223   2.624   6.962   7.461  0.2506 -1.2079  0.4547
  147SAPE   H5X16224   2.683   7.045   7.416  1.5797 -1.6315  1.3674
  147SAPE   H5Y16225   2.702   6.892   7.498  0.4670 -0.6680  1.0403
  147SAPE   C3616226   2.550   6.990   7.595 -0.1516  0.6298  0.2740
  147SAPE   H6X16227   2.448   6.951   7.576 -0.7356  2.4177 -0.3515
  147SAPE   H6Y16228   2.550   7.099   7.613 -0.3589  0.8545 -1.0022
  147SAPE   C3716229   2.617   6.917   7.705  0.6279 -0.2415 -0.3050
  147SAPE   H7X16230   2.727   6.931   7.702  0.8441 -2.0046 -3.2206
  147SAPE   H7Y16231   2.603   6.811   7.675  0.2142 -0.4841  0.7482
  147SAPE   C3816232   2.571   6.950   7.844 -0.5180 -0.2403 -0.0490
  147SAPE   H8X16233   2.480   6.889   7.863  0.4666 -1.3010  1.2990
  147SAPE   H8Y16234   2.535   7.055   7.839  1.6372  0.6528  2.3126
  147SAPE   C3916235   2.661   6.909   7.963 -0.0350  0.4466  0.2764
  147SAPE   H9X16236   2.756   6.966   7.954  0.2975 -0.1744 -0.2463
  147SAPE   H9Y16237   2.691   6.802   7.952 -0.7529  0.2797 -0.1179
  147SAPE  C31016238   2.582   6.923   8.093  0.4838 -0.0810  0.2875
  147SAPE  H10X16239   2.645   6.891   8.178  0.7589  2.4628  1.0866
  147SAPE  H10Y16240   2.495   6.854   8.086  1.1849 -0.9970  0.4702
  147SAPE  C31116241   2.527   7.060   8.127  0.2639  0.3880  0.0936
  147SAPE  H11X16242   2.458   7.082   8.043 -1.0432 -0.0583  1.0456
  147SAPE  H11Y16243   2.603   7.141   8.119 -0.6764  1.2133 -0.6133
  147SAPE  C31216244   2.454   7.069   8.258 -0.5197 -0.0126 -0.3960
  147SAPE  H12X16245   2.513   7.008   8.329  0.2507  1.1007 -0.0703
  147SAPE  H12Y16246   2.366   7.003   8.243  0.9283 -1.6010 -2.1820
  147SAPE  C31316247   2.405   7.207   8.297 -0.0320 -0.4966 -0.5905
  147SAPE  H13X16248   2.342   7.210   8.388  1.5933  1.3630  0.5119
  147SAPE  H13Y16249   2.347   7.245   8.210 -1.2992  3.4279  1.7865
  147SAPE  C31416250   2.526   7.318   8.318  1.0647 -0.0504  0.6068
  147SAPE  H14X16251   2.583   7.316   8.223  0.7103  0.2055  0.3841
  147SAPE  H14Y16252   2.596   7.294   8.401  0.7104 -1.0239  0.6321
  147SAPE  C31516253   2.479   7.465   8.334  0.4627 -0.0112 -0.0005
  147SAPE  H15X16254   2.402   7.483   8.255 -2.2680 -0.8819  2.3782
  147SAPE  H15Y16255   2.567   7.528   8.308  1.4034 -0.1645  2.7011
  147SAPE  C31616256   2.432   7.497   8.479  0.6106  0.4025  0.0325
  147SAPE  H16X16257   2.523   7.522   8.537  1.3184 -1.3650 -0.2851
  147SAPE  H16Y16258   2.386   7.412   8.535  2.0930 -0.6226 -0.2835
  147SAPE  C31716259   2.342   7.623   8.494 -0.4177  0.2259  0.4788
  147SAPE  H17X16260   2.253   7.608   8.430  0.1609 -0.7710 -0.1113
  147SAPE  H17Y16261   2.396   7.712   8.455 -0.4423 -0.0500 -0.1892
  147SAPE  C31816262   2.300   7.671   8.637 -0.8559 -0.0854  0.1932
  147SAPE  H18X16263   2.255   7.588   8.696  0.8544 -0.1169  1.4619
  147SAPE  H18Y16264   2.227   7.754   8.644  1.1059  1.5047  2.2447
  147SAPE  H18Z16265   2.388   7.699   8.697 -0.5848 -1.0558  0.2498
  148SAPE     N16266   1.284   4.036   6.644 -0.1373  0.9996  0.4100
  148SAPE   HN116267   1.384   4.050   6.665 -0.1076 -0.2556  1.1892
  148SAPE   HN216268   1.280   3.933   6.630  2.2151  0.7263  1.5153
  148SAPE   HN316269   1.255   4.094   6.563  1.2342  2.8263  1.2171
  148SAPE   C1216270   1.213   4.055   6.773  0.3763  0.6487 -0.2355
  148SAPE  H12A16271   1.278   4.116   6.840 -2.1624  1.9751  1.1128
  148SAPE  H12B16272   1.204   3.956   6.823 -1.4054  0.3464 -1.1181
  148SAPE   C1116273   1.070   4.119   6.745 -0.3363 -0.1869 -0.1582
  148SAPE  H11A16274   1.021   4.117   6.844 -0.6419  0.6095 -0.2923
  148SAPE  H11B16275   1.012   4.055   6.675  0.0012 -1.4441  0.6834
  148SAPE     P16276   0.964   4.345   6.664  0.1357  0.6428  0.4043
  148SAPE   O1316277   0.974   4.382   6.518 -0.1509 -0.3814 -0.2155
  148SAPE   O1416278   0.849   4.277   6.705  0.5070  0.2580 -0.2305
  148SAPE   O1216279   1.084   4.250   6.694  0.0871  0.9024 -0.5750
  148SAPE   O1116280   0.992   4.469   6.751 -0.2355 -0.1650 -0.0409
  148SAPE    C116281   1.120   4.534   6.730  0.3319 -0.7309 -0.3380
  148SAPE    HA16282   1.198   4.468   6.685 -1.0977 -1.5541 -1.6666
  148SAPE    HB16283   1.108   4.616   6.656  0.4923 -1.2384 -0.9405
  148SAPE    C216284   1.178   4.601   6.867  0.4110 -0.2347  0.3239
  148SAPE    HS16285   1.287   4.590   6.850  0.3713 -0.1145 -0.0079
  148SAPE   O2116286   1.123   4.531   6.983 -0.0666  0.1850  0.1086
  148SAPE   C2116287   1.162   4.404   6.987 -0.3866  0.0815  0.8504
  148SAPE   O2216288   1.254   4.354   6.920  0.0621 -0.1913 -0.0103
  148SAPE   C2216289   1.058   4.324   7.069 -0.1354 -0.4810 -0.5110
  148SAPE   H2R16290   1.003   4.392   7.138 -0.6017  1.6134 -2.8919
  148SAPE   H2S16291   0.987   4.283   6.995 -0.5359  0.0864 -0.4410
  148SAPE    C316292   1.147   4.750   6.886  0.0013  0.6522 -0.0125
  148SAPE    HX16293   1.043   4.763   6.848 -0.1337 -1.6590 -0.5127
  148SAPE    HY16294   1.212   4.800   6.811  0.3713 -0.0953 -0.1887
  148SAPE   O3116295   1.186   4.794   7.019  0.0903  0.1710 -0.4650
  148SAPE   C3116296   1.084   4.790   7.111 -0.7222 -0.1856  0.7605
  148SAPE   O3216297   0.970   4.773   7.089  0.3689 -0.3266  0.3429
  148SAPE   C3216298   1.154   4.836   7.234 -0.4628  0.1801 -0.4908
  148SAPE   H2X16299   1.198   4.935   7.212  1.0095 -0.5376 -0.8724
  148SAPE   H2Y16300   1.233   4.760   7.253  0.0294  0.9998  0.7619
  148SAPE   C2316301   1.117   4.207   7.150 -0.7587 -0.1791  0.6889
  148SAPE   H3R16302   1.200   4.163   7.092  0.3596  2.2145  0.4043
  148SAPE   H3S16303   1.042   4.126   7.160  0.6719 -1.6912 -0.5189
  148SAPE   C2416304   1.178   4.256   7.285 -0.2420  0.8793  0.0234
  148SAPE   H4R16305   1.217   4.162   7.328 -1.0192  0.5806  0.0862
  148SAPE   H4S16306   1.095   4.300   7.344 -0.9832 -0.0124 -0.3453
  148SAPE   C2516307   1.284   4.361   7.280  0.0469 -0.2031  0.1129
  148SAPE   H5R16308   1.352   4.343   7.196 -0.9575 -0.5833 -0.6351
  148SAPE   C2616309   1.314   4.464   7.361  0.1783 -0.3387  0.9297
  148SAPE   H6R16310   1.402   4.530   7.350 -0.0809  0.0262  1.0476
  148SAPE   C2716311   1.217   4.500   7.474  0.2436 -0.0564 -0.6379
  148SAPE   H7R16312   1.110   4.473   7.468 -0.6328  2.7411  1.1182
  148SAPE   H7S16313   1.217   4.611   7.485  0.9930  0.1539 -2.5398
  148SAPE   C2816314   1.285   4.441   7.603  0.4688 -0.4282  0.0259
  148SAPE   H8R16315   1.334   4.343   7.593 -0.0957 -0.6636 -0.3952
  148SAPE   C2916316   1.308   4.501   7.722  0.7028 -0.0142 -0.1218
  148SAPE   H9R16317   1.353   4.452   7.810  0.5449 -1.5666 -0.8957
  148SAPE  C21016318   1.260   4.641   7.744  0.0164  0.2955 -0.5303
  148SAPE  H10R16319   1.178   4.669   7.674  1.2463  1.3607 -1.5893
  148SAPE  H10S16320   1.334   4.715   7.707  1.4340  0.2604  2.1320
  148SAPE  C21116321   1.203   4.672   7.880  0.3040 -0.3543  0.3310
  148SAPE  H11R16322   1.099   4.638   7.887  0.3481 -1.0835 -2.1375
  148SAPE  C21216323   1.279   4.720   7.979 -0.7522  0.8628 -0.5038
  148SAPE  H12R16324   1.227   4.750   8.072 -0.5020 -2.7668  0.9015
  148SAPE  C21316325   1.432   4.744   7.981 -1.3275 -0.4801 -0.3776
  148SAPE  H13R16326   1.459   4.839   8.033  0.8438  0.3325 -2.9009
  148SAPE  H13S16327   1.463   4.757   7.875 -0.1824  0.7060  0.0927
  148SAPE  C21416328   1.507   4.628   8.033  0.2127 -0.4014  0.3138
  148SAPE  H14R16329   1.500   4.539   7.969  2.7953  0.3548 -1.0845
  148SAPE  C21516330   1.572   4.616   8.149  0.7131 -0.0670 -0.1713
  148SAPE  H15R16331   1.619   4.523   8.184 -2.5904 -0.8236  2.4498
  148SAPE  C21616332   1.593   4.727   8.247 -0.2922  0.4560 -0.6743
  148SAPE  H16R16333   1.524   4.719   8.333  0.6959  1.0627  0.1792
  148SAPE  H16S16334   1.591   4.817   8.181 -1.6100 -1.2108 -2.9638
  148SAPE  C21716335   1.723   4.739   8.331  0.1682 -0.3244 -0.3307
  148SAPE  H17R16336   1.730   4.845   8.363  0.2148 -0.2658 -0.5386
  148SAPE  H17S16337   1.805   4.717   8.259 -1.4301 -2.9676 -1.4471
  148SAPE  C21816338   1.727   4.644   8.451  0.0061  0.0416 -1.1124
  148SAPE  H18R16339   1.699   4.543   8.413  0.3834  0.7713 -3.3808
  148SAPE  H18S16340   1.655   4.664   8.533 -0.3614  0.1189 -1.4511
  148SAPE  C21916341   1.867   4.644   8.518  0.1316 -0.1637 -0.0709
  148SAPE  H19R16342   1.943   4.608   8.446 -0.5398 -2.4527  0.3286
  148SAPE  H19S16343   1.842   4.569   8.595 -1.6460  1.0705  0.5965
  148SAPE  C22016344   1.911   4.776   8.576 -0.2115  0.8797 -0.3714
  148SAPE  H20R16345   2.019   4.762   8.599 -0.0663  1.5160 -0.6561
  148SAPE  H20S16346   1.856   4.798   8.669  1.4476  2.9800  0.1327
  148SAPE  H20T16347   1.901   4.860   8.505 -1.7980  2.6032  1.8402
  148SAPE   C3316348   1.051   4.861   7.344 -0.8121 -0.8557 -0.1976
  148SAPE   H3X16349   1.010   4.760   7.367  4.4651 -3.0498  0.2519
  148SAPE   H3Y16350   0.967   4.916   7.297  0.8255  1.3906 -0.5579
  148SAPE   C3416351   1.104   4.916   7.476  0.2231 -1.3124 -0.2013
  148SAPE   H4X16352   1.126   5.025   7.466 -1.7754 -0.9303 -0.6445
  148SAPE   H4Y16353   1.198   4.863   7.502  0.8694  0.4109  1.0703
  148SAPE   C3516354   1.004   4.879   7.589  0.0254 -0.1809 -0.2212
  148SAPE   H5X16355   1.012   4.774   7.626  0.2633  0.1903  0.8051
  148SAPE   H5Y16356   0.899   4.892   7.555  0.3318  1.3270 -0.6336
  148SAPE   C3616357   1.021   4.968   7.711 -0.1998 -0.1471 -0.1446
  148SAPE   H6X16358   1.022   5.074   7.678 -0.6122  0.3115  1.2794
  148SAPE   H6Y16359   1.114   4.938   7.765 -1.6861 -1.9799  1.5016
  148SAPE   C3716360   0.910   4.930   7.811 -0.3749  0.4379 -0.0891
  148SAPE   H7X16361   0.922   4.826   7.849  1.1619 -1.3145 -5.0236
  148SAPE   H7Y16362   0.811   4.937   7.760 -2.0265 -0.1361  2.9073
  148SAPE   C3816363   0.888   5.011   7.935 -0.3283  0.7873 -0.3295
  148SAPE   H8X16364   0.820   4.968   8.011 -0.0653  1.6964  0.4301
  148SAPE   H8Y16365   0.838   5.106   7.904 -2.2523 -0.1930 -0.3089
  148SAPE   C3916366   1.009   5.073   8.009 -0.8555 -0.2696 -0.0122
  148SAPE   H9X16367   1.064   5.144   7.943  0.7963 -0.9420  0.6210
  148SAPE   H9Y16368   1.086   5.000   8.040 -1.2045  0.2844  2.2869
  148SAPE  C31016369   0.964   5.154   8.134 -0.3394  0.3960  0.5862
  148SAPE  H10X16370   0.891   5.235   8.114 -0.9582 -0.4115 -0.5006
  148SAPE  H10Y16371   1.048   5.204   8.187 -0.6662  2.9854 -1.2432
  148SAPE  C31116372   0.888   5.074   8.242  0.7393  0.3312 -0.3485
  148SAPE  H11X16373   0.958   4.994   8.272  0.7999  1.5423  3.0879
  148SAPE  H11Y16374   0.802   5.020   8.196  0.7584  1.2760 -1.5011
  148SAPE  C31216375   0.864   5.153   8.368 -0.5344  0.1429 -0.2294
  148SAPE  H12X16376   0.785   5.230   8.349 -1.3183 -0.4754  0.5202
  148SAPE  H12Y16377   0.957   5.205   8.398  0.2476 -1.5696  0.3230
  148SAPE  C31316378   0.828   5.058   8.482  0.5971 -0.1581 -0.2630
  148SAPE  H13X16379   0.921   5.002   8.503 -0.1096 -1.3102 -0.1864
  148SAPE  H13Y16380   0.738   4.994   8.473 -1.3963  2.0891  2.8177
  148SAPE  C31416381   0.812   5.147   8.603  0.7017  0.2886  0.6222
  148SAPE  H14X16382   0.740   5.229   8.586  0.8642  0.1427 -0.8469
  148SAPE  H14Y16383   0.911   5.197   8.611  0.8284  0.6566 -2.6631
  148SAPE  C31516384   0.786   5.083   8.740  0.1890  1.0077 -0.0997
  148SAPE  H15X16385   0.692   5.027   8.721  0.6881  0.4690 -1.0189
  148SAPE  H15Y16386   0.767   5.156   8.821  0.0735  0.8052  0.0570
  148SAPE  C31616387   0.911   4.999   8.780  0.7669  0.0626  0.0237
  148SAPE  H16X16388   0.993   5.066   8.812  0.8696  0.3307 -0.7919
  148SAPE  H16Y16389   0.942   4.924   8.704 -0.3916  1.2452 -1.6438
  148SAPE  C31716390   0.875   4.920   8.911 -0.0755 -0.1215 -0.9321
  148SAPE  H17X16391   0.974   4.887   8.948 -0.6727 -1.6632 -0.7021
  148SAPE  H17Y16392   0.815   4.835   8.874 -1.4869  0.6277 -0.4018
  148SAPE  C31816393   0.822   5.005   9.023 -0.5736 -0.6547  0.2364
  148SAPE  H18X16394   0.731   5.062   8.996  1.1777  2.1034 -0.0721
  148SAPE  H18Y16395   0.901   5.083   9.031 -1.1425 -0.0424 -0.0581
  148SAPE  H18Z16396   0.818   4.950   9.119  1.2864  2.1985  2.0303
  149SAPE     N16397   1.396   4.981   6.154 -0.2185  0.5358 -0.1229
  149SAPE   HN116398   1.359   5.043   6.229 -0.6983  0.1101 -0.0045
  149SAPE   HN216399   1.468   4.915   6.189  0.2247  0.4524 -1.1740
  149SAPE   HN316400   1.452   5.039   6.088  1.8904  0.0589  1.2293
  149SAPE   C1216401   1.281   4.927   6.073  0.3190 -0.0081  0.2656
  149SAPE  H12A16402   1.307   4.881   5.975  1.0391 -0.5646  0.7051
  149SAPE  H12B16403   1.218   5.018   6.060  0.1020 -0.1235  0.5308
  149SAPE   C1116404   1.200   4.840   6.169 -0.2117 -0.0904 -0.0609
  149SAPE  H11A16405   1.255   4.743   6.176  0.6523  0.4387  0.4984
  149SAPE  H11B16406   1.109   4.823   6.108 -1.8174  0.9234  2.0141
  149SAPE     P16407   1.080   4.832   6.395  0.3918 -0.0191  0.5481
  149SAPE   O1316408   0.936   4.837   6.369 -0.4731  0.4186  0.2520
  149SAPE   O1416409   1.147   4.704   6.414  0.2561  0.3824  0.3857
  149SAPE   O1216410   1.167   4.907   6.296  0.0485  0.2204 -0.2803
  149SAPE   O1116411   1.099   4.913   6.520 -0.2997 -0.0413  0.4119
  149SAPE    C116412   1.077   5.059   6.524  0.2851  0.4779  0.4122
  149SAPE    HA16413   1.173   5.102   6.487  0.7559  3.3035  4.5681
  149SAPE    HB16414   0.994   5.076   6.453 -1.5087 -0.3903  2.2424
  149SAPE    C216415   1.042   5.108   6.664  0.8158  0.3221 -0.1958
  149SAPE    HS16416   1.001   5.211   6.661 -1.3507 -0.5421 -1.0724
  149SAPE   O2116417   1.151   5.087   6.754 -0.3508  0.0533 -0.3984
  149SAPE   C2116418   1.236   5.188   6.743  0.0821 -0.3300 -0.4113
  149SAPE   O2216419   1.218   5.281   6.669  0.4409 -0.0610  0.5567
  149SAPE   C2216420   1.348   5.176   6.846  0.5222  0.0938  0.2735
  149SAPE   H2R16421   1.346   5.080   6.902 -1.7501  0.0630  0.1710
  149SAPE   H2S16422   1.436   5.184   6.780 -0.1196  1.4556 -0.4436
  149SAPE    C316423   0.923   5.021   6.713 -0.8303 -0.1623 -0.3174
  149SAPE    HX16424   0.956   4.915   6.710  1.8706  0.6009  1.1867
  149SAPE    HY16425   0.848   5.038   6.633 -0.7452 -0.1200 -0.3889
  149SAPE   O3116426   0.888   5.066   6.849  0.2273 -0.0646 -0.1676
  149SAPE   C3116427   0.793   4.992   6.900 -0.3795 -0.7123 -0.6183
  149SAPE   O3216428   0.725   4.906   6.846 -0.1891 -0.2641  0.2005
  149SAPE   C3216429   0.775   5.028   7.050  0.5534  1.1372  0.1366
  149SAPE   H2X16430   0.764   5.138   7.046 -2.1117  0.8806 -0.1731
  149SAPE   H2Y16431   0.870   4.984   7.087  0.3873 -0.2969 -1.0934
  149SAPE   C2316432   1.348   5.300   6.941  0.5205 -0.3080  0.5006
  149SAPE   H3R16433   1.356   5.397   6.887  0.0030  0.0443  1.0468
  149SAPE   H3S16434   1.440   5.292   7.003  2.2138  1.1520 -1.7500
  149SAPE   C2416435   1.226   5.315   7.032 -0.2655  0.3189 -0.1613
  149SAPE   H4R16436   1.132   5.334   6.978 -0.2459 -0.1229 -0.3496
  149SAPE   H4S16437   1.238   5.413   7.085  0.2915 -0.7352  1.7207
  149SAPE   C2516438   1.206   5.200   7.125 -0.7940 -0.8136  0.2616
  149SAPE   H5R16439   1.155   5.113   7.080 -2.0876  0.5914 -1.0295
  149SAPE   C2616440   1.261   5.196   7.244  0.2966  0.3248 -0.1664
  149SAPE   H6R16441   1.248   5.105   7.304 -0.2139 -1.1482 -2.4885
  149SAPE   C2716442   1.350   5.303   7.302  0.1799  0.5048 -0.2400
  149SAPE   H7R16443   1.283   5.372   7.357 -0.6664 -0.7735  0.3781
  149SAPE   H7S16444   1.402   5.366   7.227  1.2683  0.7028  0.6632
  149SAPE   C2816445   1.455   5.236   7.383  0.0201 -0.5456  0.0258
  149SAPE   H8R16446   1.514   5.157   7.333 -0.6983 -0.6627 -0.6515
  149SAPE   C2916447   1.483   5.266   7.515  0.2802 -0.0721 -0.5420
  149SAPE   H9R16448   1.567   5.224   7.572 -0.2513  0.6548  0.8340
  149SAPE  C21016449   1.407   5.377   7.588  0.1013  0.4823  0.8215
  149SAPE  H10R16450   1.395   5.465   7.521 -1.1662 -0.6857 -0.5000
  149SAPE  H10S16451   1.470   5.418   7.670  1.3588 -0.7904  0.5152
  149SAPE  C21116452   1.272   5.345   7.640  0.5326 -0.1765 -0.2482
  149SAPE  H11R16453   1.192   5.350   7.564 -0.3587 -3.6029  0.4270
  149SAPE  C21216454   1.227   5.322   7.763  0.2315 -0.1991 -0.5429
  149SAPE  H12R16455   1.121   5.304   7.784  0.1784 -1.8363 -2.0584
  149SAPE  C21316456   1.312   5.320   7.884 -0.4677 -0.2239 -0.1458
  149SAPE  H13R16457   1.400   5.258   7.857 -1.8078 -1.3546 -2.0045
  149SAPE  H13S16458   1.266   5.260   7.965 -0.3360 -0.7060 -0.4292
  149SAPE  C21416459   1.350   5.454   7.930  0.5475 -0.4233 -0.2945
  149SAPE  H14R16460   1.415   5.516   7.867  0.4532  1.0162  0.9836
  149SAPE  C21516461   1.345   5.495   8.054  1.3712 -0.4274 -0.2689
  149SAPE  H15R16462   1.380   5.598   8.071 -3.9973  1.6751 -0.9563
  149SAPE  C21616463   1.290   5.421   8.170  0.5998 -0.6966  0.4989
  149SAPE  H16R16464   1.347   5.330   8.201  1.9702  0.4634  1.4670
  149SAPE  H16S16465   1.189   5.384   8.141  0.6524  1.2914 -2.4502
  149SAPE  C21716466   1.273   5.504   8.301 -0.4140 -0.6338 -0.1456
  149SAPE  H17R16467   1.355   5.577   8.317  0.3778 -1.4298 -0.5933
  149SAPE  H17S16468   1.276   5.435   8.388 -0.3941 -1.4139 -0.7640
  149SAPE  C21816469   1.137   5.586   8.323 -0.5892  0.0447 -0.3248
  149SAPE  H18R16470   1.136   5.665   8.245 -0.7478 -1.3673 -1.7841
  149SAPE  H18S16471   1.152   5.624   8.426 -0.4878  1.9512 -1.0320
  149SAPE  C21916472   1.004   5.509   8.309 -0.2528  0.7660 -0.0217
  149SAPE  H19R16473   1.021   5.409   8.353 -0.7887 -0.3919 -2.3786
  149SAPE  H19S16474   0.988   5.498   8.200 -0.9654  0.7865  0.0801
  149SAPE  C22016475   0.882   5.570   8.366 -0.0282 -0.2449  0.2422
  149SAPE  H20R16476   0.884   5.589   8.475  1.8392  3.8694 -0.4311
  149SAPE  H20S16477   0.800   5.502   8.333  0.6590 -0.9900  0.0463
  149SAPE  H20T16478   0.870   5.668   8.315  0.6092 -0.9410 -1.2696
  149SAPE   C3316479   0.656   4.952   7.114  0.2191 -0.0614 -0.0214
  149SAPE   H3X16480   0.647   4.846   7.085  3.0144 -1.0403  2.3593
  149SAPE   H3Y16481   0.564   5.000   7.076  0.5844 -1.4962 -2.7817
  149SAPE   C3416482   0.676   4.955   7.266  0.1497  0.1506 -0.2756
  149SAPE   H4X16483   0.693   5.061   7.293  1.1047  0.5929 -2.4990
  149SAPE   H4Y16484   0.758   4.886   7.295 -2.4113 -2.4080  1.1078
  149SAPE   C3516485   0.536   4.926   7.330  0.2769  0.2095 -0.3442
  149SAPE   H5X16486   0.500   4.828   7.292 -2.3200  1.2283 -0.5846
  149SAPE   H5Y16487   0.471   5.010   7.297  2.7600  1.5612 -2.0116
  149SAPE   C3616488   0.543   4.913   7.481 -0.1435  0.7940  0.1955
  149SAPE   H6X16489   0.558   5.008   7.537 -2.5788  0.1468  2.0392
  149SAPE   H6Y16490   0.627   4.844   7.501 -0.9020 -0.3725 -0.5447
  149SAPE   C3716491   0.415   4.850   7.533 -0.0643 -0.1246 -0.8540
  149SAPE   H7X16492   0.410   4.760   7.468 -0.5306  1.9103 -3.7084
  149SAPE   H7Y16493   0.328   4.916   7.516 -1.1445 -1.2820  0.1100
  149SAPE   C3816494   0.415   4.810   7.683 -0.4015  0.6246 -0.2235
  149SAPE   H8X16495   0.313   4.781   7.715  0.5785 -1.1957  1.3027
  149SAPE   H8Y16496   0.439   4.905   7.736 -1.7563  1.0166 -0.3114
  149SAPE   C3916497   0.510   4.696   7.734 -0.1757 -0.6226  0.3884
  149SAPE   H9X16498   0.617   4.717   7.714 -0.2963 -0.2037  0.1677
  149SAPE   H9Y16499   0.489   4.605   7.675  1.0063  0.8168 -2.3406
  149SAPE  C31016500   0.492   4.655   7.879 -0.4412  0.3429 -0.2085
  149SAPE  H10X16501   0.389   4.623   7.907 -0.1879 -1.1317 -0.9097
  149SAPE  H10Y16502   0.511   4.739   7.949 -1.9613  0.2473  0.3379
  149SAPE  C31116503   0.590   4.535   7.906 -0.3036  0.4809  0.8450
  149SAPE  H11X16504   0.687   4.567   7.864  0.4406 -0.7279  1.6206
  149SAPE  H11Y16505   0.557   4.449   7.845 -1.6049  0.1994  1.8996
  149SAPE  C31216506   0.599   4.494   8.048  0.3862  0.3647 -0.3164
  149SAPE  H12X16507   0.528   4.554   8.109  1.1052  1.1449 -0.2298
  149SAPE  H12Y16508   0.694   4.509   8.104 -0.2333  2.8828  0.1467
  149SAPE  C31316509   0.559   4.344   8.083 -0.0588  0.0090 -0.4004
  149SAPE  H13X16510   0.615   4.266   8.028  1.1935  1.9324 -1.9412
  149SAPE  H13Y16511   0.454   4.342   8.047 -0.5402  0.3572  0.9380
  149SAPE  C31416512   0.583   4.315   8.233 -0.1754  0.0278 -0.5011
  149SAPE  H14X16513   0.682   4.357   8.263 -1.1025  1.8048  0.1830
  149SAPE  H14Y16514   0.584   4.206   8.251  1.8235 -0.3811 -2.8307
  149SAPE  C31516515   0.479   4.392   8.321  0.5144 -0.3440 -0.3994
  149SAPE  H15X16516   0.376   4.373   8.285  0.2617  1.2078 -0.5231
  149SAPE  H15Y16517   0.508   4.500   8.316 -3.5093  0.8452  0.1881
  149SAPE  C31616518   0.498   4.363   8.473  0.1860  1.0742 -0.1795
  149SAPE  H16X16519   0.601   4.378   8.511 -0.2612 -1.0983  2.0138
  149SAPE  H16Y16520   0.472   4.256   8.487 -1.4881  1.4908  0.0760
  149SAPE  C31716521   0.399   4.442   8.554  0.1833  0.2605 -0.7454
  149SAPE  H17X16522   0.293   4.426   8.524  0.3819  0.2363 -1.4338
  149SAPE  H17Y16523   0.427   4.548   8.534  0.5323  0.4359  0.6030
  149SAPE  C31816524   0.404   4.411   8.704 -0.0821  0.9260  0.1642
  149SAPE  H18X16525   0.337   4.324   8.725 -0.4000  0.7993 -1.2954
  149SAPE  H18Y16526   0.375   4.507   8.751  1.3802  1.4244  0.0669
  149SAPE  H18Z16527   0.508   4.391   8.737  0.3446 -0.2513 -1.8037
  150SAPE     N16528   0.136   6.445   6.526 -0.2723  0.2101  0.0679
  150SAPE   HN116529   0.037   6.446   6.492 -0.1765 -2.0068 -0.3570
  150SAPE   HN216530   0.207   6.444   6.450 -0.1687 -0.1098  0.1717
  150SAPE   HN316531   0.159   6.362   6.582 -1.1052 -0.8610 -1.1284
  150SAPE   C1216532   0.166   6.558   6.622  0.1483  0.0353  0.0135
  150SAPE  H12A16533   0.261   6.537   6.675  0.3292  1.8037  0.4183
  150SAPE  H12B16534   0.080   6.571   6.691  0.3280  0.5294  0.1472
  150SAPE   C1116535   0.168   6.691   6.540 -0.4673  0.2083  0.2248
  150SAPE  H11A16536   0.183   6.781   6.604 -0.2450 -0.8371  1.6590
  150SAPE  H11B16537   0.071   6.698   6.487 -0.3437  0.5707  0.0437
  150SAPE     P16538   0.331   6.802   6.367 -0.2075 -0.4521 -0.0166
  150SAPE   O1316539   0.388   6.752   6.241 -0.1958  0.2487 -0.6798
  150SAPE   O1416540   0.226   6.903   6.356  0.3324  0.7392  0.2193
  150SAPE   O1216541   0.274   6.691   6.449 -0.1511 -0.1492  0.4167
  150SAPE   O1116542   0.445   6.850   6.464  0.2338 -0.2949  0.3645
  150SAPE    C116543   0.422   6.908   6.594 -0.0851 -0.5204  0.2800
  150SAPE    HA16544   0.319   6.951   6.592 -0.7508 -2.0961 -0.0863
  150SAPE    HB16545   0.433   6.826   6.668  2.1878  0.1181  0.6798
  150SAPE    C216546   0.520   7.025   6.622  0.3639 -0.5201 -0.4246
  150SAPE    HS16547   0.558   7.064   6.526  1.9023 -3.3542 -1.0067
  150SAPE   O2116548   0.633   6.973   6.692 -0.6827  0.0726  0.2531
  150SAPE   C2116549   0.721   7.069   6.724 -0.2109 -0.4220 -0.4016
  150SAPE   O2216550   0.721   7.182   6.676  0.3614 -0.1180 -0.5614
  150SAPE   C2216551   0.824   7.011   6.824  0.2659 -0.9125  0.4291
  150SAPE   H2R16552   0.776   6.936   6.891 -2.4112 -0.9520 -1.4504
  150SAPE   H2S16553   0.896   6.952   6.763 -0.3056 -0.8614 -0.2970
  150SAPE    C316554   0.444   7.137   6.696  0.0337  0.0880  0.3166
  150SAPE    HX16555   0.369   7.180   6.625 -0.7553 -0.5847  0.7278
  150SAPE    HY16556   0.512   7.220   6.722  2.5248 -1.8372  0.1120
  150SAPE   O3116557   0.368   7.084   6.807  0.1792  0.3751 -0.1014
  150SAPE   C3116558   0.418   7.105   6.925  0.0160 -0.0781  0.0402
  150SAPE   O3216559   0.522   7.163   6.950 -0.1346 -0.1474 -1.0029
  150SAPE   C3216560   0.311   7.056   7.021  0.0444  0.0466  0.1400
  150SAPE   H2X16561   0.285   6.953   6.988  0.3662  0.2580 -0.7838
  150SAPE   H2Y16562   0.221   7.120   7.019  1.0194  1.4691 -4.1344
  150SAPE   C2316563   0.912   7.121   6.892 -0.0712 -0.0090 -0.0027
  150SAPE   H3R16564   0.950   7.187   6.812 -0.1485  0.1870  0.1236
  150SAPE   H3S16565   1.005   7.081   6.938  0.6557  1.7972  0.1324
  150SAPE   C2416566   0.834   7.200   7.004 -0.0179 -0.6677  0.3451
  150SAPE   H4R16567   0.751   7.250   6.949  0.0432  0.9565  1.6824
  150SAPE   H4S16568   0.892   7.290   7.035 -1.8814  0.6033  0.2265
  150SAPE   C2516569   0.768   7.134   7.120  0.9848 -0.2403 -0.1899
  150SAPE   H5R16570   0.679   7.076   7.092 -0.6947  2.4261 -0.5145
  150SAPE   C2616571   0.801   7.130   7.249 -0.1937 -0.7668 -0.1822
  150SAPE   H6R16572   0.735   7.088   7.326  0.5141  0.5043  1.1435
  150SAPE   C2716573   0.919   7.198   7.306  0.0777 -0.8495 -0.1002
  150SAPE   H7R16574   0.984   7.241   7.227  0.0663 -0.1566  0.2585
  150SAPE   H7S16575   0.981   7.122   7.358  1.5364  0.6548  0.4239
  150SAPE   C2816576   0.877   7.318   7.389  0.5719  0.1817  0.4153
  150SAPE   H8R16577   0.864   7.407   7.326  0.7250 -0.5988 -0.7388
  150SAPE   C2916578   0.846   7.328   7.519  0.6705 -0.0700  0.1242
  150SAPE   H9R16579   0.808   7.424   7.558  0.2320  0.2121 -0.9912
  150SAPE  C21016580   0.841   7.216   7.622 -0.1438  0.3659  0.3260
  150SAPE  H10R16581   0.804   7.127   7.567  0.0362 -0.6286  1.7682
  150SAPE  H10S16582   0.769   7.238   7.705 -1.6972  1.2679 -1.2272
  150SAPE  C21116583   0.980   7.184   7.678 -0.2191  0.3210 -0.2214
  150SAPE  H11R16584   1.060   7.168   7.604  0.9981  2.1289  0.6427
  150SAPE  C21216585   1.012   7.169   7.806  0.8917  0.8684  0.1252
  150SAPE  H12R16586   1.113   7.140   7.838  0.1419 -0.5876  1.2313
  150SAPE  C21316587   0.912   7.179   7.924 -0.8186 -0.1954 -0.1315
  150SAPE  H13R16588   0.935   7.099   7.998 -0.2871 -0.8169 -0.9547
  150SAPE  H13S16589   0.809   7.148   7.896 -1.0017 -0.8615  1.2581
  150SAPE  C21416590   0.891   7.306   7.980 -1.1917 -0.3141  0.6119
  150SAPE  H14R16591   0.803   7.358   7.939  0.1068  1.4436 -0.0380
  150SAPE  C21516592   0.967   7.373   8.073 -0.1699  0.4705  0.0606
  150SAPE  H15R16593   0.932   7.472   8.105  1.5307  0.5692  1.7054
  150SAPE  C21616594   1.091   7.317   8.136 -0.3119  0.0866 -0.6834
  150SAPE  H16R16595   1.164   7.401   8.130 -1.1530  0.8022 -1.0326
  150SAPE  H16S16596   1.120   7.226   8.079 -2.3121  1.1459 -3.5209
  150SAPE  C21716597   1.083   7.272   8.283 -0.4402 -0.3988 -0.7529
  150SAPE  H17R16598   1.121   7.361   8.337 -1.5345  0.5414 -1.4989
  150SAPE  H17S16599   1.162   7.200   8.310 -0.6872  0.1935  1.7106
  150SAPE  C21816600   0.948   7.232   8.341  0.0761 -0.0365  1.0836
  150SAPE  H18R16601   0.908   7.139   8.296  0.5213 -1.3415  3.3246
  150SAPE  H18S16602   0.870   7.303   8.306  0.1312 -0.6677 -0.3813
  150SAPE  C21916603   0.956   7.234   8.492 -0.6554  0.5331 -0.4916
  150SAPE  H19R16604   0.995   7.334   8.520 -0.2677  0.9478 -2.4541
  150SAPE  H19S16605   1.028   7.161   8.533 -1.3833  0.9104  1.5067
  150SAPE  C22016606   0.818   7.213   8.559 -0.2651 -0.0099 -0.1608
  150SAPE  H20R16607   0.820   7.202   8.670 -0.0220  0.5210 -0.1123
  150SAPE  H20S16608   0.787   7.117   8.511 -2.0472  0.4909 -0.0411
  150SAPE  H20T16609   0.741   7.291   8.539 -0.0977  0.3149  0.4362
  150SAPE   C3316610   0.375   7.043   7.163 -0.1827 -0.5548 -0.0240
  150SAPE   H3X16611   0.481   7.012   7.152  0.3832  1.7535 -1.5011
  150SAPE   H3Y16612   0.322   6.966   7.222 -0.1715 -0.9660 -0.5555
  150SAPE   C3416613   0.364   7.175   7.245 -0.0691  0.7318 -0.0416
  150SAPE   H4X16614   0.258   7.207   7.250 -0.5027 -0.7668  0.9536
  150SAPE   H4Y16615   0.426   7.259   7.208 -1.1729  1.0439 -1.2120
  150SAPE   C3516616   0.405   7.133   7.389  0.9496  0.3205  0.0632
  150SAPE   H5X16617   0.504   7.082   7.384  0.6428 -0.2753  0.0336
  150SAPE   H5Y16618   0.321   7.072   7.426  0.1735  0.5299 -1.3166
  150SAPE   C3616619   0.425   7.250   7.488 -0.0949 -0.1830 -0.0209
  150SAPE   H6X16620   0.330   7.306   7.495 -0.2733 -0.3952 -0.6622
  150SAPE   H6Y16621   0.502   7.326   7.460  0.3560 -0.7173 -0.2541
  150SAPE   C3716622   0.454   7.203   7.632  0.3432 -0.5478 -0.2873
  150SAPE   H7X16623   0.548   7.144   7.641  0.8645  0.3905  0.4921
  150SAPE   H7Y16624   0.374   7.130   7.659  0.4297 -1.1837 -1.6768
  150SAPE   C3816625   0.447   7.321   7.734 -0.1773 -0.4801 -0.5169
  150SAPE   H8X16626   0.343   7.359   7.730  0.4712  1.2485 -1.0541
  150SAPE   H8Y16627   0.515   7.401   7.699 -0.4792  0.5344  1.1783
  150SAPE   C3916628   0.472   7.278   7.881 -0.2221  0.3524  0.9524
  150SAPE   H9X16629   0.581   7.262   7.892 -0.1123  1.0947  1.0111
  150SAPE   H9Y16630   0.409   7.188   7.899  0.3127 -0.2513 -0.1795
  150SAPE  C31016631   0.443   7.391   7.978 -0.6055  0.1112  0.0874
  150SAPE  H10X16632   0.345   7.445   7.971 -1.9793 -2.0768  1.7986
  150SAPE  H10Y16633   0.519   7.470   7.964  0.1435 -0.7225 -0.5898
  150SAPE  C31116634   0.463   7.342   8.123 -0.6219  0.2049  0.4115
  150SAPE  H11X16635   0.568   7.316   8.150 -1.0298 -4.0514 -1.6825
  150SAPE  H11Y16636   0.391   7.258   8.123 -0.2969 -0.1092 -2.2646
  150SAPE  C31216637   0.402   7.441   8.228 -0.4802  0.4478  0.4004
  150SAPE  H12X16638   0.311   7.487   8.186 -0.6570 -0.0426  0.2409
  150SAPE  H12Y16639   0.480   7.519   8.239  0.8126 -0.3636 -2.3261
  150SAPE  C31316640   0.378   7.374   8.363 -0.3566 -0.0699  0.1162
  150SAPE  H13X16641   0.479   7.348   8.402 -0.4308 -0.8874 -0.2241
  150SAPE  H13Y16642   0.321   7.280   8.355 -1.4064  0.6521 -1.0066
  150SAPE  C31416643   0.313   7.468   8.472 -0.1561 -0.0832  0.0229
  150SAPE  H14X16644   0.354   7.571   8.460 -1.5717  0.4047 -0.7970
  150SAPE  H14Y16645   0.351   7.414   8.561  1.4765  2.3770  0.8635
  150SAPE  C31516646   0.158   7.487   8.471 -0.3002  1.1741 -0.4278
  150SAPE  H15X16647   0.128   7.503   8.576  0.5869  0.0500  0.0049
  150SAPE  H15Y16648   0.117   7.392   8.431  2.0271 -0.1419  0.2395
  150SAPE  C31616649   0.120   7.602   8.387 -0.8194 -0.1713  0.5859
  150SAPE  H16X16650   0.161   7.596   8.284 -0.7074 -0.3867  0.6433
  150SAPE  H16Y16651   0.161   7.694   8.434  0.0758 -0.4490  0.3494
  150SAPE  C31716652  -0.032   7.625   8.365  0.4508 -0.8847 -0.3719
  150SAPE  H17X16653  -0.073   7.540   8.307  3.5609 -2.5925 -0.1378
  150SAPE  H17Y16654  -0.054   7.717   8.306 -0.0919 -0.7952 -0.0361
  150SAPE  C31816655  -0.109   7.649   8.492 -0.0024 -0.1552 -0.6570
  150SAPE  H18X16656  -0.213   7.682   8.475 -0.5648 -2.3684 -1.7010
  150SAPE  H18Y16657  -0.066   7.729   8.556  0.2063 -0.4383 -0.4411
  150SAPE  H18Z16658  -0.128   7.554   8.545 -0.1113 -0.5926 -1.4662
  151SAPE     N16659   2.978   4.227   5.846 -0.6189 -0.2536 -0.5504
  151SAPE   HN116660   3.051   4.300   5.837 -1.2509  0.1499 -2.9014
  151SAPE   HN216661   2.957   4.172   5.760  0.1117 -1.3011 -0.0650
  151SAPE   HN316662   2.886   4.273   5.863 -1.8000 -3.1001  1.0678
  151SAPE   C1216663   3.001   4.141   5.959  0.7409 -0.2837  0.5968
  151SAPE  H12A16664   3.022   4.188   6.057 -1.0421 -0.2826  0.9833
  151SAPE  H12B16665   3.095   4.083   5.945  1.0234  0.5004 -0.8915
  151SAPE   C1116666   2.881   4.043   5.977  0.4757  0.8096  0.2298
  151SAPE  H11A16667   2.925   3.978   6.056  0.0330 -0.6480 -0.6940
  151SAPE  H11B16668   2.857   3.966   5.900 -1.2555 -0.3218  1.8511
  151SAPE     P16669   2.674   4.064   6.138 -0.3187  0.3963  0.3074
  151SAPE   O1316670   2.551   4.142   6.139 -0.3174 -0.3564 -0.2204
  151SAPE   O1416671   2.652   3.916   6.146 -0.0068  0.4683  0.5392
  151SAPE   O1216672   2.757   4.110   6.011  0.5408  0.3139 -0.2874
  151SAPE   O1116673   2.768   4.098   6.262  0.0900  0.0270 -0.0411
  151SAPE    C116674   2.759   4.236   6.310  0.3711 -0.3986  0.0109
  151SAPE    HA16675   2.732   4.315   6.237  0.3699  0.3288  0.7879
  151SAPE    HB16676   2.671   4.243   6.378 -0.6319  1.2329 -1.4151
  151SAPE    C216677   2.877   4.264   6.398 -0.0163 -0.8486  0.3588
  151SAPE    HS16678   2.967   4.224   6.347  0.1458  1.1440 -1.0033
  151SAPE   O2116679   2.848   4.206   6.525  0.4280  0.3872  0.2096
  151SAPE   C2116680   2.957   4.176   6.591  0.8092 -0.1315 -0.1971
  151SAPE   O2216681   3.074   4.190   6.558 -0.0525 -0.0553  0.0749
  151SAPE   C2216682   2.916   4.120   6.729 -0.3141 -0.4048  0.6597
  151SAPE   H2R16683   2.984   4.177   6.796  0.1406  0.3119 -0.4022
  151SAPE   H2S16684   2.808   4.146   6.732 -0.1164  0.3958  1.0381
  151SAPE    C316685   2.888   4.421   6.403  0.4507 -0.1095 -0.1582
  151SAPE    HX16686   2.791   4.462   6.366  0.6607 -0.6314 -1.3071
  151SAPE    HY16687   2.967   4.456   6.334  1.0262 -0.3193  0.3864
  151SAPE   O3116688   2.919   4.473   6.540 -0.5172  0.2834 -0.1806
  151SAPE   C3116689   2.810   4.487   6.618 -0.0402 -0.3188 -0.4889
  151SAPE   O3216690   2.699   4.453   6.586 -0.2314  0.3160 -0.0440
  151SAPE   C3216691   2.835   4.532   6.766  0.0059  0.2153 -0.3340
  151SAPE   H2X16692   2.772   4.624   6.770  1.0156  1.0021 -2.0205
  151SAPE   H2Y16693   2.944   4.551   6.764 -0.1481  1.3822  1.2547
  151SAPE   C2316694   2.934   3.966   6.739 -0.2645  0.0550 -0.3105
  151SAPE   H3R16695   3.033   3.943   6.695 -0.6028 -0.7147 -0.6875
  151SAPE   H3S16696   2.862   3.925   6.665  0.7255 -1.7330 -0.2972
  151SAPE   C2416697   2.918   3.910   6.873 -0.1216  0.0050  0.0544
  151SAPE   H4R16698   2.912   3.799   6.866 -1.0442  0.0828 -0.4214
  151SAPE   H4S16699   2.819   3.947   6.908 -0.0811  1.4246 -1.2982
  151SAPE   C2516700   3.032   3.941   6.972  0.4753 -0.2461 -0.3590
  151SAPE   H5R16701   3.124   3.961   6.916 -0.5832  0.9705 -1.7399
  151SAPE   C2616702   3.024   3.956   7.105 -0.2126  0.4947  0.8054
  151SAPE   H6R16703   3.114   3.981   7.164  1.0563  0.5759 -1.1229
  151SAPE   C2716704   2.903   3.953   7.193  0.5244  0.2673 -0.2880
  151SAPE   H7R16705   2.810   3.980   7.139 -0.6812 -0.5078  1.3559
  151SAPE   H7S16706   2.915   4.035   7.267  2.6575  0.1686 -0.5039
  151SAPE   C2816707   2.868   3.816   7.243 -0.3393 -0.0944  0.2319
  151SAPE   H8R16708   2.855   3.745   7.161  0.1899  0.5248 -0.3937
  151SAPE   C2916709   2.853   3.782   7.373 -0.6424  0.2022  0.4170
  151SAPE   H9R16710   2.827   3.678   7.396 -0.7336  0.3459  0.9470
  151SAPE  C21016711   2.866   3.866   7.497  0.4815  0.4093  0.6099
  151SAPE  H10R16712   2.966   3.914   7.493  0.1418  1.0132 -1.1058
  151SAPE  H10S16713   2.868   3.805   7.590  1.4318  0.4086  0.5919
  151SAPE  C21116714   2.764   3.981   7.501  0.1193 -0.5889 -0.0425
  151SAPE  H11R16715   2.709   4.003   7.409  1.5725  0.3946 -0.6963
  151SAPE  C21216716   2.727   4.056   7.611  0.1249 -0.5125  0.7603
  151SAPE  H12R16717   2.668   4.145   7.586 -0.5167 -1.4531 -1.1654
  151SAPE  C21316718   2.788   4.039   7.753  0.2892 -0.3992  0.0998
  151SAPE  H13R16719   2.898   4.031   7.745  0.2765 -2.4192  1.6468
  151SAPE  H13S16720   2.750   3.943   7.793 -3.7933  0.6686 -0.9551
  151SAPE  C21416721   2.748   4.163   7.836 -0.7785 -0.1621 -0.1453
  151SAPE  H14R16722   2.785   4.256   7.791 -1.9116  0.6935  0.6436
  151SAPE  C21516723   2.667   4.162   7.944 -0.1529  0.3765  0.2233
  151SAPE  H15R16724   2.643   4.262   7.984 -0.2240  0.1612  0.7335
  151SAPE  C21616725   2.617   4.037   8.012  0.1879  0.7287 -0.3349
  151SAPE  H16R16726   2.567   3.974   7.935  1.1297 -0.5872  0.1110
  151SAPE  H16S16727   2.534   4.064   8.080  1.6891  0.7403  1.5243
  151SAPE  C21716728   2.724   3.966   8.099 -0.0595  0.5390 -0.6249
  151SAPE  H17R16729   2.806   3.928   8.035  0.5323 -1.2910  1.1639
  151SAPE  H17S16730   2.672   3.876   8.139 -0.8144  2.2800  2.5046
  151SAPE  C21816731   2.803   4.050   8.212  0.2303  0.4404 -0.4153
  151SAPE  H18R16732   2.848   4.141   8.167 -1.2393  1.9502  1.0673
  151SAPE  H18S16733   2.877   3.977   8.251 -0.7703 -0.2761  0.1822
  151SAPE  C21916734   2.708   4.102   8.327 -0.0897 -0.5973 -0.9483
  151SAPE  H19R16735   2.772   4.123   8.416 -0.4920  2.2551 -1.2749
  151SAPE  H19S16736   2.639   4.020   8.355  0.0437  0.3838  2.4615
  151SAPE  C22016737   2.629   4.238   8.307 -0.7528  0.3305 -0.1706
  151SAPE  H20R16738   2.579   4.269   8.401  0.5352 -1.4765  1.1408
  151SAPE  H20S16739   2.711   4.307   8.276 -0.2915 -0.6566 -1.1926
  151SAPE  H20T16740   2.550   4.219   8.230  0.2763  1.2166 -1.4722
  151SAPE   C3316741   2.785   4.430   6.869  0.7136 -0.1248 -0.8153
  151SAPE   H3X16742   2.848   4.339   6.865 -0.4495 -1.1298  2.0336
  151SAPE   H3Y16743   2.681   4.399   6.843 -0.2326  2.2616 -0.0741
  151SAPE   C3416744   2.792   4.487   7.011 -0.2371  0.2845  0.1223
  151SAPE   H4X16745   2.726   4.576   7.019 -0.1566  0.4805 -1.2900
  151SAPE   H4Y16746   2.899   4.512   7.026 -0.2721  0.6052 -0.1763
  151SAPE   C3516747   2.757   4.375   7.113 -0.1711  0.2117 -0.3182
  151SAPE   H5X16748   2.824   4.288   7.104 -0.2783  0.1678 -0.7030
  151SAPE   H5Y16749   2.655   4.343   7.083  0.4175  0.6696 -2.8616
  151SAPE   C3616750   2.758   4.438   7.259 -0.0116  0.0322  0.1318
  151SAPE   H6X16751   2.727   4.544   7.254 -0.0635  0.1238  2.0051
  151SAPE   H6Y16752   2.859   4.436   7.305 -0.2128 -1.2824  0.5324
  151SAPE   C3716753   2.673   4.372   7.362  0.1262 -0.1392 -0.3620
  151SAPE   H7X16754   2.680   4.261   7.352 -1.0147 -0.1745 -0.8449
  151SAPE   H7Y16755   2.568   4.394   7.334  0.9034  3.0487 -0.8972
  151SAPE   C3816756   2.699   4.413   7.508  0.5977  0.5248 -0.8506
  151SAPE   H8X16757   2.800   4.376   7.539  0.1450  0.6798  0.8843
  151SAPE   H8Y16758   2.628   4.348   7.563 -0.0668  0.0153 -2.3103
  151SAPE   C3916759   2.684   4.565   7.527  0.2180 -0.5859 -0.4488
  151SAPE   H9X16760   2.582   4.598   7.499  0.6486 -0.6205 -2.0862
  151SAPE   H9Y16761   2.758   4.617   7.464  0.0660  3.2332  2.3581
  151SAPE  C31016762   2.712   4.594   7.680  0.0549  0.1367 -0.2914
  151SAPE  H10X16763   2.814   4.565   7.714 -1.3074 -0.0314  3.8620
  151SAPE  H10Y16764   2.643   4.529   7.738  0.5489 -0.8100 -0.7394
  151SAPE  C31116765   2.681   4.738   7.726 -0.5825 -0.2130 -0.4760
  151SAPE  H11X16766   2.573   4.750   7.702 -0.8279 -2.3094 -0.5021
  151SAPE  H11Y16767   2.746   4.810   7.672 -0.0962 -0.3816 -0.1194
  151SAPE  C31216768   2.712   4.775   7.872  0.5470  0.5206 -0.1662
  151SAPE  H12X16769   2.653   4.709   7.939 -0.7173  2.8855  1.0978
  151SAPE  H12Y16770   2.687   4.880   7.897 -0.7146  0.7294 -2.1932
  151SAPE  C31316771   2.866   4.756   7.905 -0.2752 -0.1037 -0.1932
  151SAPE  H13X16772   2.906   4.818   7.822 -0.8248  1.6138  0.7997
  151SAPE  H13Y16773   2.896   4.649   7.896  1.1584  0.1587  1.2629
  151SAPE  C31416774   2.901   4.807   8.043 -0.3459  0.0933 -0.7729
  151SAPE  H14X16775   2.895   4.916   8.026 -2.9443 -0.3800 -3.4923
  151SAPE  H14Y16776   3.004   4.779   8.073 -0.1547  2.4049  0.8083
  151SAPE  C31516777   2.793   4.766   8.152 -0.8178  0.3480  0.6409
  151SAPE  H15X16778   2.762   4.662   8.130 -0.0228  0.0884  0.7409
  151SAPE  H15Y16779   2.701   4.822   8.123 -1.6196 -0.8863  0.7616
  151SAPE  C31616780   2.841   4.803   8.299  0.4676  0.2684 -0.1579
  151SAPE  H16X16781   2.893   4.901   8.311 -1.2392  1.0863  0.7087
  151SAPE  H16Y16782   2.924   4.735   8.329 -3.1124 -4.0135  0.5224
  151SAPE  C31716783   2.727   4.798   8.400  0.8512  0.4657 -0.5172
  151SAPE  H17X16784   2.649   4.877   8.389  0.9557  0.7054  0.5055
  151SAPE  H17Y16785   2.765   4.818   8.502 -0.6446  2.6422 -0.3434
  151SAPE  C31816786   2.662   4.665   8.400  0.0411  0.3239 -0.7273
  151SAPE  H18X16787   2.597   4.651   8.489  2.0811  1.1484  0.9349
  151SAPE  H18Y16788   2.742   4.587   8.402 -0.5490 -0.2716  0.7352
  151SAPE  H18Z16789   2.599   4.654   8.309  0.2995 -2.0391 -0.6647
  152SAPE     N16790   6.214   0.934   6.385  0.4079  0.8215  0.0099
  152SAPE   HN116791   6.264   0.846   6.408  0.2916  0.4900 -0.9832
  152SAPE   HN216792   6.237   1.007   6.456 -0.3173 -0.0767  1.1842
  152SAPE   HN316793   6.110   0.924   6.387  0.4964 -0.7077 -1.6855
  152SAPE   C1216794   6.269   0.981   6.252  0.1887 -0.8173  1.0346
  152SAPE  H12A16795   6.190   1.047   6.210  1.4354  0.1942  0.2150
  152SAPE  H12B16796   6.273   0.896   6.181 -1.7139 -2.8398  3.2772
  152SAPE   C1116797   6.397   1.065   6.250  0.0757  0.4160 -0.7153
  152SAPE  H11A16798   6.384   1.161   6.303 -0.1095 -0.0401  0.0730
  152SAPE  H11B16799   6.425   1.088   6.145  1.4725  2.7457  0.1391
  152SAPE     P16800   6.614   0.901   6.248 -0.0111 -0.0144 -0.2721
  152SAPE   O1316801   6.560   0.793   6.157 -0.0721  0.5214  0.2353
  152SAPE   O1416802   6.719   0.985   6.181  0.8338  0.3928  0.0154
  152SAPE   O1216803   6.508   0.994   6.314  0.3282  0.6236  0.3492
  152SAPE   O1116804   6.675   0.820   6.367 -0.9096 -0.4268  0.3092
  152SAPE    C116805   6.735   0.884   6.478  0.5814 -0.1730  0.2161
  152SAPE    HA16806   6.835   0.839   6.496  1.4347  1.7813  0.3969
  152SAPE    HB16807   6.765   0.989   6.464 -1.9941  0.7293  1.1420
  152SAPE    C216808   6.642   0.878   6.593  0.1219  0.0343 -0.4388
  152SAPE    HS16809   6.549   0.925   6.556  0.2234  1.4273  0.9918
  152SAPE   O2116810   6.704   0.951   6.701  0.2820 -0.2388  0.4240
  152SAPE   C2116811   6.622   1.030   6.774  0.1340 -0.3229  0.0301
  152SAPE   O2216812   6.505   1.045   6.754  0.3285 -0.4691 -0.0947
  152SAPE   C2216813   6.695   1.074   6.910  0.3707 -0.3110  0.6327
  152SAPE   H2R16814   6.725   0.984   6.968 -0.8360 -1.1235  0.0295
  152SAPE   H2S16815   6.792   1.119   6.881  0.2712 -0.4897  0.0043
  152SAPE    C316816   6.609   0.734   6.639 -0.4957 -0.2644  0.9289
  152SAPE    HX16817   6.708   0.691   6.665 -0.2828  0.6524  1.6442
  152SAPE    HY16818   6.562   0.679   6.555  1.5660 -1.6954  0.6612
  152SAPE   O3116819   6.525   0.741   6.754 -0.4955  0.0319 -0.6828
  152SAPE   C3116820   6.394   0.772   6.736  0.3365 -0.0149 -0.1909
  152SAPE   O3216821   6.351   0.804   6.629  0.1187  0.2805  0.7093
  152SAPE   C3216822   6.325   0.783   6.871 -0.1034  0.3839  0.0835
  152SAPE   H2X16823   6.253   0.698   6.871  0.0606  0.2434  1.2629
  152SAPE   H2Y16824   6.263   0.875   6.876  1.0766  1.2352 -0.5765
  152SAPE   C2316825   6.605   1.157   7.001  0.0084  0.1470 -0.1813
  152SAPE   H3R16826   6.535   1.088   7.053 -2.9551  3.9604  1.1646
  152SAPE   H3S16827   6.545   1.224   6.937  0.9196  1.4917  0.3444
  152SAPE   C2416828   6.677   1.250   7.096 -0.9920  0.9244 -0.7730
  152SAPE   H4R16829   6.588   1.309   7.125 -1.8004 -1.3895  1.6521
  152SAPE   H4S16830   6.748   1.325   7.055  1.1317  2.6105  5.3752
  152SAPE   C2516831   6.735   1.192   7.224  0.3683  0.2101 -0.1469
  152SAPE   H5R16832   6.811   1.115   7.206  2.1871  1.0907  3.3596
  152SAPE   C2616833   6.699   1.235   7.348 -0.3423 -0.6639 -0.1940
  152SAPE   H6R16834   6.738   1.190   7.441 -0.7367  0.2717  0.4434
  152SAPE   C2716835   6.613   1.363   7.380  0.2589  0.3222  0.0793
  152SAPE   H7R16836   6.569   1.364   7.482 -2.0808 -2.4247 -0.8284
  152SAPE   H7S16837   6.524   1.368   7.314  0.2732 -0.2073  0.0145
  152SAPE   C2816838   6.686   1.492   7.362 -0.8816  0.4263 -0.0182
  152SAPE   H8R16839   6.752   1.494   7.273 -0.0661 -0.3614  0.5593
  152SAPE   C2916840   6.689   1.599   7.448  0.2296 -0.1404  0.3143
  152SAPE   H9R16841   6.756   1.682   7.423  0.4171 -0.7860 -1.3872
  152SAPE  C21016842   6.614   1.624   7.585 -0.9921 -0.6181  0.0298
  152SAPE  H10R16843   6.517   1.571   7.576 -2.6654  1.8362  2.6340
  152SAPE  H10S16844   6.578   1.727   7.607 -0.7375 -0.9292  2.0249
  152SAPE  C21116845   6.695   1.558   7.693 -0.5912 -0.7057 -0.1249
  152SAPE  H11R16846   6.767   1.481   7.664  0.4887  0.8350 -1.6470
  152SAPE  C21216847   6.687   1.594   7.823 -0.3153  0.2935  0.2457
  152SAPE  H12R16848   6.754   1.542   7.894 -1.7610 -1.0058  0.7157
  152SAPE  C21316849   6.606   1.693   7.894  0.3763  0.0579  0.1953
  152SAPE  H13R16850   6.599   1.658   7.999  0.9862 -4.0410 -1.0395
  152SAPE  H13S16851   6.506   1.693   7.845 -0.5282 -0.1344  2.0235
  152SAPE  C21416852   6.657   1.834   7.888  0.3224  0.4380  0.0576
  152SAPE  H14R16853   6.637   1.895   7.798 -3.7448 -0.5153  0.1921
  152SAPE  C21516854   6.739   1.883   7.984  0.3032  0.7573  0.0689
  152SAPE  H15R16855   6.779   1.984   7.967 -1.3871  1.7479  1.8384
  152SAPE  C21616856   6.793   1.813   8.108 -0.2370 -0.4402 -0.4438
  152SAPE  H16R16857   6.902   1.838   8.106 -0.6559  1.3996 -1.3115
  152SAPE  H16S16858   6.785   1.703   8.095 -0.0316 -0.1927 -2.9458
  152SAPE  C21716859   6.722   1.873   8.231 -0.1495 -0.3103  0.0702
  152SAPE  H17R16860   6.614   1.861   8.208 -0.0731  0.2764 -0.6255
  152SAPE  H17S16861   6.755   1.979   8.233 -0.5715 -0.2072  1.9654
  152SAPE  C21816862   6.772   1.798   8.359  0.0795  0.0918 -0.2387
  152SAPE  H18R16863   6.878   1.828   8.374  0.5709 -1.5951 -0.2067
  152SAPE  H18S16864   6.761   1.691   8.332 -1.7160 -0.0358  0.9322
  152SAPE  C21916865   6.693   1.835   8.488 -0.3768  0.2759  0.2390
  152SAPE  H19R16866   6.697   1.945   8.505  0.7671  0.1892  0.5386
  152SAPE  H19S16867   6.760   1.802   8.570  1.7162  0.4909 -1.3375
  152SAPE  C22016868   6.550   1.778   8.495 -0.2152 -0.6006  0.0231
  152SAPE  H20R16869   6.517   1.808   8.596 -2.0233  2.6461 -1.4649
  152SAPE  H20S16870   6.551   1.666   8.492  0.7640 -0.6324  1.1203
  152SAPE  H20T16871   6.485   1.834   8.425 -2.1440 -0.0406  2.2029
  152SAPE   C3316872   6.418   0.789   6.998 -0.3219 -0.3861  0.2823
  152SAPE   H3X16873   6.486   0.876   6.992 -0.3068 -0.3596  0.8007
  152SAPE   H3Y16874   6.477   0.696   7.005  2.2319  1.2266  0.9723
  152SAPE   C3416875   6.351   0.812   7.136  0.4995 -0.7419 -0.5798
  152SAPE   H4X16876   6.276   0.732   7.151 -1.3553  1.2157  0.8160
  152SAPE   H4Y16877   6.288   0.901   7.155  0.9891 -0.5881  0.3592
  152SAPE   C3516878   6.445   0.814   7.254 -0.3083 -0.0291 -0.4117
  152SAPE   H5X16879   6.536   0.868   7.222  0.4100 -0.3704  0.9945
  152SAPE   H5Y16880   6.479   0.710   7.274 -0.4961  0.0089  0.1256
  152SAPE   C3616881   6.404   0.901   7.379  0.4109 -0.3170 -0.9164
  152SAPE   H6X16882   6.331   0.848   7.443  1.7477  0.0689  0.9657
  152SAPE   H6Y16883   6.363   0.999   7.346 -0.2873 -0.5519 -0.7419
  152SAPE   C3716884   6.525   0.930   7.467  0.0522 -0.2032  0.2425
  152SAPE   H7X16885   6.595   0.990   7.404  1.3615  1.1509  2.9134
  152SAPE   H7Y16886   6.574   0.839   7.508 -0.2665  0.0952  1.2736
  152SAPE   C3816887   6.494   1.029   7.583 -0.1094 -0.4591 -0.2343
  152SAPE   H8X16888   6.437   1.111   7.536  0.8186 -0.5074 -1.4749
  152SAPE   H8Y16889   6.587   1.078   7.620 -0.8875 -0.5452  1.9079
  152SAPE   C3916890   6.438   0.959   7.707  0.2559 -0.4283  0.1418
  152SAPE   H9X16891   6.477   0.856   7.721  1.0530  0.0857  1.7753
  152SAPE   H9Y16892   6.328   0.946   7.705  0.3833 -1.5283  0.2763
  152SAPE  C31016893   6.458   1.041   7.839  0.1865  0.3650 -0.9104
  152SAPE  H10X16894   6.416   1.142   7.815  0.2574  0.7006  0.3373
  152SAPE  H10Y16895   6.567   1.034   7.858  0.1671 -2.4682 -1.6158
  152SAPE  C31116896   6.396   0.978   7.966 -0.2403  0.4196 -0.4113
  152SAPE  H11X16897   6.285   0.982   7.969 -0.2877  1.8624 -2.6408
  152SAPE  H11Y16898   6.431   1.040   8.052 -1.8466  1.0407 -0.1945
  152SAPE  C31216899   6.450   0.842   8.005 -0.0386  0.7770  0.1366
  152SAPE  H12X16900   6.559   0.835   7.986 -0.3379  0.1015 -1.4035
  152SAPE  H12Y16901   6.410   0.760   7.942 -0.0736  0.5471  0.4575
  152SAPE  C31316902   6.432   0.807   8.153  0.1200  0.0360 -1.0421
  152SAPE  H13X16903   6.452   0.896   8.217  0.8719 -2.3392  2.1804
  152SAPE  H13Y16904   6.495   0.720   8.178 -0.7841  0.1160  1.6700
  152SAPE  C31416905   6.286   0.784   8.179 -0.2016  0.1186  0.9753
  152SAPE  H14X16906   6.269   0.700   8.108 -0.5140  0.3264  0.8103
  152SAPE  H14Y16907   6.230   0.879   8.167  0.3359  0.3963  0.6090
  152SAPE  C31516908   6.259   0.743   8.323  0.6723 -0.4218 -0.4004
  152SAPE  H15X16909   6.292   0.828   8.387  0.9212 -1.3670  0.7468
  152SAPE  H15Y16910   6.313   0.648   8.340  1.0026 -0.7282 -2.9406
  152SAPE  C31616911   6.106   0.709   8.349 -0.7146  0.2900 -0.3178
  152SAPE  H16X16912   6.066   0.642   8.269  3.6911  0.5615 -2.8728
  152SAPE  H16Y16913   6.044   0.801   8.342 -3.4981 -1.3299  1.8880
  152SAPE  C31716914   6.094   0.635   8.486 -0.1318  0.0829 -0.3039
  152SAPE  H17X16915   6.166   0.688   8.552  0.4320 -2.8271  1.4857
  152SAPE  H17Y16916   6.145   0.536   8.481 -0.4575 -0.1679  1.1348
  152SAPE  C31816917   5.950   0.627   8.537 -0.3506  0.3084  0.0786
  152SAPE  H18X16918   5.915   0.522   8.533 -3.1061  1.1235  1.3023
  152SAPE  H18Y16919   5.895   0.693   8.467 -0.0732  0.3628 -0.0872
  152SAPE  H18Z16920   5.960   0.668   8.640  1.1720  0.6297 -0.1887
  153SAPE     N16921   2.868   0.624   6.408 -0.4123 -0.2915  0.0358
  153SAPE   HN116922   2.965   0.626   6.371 -0.2076 -2.1162  0.4102
  153SAPE   HN216923   2.870   0.555   6.485  2.3704 -0.3435 -0.0419
  153SAPE   HN316924   2.805   0.585   6.334  1.2085 -2.1418 -0.3885
  153SAPE   C1216925   2.836   0.762   6.466 -0.5518 -1.0179  0.2703
  153SAPE  H12A16926   2.934   0.808   6.493 -0.5871 -2.0816  2.2512
  153SAPE  H12B16927   2.778   0.755   6.560  1.0004 -0.4005  1.2941
  153SAPE   C1116928   2.768   0.846   6.360  0.0860 -0.3685  0.9472
  153SAPE  H11A16929   2.726   0.937   6.409  0.3509 -1.7636  3.8791
  153SAPE  H11B16930   2.673   0.795   6.337 -0.4462  0.5164  1.1391
  153SAPE     P16931   2.915   1.005   6.214 -0.2714 -0.0884  0.0458
  153SAPE   O1316932   3.059   0.991   6.236  0.6391  0.7520 -0.7377
  153SAPE   O1416933   2.869   1.054   6.086  0.2879  0.0635  0.1595
  153SAPE   O1216934   2.845   0.873   6.241  0.4059  0.3556  0.5453
  153SAPE   O1116935   2.860   1.102   6.327  0.1508 -0.0843  0.0760
  153SAPE    C116936   2.877   1.241   6.306 -0.2863 -0.8106  0.2743
  153SAPE    HA16937   2.980   1.267   6.272 -0.6026 -0.6534 -0.5852
  153SAPE    HB16938   2.803   1.278   6.232 -0.4808 -1.2722  0.2390
  153SAPE    C216939   2.846   1.311   6.440  0.3289 -0.2162  0.2703
  153SAPE    HS16940   2.895   1.411   6.444  0.0235 -0.0970  1.2058
  153SAPE   O2116941   2.892   1.226   6.551 -0.5121 -0.1719  0.0279
  153SAPE   C2116942   3.020   1.206   6.555 -0.6504 -0.4513 -0.7455
  153SAPE   O2216943   3.104   1.268   6.489  0.0712 -0.3460 -0.1264
  153SAPE   C2216944   3.052   1.104   6.671  0.1791 -0.6467  0.6170
  153SAPE   H2R16945   2.990   1.016   6.644 -0.5169  0.6648 -2.2232
  153SAPE   H2S16946   3.159   1.077   6.684  0.2209 -0.8026 -0.0235
  153SAPE    C316947   2.690   1.331   6.441 -0.2437 -0.6572  0.3287
  153SAPE    HX16948   2.634   1.256   6.381  1.1795  0.9205 -3.1192
  153SAPE    HY16949   2.663   1.416   6.376 -0.7648 -1.4168 -0.4630
  153SAPE   O3116950   2.638   1.342   6.570 -0.5353 -0.0508 -0.3772
  153SAPE   C3116951   2.634   1.467   6.615 -0.5556 -0.2216 -0.1634
  153SAPE   O3216952   2.679   1.563   6.555 -0.0726 -0.2463 -1.0020
  153SAPE   C3216953   2.563   1.463   6.753  0.7754  0.5005 -0.2950
  153SAPE   H2X16954   2.468   1.409   6.736  1.2419 -0.2732 -0.4734
  153SAPE   H2Y16955   2.542   1.568   6.781 -0.1384 -0.1290  1.4202
  153SAPE   C2316956   2.991   1.149   6.807 -0.5113  0.2599 -1.1584
  153SAPE   H3R16957   3.000   1.068   6.882  0.2721  0.7737 -0.6910
  153SAPE   H3S16958   2.883   1.173   6.804 -0.5870  0.0289 -0.2539
  153SAPE   C2416959   3.066   1.271   6.853  0.4132 -0.3786  0.0253
  153SAPE   H4R16960   3.090   1.347   6.775  1.3753  0.4060  1.0783
  153SAPE   H4S16961   3.166   1.230   6.876  0.1932 -1.3334 -0.6991
  153SAPE   C2516962   2.999   1.331   6.976 -0.4879  0.2758  0.4009
  153SAPE   H5R16963   2.889   1.327   6.970 -0.5479  1.3849  0.6695
  153SAPE   C2616964   3.055   1.381   7.089  0.7201 -0.2199 -0.6496
  153SAPE   H6R16965   2.989   1.408   7.173 -0.6175 -0.7881 -1.5116
  153SAPE   C2716966   3.200   1.395   7.116  0.1287  0.0185  0.3859
  153SAPE   H7R16967   3.219   1.497   7.154 -1.9164  0.6684 -0.2715
  153SAPE   H7S16968   3.256   1.382   7.020  2.4535  0.3242  1.6740
  153SAPE   C2816969   3.261   1.289   7.208 -0.3428 -0.3329  0.0414
  153SAPE   H8R16970   3.227   1.184   7.198  0.4470 -0.7704  1.7981
  153SAPE   C2916971   3.352   1.310   7.310 -0.5078 -0.4093  0.4973
  153SAPE   H9R16972   3.377   1.220   7.368 -0.2632  1.1736  2.9374
  153SAPE  C21016973   3.420   1.438   7.351  0.5094 -0.1324 -0.1189
  153SAPE  H10R16974   3.356   1.496   7.421  0.0562  1.8269 -2.1070
  153SAPE  H10S16975   3.444   1.510   7.270  1.0900 -0.0927  0.0840
  153SAPE  C21116976   3.551   1.434   7.419 -0.3971  0.1607 -0.1999
  153SAPE  H11R16977   3.632   1.395   7.357 -1.3432  1.8556 -2.5738
  153SAPE  C21216978   3.578   1.468   7.548  0.3869 -0.5458 -0.1008
  153SAPE  H12R16979   3.683   1.463   7.582  0.1132 -0.7963  0.7315
  153SAPE  C21316980   3.479   1.508   7.657 -0.1743 -0.2242  0.2812
  153SAPE  H13R16981   3.505   1.455   7.751 -0.0721 -0.0177  0.3698
  153SAPE  H13S16982   3.378   1.477   7.621 -1.4773  0.5678  3.1174
  153SAPE  C21416983   3.446   1.657   7.665 -0.2452  0.1373 -0.2813
  153SAPE  H14R16984   3.457   1.716   7.572 -1.3031 -1.4939 -1.4723
  153SAPE  C21516985   3.414   1.731   7.777  0.6058  0.1047  0.2784
  153SAPE  H15R16986   3.398   1.840   7.773 -1.3135 -0.2182 -1.2508
  153SAPE  C21616987   3.399   1.678   7.920  0.3266 -0.0953  0.4801
  153SAPE  H16R16988   3.417   1.569   7.922  0.2321 -0.1064  0.7821
  153SAPE  H16S16989   3.295   1.694   7.956  0.3498  0.7910  0.1563
  153SAPE  C21716990   3.502   1.753   8.007 -0.3118  0.0732  0.2526
  153SAPE  H17R16991   3.473   1.860   8.005  2.5215  0.9374  1.8062
  153SAPE  H17S16992   3.601   1.740   7.959 -0.2256  1.3836  0.0620
  153SAPE  C21816993   3.498   1.725   8.153  0.1397  0.4571 -0.2877
  153SAPE  H18R16994   3.527   1.619   8.171 -2.7236 -0.4247 -0.6087
  153SAPE  H18S16995   3.393   1.735   8.188 -1.0587 -3.4307 -2.4471
  153SAPE  C21916996   3.580   1.825   8.233 -0.0495  0.3017  0.5188
  153SAPE  H19R16997   3.542   1.926   8.208  0.8249  0.7895  1.1442
  153SAPE  H19S16998   3.683   1.822   8.192  1.1161  1.3135  3.2960
  153SAPE  C22016999   3.582   1.792   8.380  0.4706  0.2574  0.4371
  153SAPE  H20R17000   3.627   1.696   8.412  1.1861  0.4904  0.1305
  153SAPE  H20S17001   3.479   1.769   8.414 -0.4723  0.6023 -2.0615
  153SAPE  H20T17002   3.619   1.879   8.438  0.5797 -0.8527  2.0557
  153SAPE   C3317003   2.638   1.397   6.874 -0.7934  0.0191 -0.6306
  153SAPE   H3X17004   2.731   1.458   6.883  0.5426 -2.0543  0.1102
  153SAPE   H3Y17005   2.672   1.294   6.851 -2.3407 -0.7132  0.3726
  153SAPE   C3417006   2.568   1.402   7.005  0.2486  0.4099  0.2728
  153SAPE   H4X17007   2.463   1.368   6.989  0.0003 -0.4683  3.4537
  153SAPE   H4Y17008   2.553   1.509   7.029  0.0846  0.0486  1.8334
  153SAPE   C3517009   2.641   1.326   7.115 -0.0581  0.3662  0.2649
  153SAPE   H5X17010   2.748   1.352   7.135  0.6276 -3.2893  1.7092
  153SAPE   H5Y17011   2.646   1.221   7.080  1.4147  0.4627  0.1508
  153SAPE   C3617012   2.576   1.316   7.249  0.2519  0.2237 -0.1200
  153SAPE   H6X17013   2.498   1.237   7.245  1.0163 -0.4853 -1.8412
  153SAPE   H6Y17014   2.542   1.419   7.273  0.8807  0.9218 -2.1088
  153SAPE   C3717015   2.663   1.267   7.365  0.4634  0.0968 -0.5772
  153SAPE   H7X17016   2.722   1.182   7.324 -0.5791 -1.4860  1.1029
  153SAPE   H7Y17017   2.596   1.234   7.448  2.2516  1.3739  1.4294
  153SAPE   C3817018   2.757   1.382   7.412  0.3362 -0.7287  0.9316
  153SAPE   H8X17019   2.695   1.469   7.441  1.3208  0.3035 -0.0120
  153SAPE   H8Y17020   2.831   1.405   7.332  0.2134 -1.9048  0.4610
  153SAPE   C3917021   2.856   1.333   7.516 -0.0469  0.2153  0.1569
  153SAPE   H9X17022   2.799   1.263   7.581 -0.0961  1.0085  0.9759
  153SAPE   H9Y17023   2.878   1.431   7.563 -2.9484  0.2132  1.6526
  153SAPE  C31017024   2.978   1.268   7.459 -0.3350  0.2492  0.9187
  153SAPE  H10X17025   3.039   1.336   7.394  0.7302 -2.1553 -0.6633
  153SAPE  H10Y17026   2.957   1.174   7.404 -1.1278  0.5259  0.7480
  153SAPE  C31117027   3.072   1.217   7.570  0.4840 -0.4750  0.3846
  153SAPE  H11X17028   3.154   1.169   7.513 -0.6509 -1.0715 -0.7521
  153SAPE  H11Y17029   3.026   1.127   7.616 -1.7856  0.2569 -0.3861
  153SAPE  C31217030   3.108   1.315   7.685  0.6206 -0.0639  0.4946
  153SAPE  H12X17031   3.018   1.352   7.738 -0.5633  1.4603 -2.4486
  153SAPE  H12Y17032   3.151   1.403   7.632  0.8831 -0.2454  0.4047
  153SAPE  C31317033   3.214   1.258   7.780  0.2027 -0.1615  0.4987
  153SAPE  H13X17034   3.312   1.243   7.731  1.2694  3.6297  1.2964
  153SAPE  H13Y17035   3.172   1.158   7.803 -2.6772  0.4891 -1.7382
  153SAPE  C31417036   3.249   1.338   7.901  0.7268 -0.2926 -0.0864
  153SAPE  H14X17037   3.163   1.344   7.971 -0.9740 -0.4656 -2.1111
  153SAPE  H14Y17038   3.269   1.441   7.866 -2.0929 -0.0805 -1.1626
  153SAPE  C31517039   3.375   1.281   7.968  0.2471 -0.1419  0.8026
  153SAPE  H15X17040   3.465   1.324   7.920 -1.1510  0.6434 -1.1990
  153SAPE  H15Y17041   3.381   1.171   7.959  1.9162 -0.0025  0.0985
  153SAPE  C31617042   3.372   1.310   8.114 -0.4820 -0.0953  0.2192
  153SAPE  H16X17043   3.283   1.256   8.153 -0.1046 -1.0354 -0.1920
  153SAPE  H16Y17044   3.351   1.419   8.121  2.1724  0.3718  1.7231
  153SAPE  C31717045   3.495   1.272   8.205  0.1560  0.0580 -0.1121
  153SAPE  H17X17046   3.586   1.324   8.168  0.7465 -0.2343  0.8999
  153SAPE  H17Y17047   3.507   1.163   8.188 -2.1508  0.1775 -2.9347
  153SAPE  C31817048   3.484   1.317   8.351 -0.0713 -0.0455 -0.1247
  153SAPE  H18X17049   3.439   1.418   8.343 -0.1845 -0.0791  0.0858
  153SAPE  H18Y17050   3.581   1.316   8.405  0.9288 -0.4399 -1.8717
  153SAPE  H18Z17051   3.413   1.252   8.406 -0.1848 -0.1736 -0.4189
  154SAPE     N17052   0.978   6.277   6.349  0.8584 -0.4848 -0.2873
  154SAPE   HN117053   1.074   6.250   6.379  0.3086 -1.7800  0.3334
  154SAPE   HN217054   0.911   6.206   6.385  0.4596  0.2458  0.4143
  154SAPE   HN317055   0.983   6.272   6.245 -0.7529  0.0192 -0.3961
  154SAPE   C1217056   0.942   6.411   6.403 -0.5176 -0.4480  0.8721
  154SAPE  H12A17057   0.990   6.413   6.502  0.9029 -0.6346  0.1934
  154SAPE  H12B17058   0.833   6.431   6.415 -0.2555  1.6081 -0.0586
  154SAPE   C1117059   1.006   6.515   6.317  0.5864 -0.2549  0.0302
  154SAPE  H11A17060   0.960   6.611   6.348 -0.0275 -0.5615  0.0778
  154SAPE  H11B17061   0.970   6.513   6.212 -0.2091  2.1380  0.2130
  154SAPE     P17062   1.241   6.618   6.261 -0.3070 -0.0183  0.4061
  154SAPE   O1317063   1.265   6.579   6.124  0.4513 -0.6980  0.1298
  154SAPE   O1417064   1.183   6.751   6.284  0.0686 -0.3391  0.2840
  154SAPE   O1217065   1.146   6.510   6.321  0.2099  0.0670 -0.3780
  154SAPE   O1117066   1.371   6.599   6.353 -0.1306  0.0358  0.3511
  154SAPE    C117067   1.348   6.565   6.488  0.2842  0.3229  1.0327
  154SAPE    HA17068   1.241   6.582   6.514 -0.5642 -1.1299 -1.3815
  154SAPE    HB17069   1.366   6.456   6.493  0.0612  0.1236 -1.9967
  154SAPE    C217070   1.435   6.639   6.591  0.2852 -0.1653 -0.2221
  154SAPE    HS17071   1.494   6.709   6.529 -1.2717  2.0560  0.7668
  154SAPE   O2117072   1.518   6.543   6.657 -0.6173 -0.0668  0.3572
  154SAPE   C2117073   1.594   6.583   6.754 -0.1317 -0.1418 -0.7951
  154SAPE   O2217074   1.635   6.696   6.778  0.3111 -0.2501  0.6860
  154SAPE   C2217075   1.649   6.456   6.825 -0.5257 -0.1358 -0.4848
  154SAPE   H2R17076   1.559   6.392   6.841  0.2957 -2.3291 -3.8975
  154SAPE   H2S17077   1.724   6.406   6.760 -1.1695  0.0299 -1.3723
  154SAPE    C317078   1.342   6.733   6.683 -0.1314  0.4818 -0.3776
  154SAPE    HX17079   1.287   6.801   6.614  0.5262 -0.9106 -2.3327
  154SAPE    HY17080   1.412   6.794   6.744 -0.4011  1.2077 -0.7922
  154SAPE   O3117081   1.253   6.651   6.764 -0.1423 -0.5497  0.2848
  154SAPE   C3117082   1.169   6.739   6.831  0.5270 -0.1802 -0.4086
  154SAPE   O3217083   1.190   6.858   6.837 -0.0414 -0.7265  0.3828
  154SAPE   C3217084   1.056   6.660   6.901  0.9180 -0.2973  0.4042
  154SAPE   H2X17085   1.086   6.554   6.913 -0.6361 -0.6778  1.0175
  154SAPE   H2Y17086   0.981   6.654   6.819  1.2131  0.0414  0.1081
  154SAPE   C2317087   1.719   6.492   6.961  0.3673  0.5154 -0.8289
  154SAPE   H3R17088   1.789   6.577   6.946  0.1281  0.7668 -0.5226
  154SAPE   H3S17089   1.784   6.405   6.986  0.5127  0.7324 -0.4488
  154SAPE   C2417090   1.619   6.525   7.074  0.7795  0.1145  0.4606
  154SAPE   H4R17091   1.680   6.505   7.164  0.8989  2.9931  1.0600
  154SAPE   H4S17092   1.540   6.447   7.084  1.4631 -0.5782  0.4953
  154SAPE   C2517093   1.572   6.664   7.071  0.0114 -0.6702 -0.3747
  154SAPE   H5R17094   1.513   6.695   6.982  1.4118  2.3921 -0.3109
  154SAPE   C2617095   1.575   6.752   7.174  0.0425  0.4132 -0.0626
  154SAPE   H6R17096   1.519   6.846   7.163  0.8836  1.0310  0.8165
  154SAPE   C2717097   1.628   6.749   7.315 -0.5373 -0.0130 -0.0445
  154SAPE   H7R17098   1.652   6.851   7.351  0.8568 -1.2745  2.8116
  154SAPE   H7S17099   1.721   6.687   7.320 -0.5728 -0.0798 -0.2111
  154SAPE   C2817100   1.530   6.677   7.405 -0.1050 -0.8157 -0.3241
  154SAPE   H8R17101   1.491   6.577   7.379 -2.2368 -0.5243  1.5713
  154SAPE   C2917102   1.481   6.719   7.525 -1.0825 -0.7379  0.2540
  154SAPE   H9R17103   1.417   6.651   7.582 -4.0295  3.0626  1.7087
  154SAPE  C21017104   1.506   6.849   7.596 -0.0893  0.5234  0.3416
  154SAPE  H10R17105   1.413   6.906   7.576 -1.7602 -2.3218 -0.2845
  154SAPE  H10S17106   1.579   6.914   7.544  1.4412 -0.0741  1.6950
  154SAPE  C21117107   1.559   6.842   7.734 -0.8194 -0.4799  0.1153
  154SAPE  H11R17108   1.640   6.768   7.744 -0.8948 -0.2841  2.3706
  154SAPE  C21217109   1.504   6.905   7.836 -0.3110 -0.3461 -0.0142
  154SAPE  H12R17110   1.548   6.895   7.936  0.1718  2.4527  0.0765
  154SAPE  C21317111   1.379   6.987   7.827 -0.5606  0.2958 -0.2060
  154SAPE  H13R17112   1.300   6.930   7.774 -1.5662 -0.5787  2.1836
  154SAPE  H13S17113   1.401   7.078   7.767 -3.6039  1.4853  0.3737
  154SAPE  C21417114   1.331   7.024   7.966 -0.1538 -0.7799  0.0465
  154SAPE  H14R17115   1.274   6.938   8.004 -0.1873 -0.8497 -0.1629
  154SAPE  C21517116   1.360   7.134   8.039 -0.0628 -0.3522  0.0754
  154SAPE  H15R17117   1.332   7.139   8.146  0.7697 -2.9887  0.4283
  154SAPE  C21617118   1.452   7.247   7.996 -0.2822  0.3638 -0.2569
  154SAPE  H16R17119   1.402   7.320   7.929 -4.2202 -2.9296 -1.0839
  154SAPE  H16S17120   1.546   7.213   7.946 -0.3111  0.4194 -0.3491
  154SAPE  C21717121   1.515   7.315   8.118 -0.8785 -0.0751  0.0319
  154SAPE  H17R17122   1.612   7.357   8.086  0.4938 -3.0004  0.1752
  154SAPE  H17S17123   1.556   7.244   8.194  2.8060 -1.5355 -3.1853
  154SAPE  C21817124   1.450   7.431   8.187 -0.4331 -0.4030 -0.3748
  154SAPE  H18R17125   1.392   7.384   8.269 -0.2905 -4.0091 -2.2592
  154SAPE  H18S17126   1.381   7.486   8.120 -2.1216  0.4808  1.9996
  154SAPE  C21917127   1.551   7.515   8.263 -0.1891  0.3009  0.5595
  154SAPE  H19R17128   1.635   7.547   8.198 -0.3610 -1.3409 -0.5106
  154SAPE  H19S17129   1.601   7.453   8.340 -0.8444 -1.9810 -0.7834
  154SAPE  C22017130   1.478   7.647   8.307  0.7871  0.2258  0.5173
  154SAPE  H20R17131   1.455   7.714   8.221 -0.5710  0.3883  0.9904
  154SAPE  H20S17132   1.553   7.705   8.366  1.9371 -1.0702  0.3340
  154SAPE  H20T17133   1.382   7.629   8.360 -1.7298 -1.7986 -4.3247
  154SAPE   C3317134   1.001   6.721   7.028  0.4949 -0.1801 -0.5689
  154SAPE   H3X17135   0.927   6.648   7.068  0.0356 -0.6429 -2.2138
  154SAPE   H3Y17136   0.949   6.815   6.999  2.3318  0.6285 -1.2831
  154SAPE   C3417137   1.102   6.764   7.136 -0.4976  0.3703 -0.8186
  154SAPE   H4X17138   1.150   6.857   7.100 -2.3711  0.6860 -2.6327
  154SAPE   H4Y17139   1.188   6.700   7.165 -1.4756 -0.0062  1.3267
  154SAPE   C3517140   1.024   6.809   7.259 -0.2817  0.1537 -1.0267
  154SAPE   H5X17141   0.953   6.729   7.290 -0.5594  0.0354 -1.9772
  154SAPE   H5Y17142   0.971   6.905   7.241 -0.7099 -0.0570 -0.8956
  154SAPE   C3617143   1.122   6.839   7.383  0.1624  0.3038 -0.8152
  154SAPE   H6X17144   1.183   6.928   7.357  0.4382 -0.0900 -1.5433
  154SAPE   H6Y17145   1.191   6.754   7.398 -0.8511 -0.4870 -0.5768
  154SAPE   C3717146   1.049   6.866   7.515 -0.2134 -0.3468 -0.3393
  154SAPE   H7X17147   0.983   6.955   7.512  0.3075 -0.0247 -3.1315
  154SAPE   H7Y17148   1.124   6.886   7.595 -0.1419  1.5793 -0.8707
  154SAPE   C3817149   0.959   6.746   7.564 -0.1478  0.7082  0.2965
  154SAPE   H8X17150   1.013   6.650   7.551 -0.5796  0.6092 -0.8621
  154SAPE   H8Y17151   0.876   6.742   7.490 -0.0460  0.6047  0.1853
  154SAPE   C3917152   0.907   6.744   7.707  0.7184 -0.1208 -0.1803
  154SAPE   H9X17153   0.837   6.658   7.715  2.0981 -1.2147  0.2031
  154SAPE   H9Y17154   0.858   6.839   7.739 -1.3495 -1.3932  0.5147
  154SAPE  C31017155   1.024   6.723   7.808  0.2463  0.2721  0.1931
  154SAPE  H10X17156   1.107   6.789   7.775  0.2125 -0.1950 -0.8526
  154SAPE  H10Y17157   1.072   6.623   7.805  3.4852  1.7868  0.0158
  154SAPE  C31117158   0.982   6.764   7.952  0.1998  0.0513 -0.4324
  154SAPE  H11X17159   0.883   6.718   7.973 -0.0881  0.6241 -0.5023
  154SAPE  H11Y17160   0.970   6.875   7.958 -1.1550 -0.0648 -0.9002
  154SAPE  C31217161   1.097   6.720   8.049  0.5140 -0.4330 -0.2040
  154SAPE  H12X17162   1.193   6.753   8.004  0.2568  2.3174  1.0970
  154SAPE  H12Y17163   1.089   6.611   8.068  0.7542 -0.3732  0.2528
  154SAPE  C31317164   1.078   6.798   8.184  0.0024  0.0027  0.8442
  154SAPE  H13X17165   0.990   6.784   8.250  0.4264  1.1310  1.6800
  154SAPE  H13Y17166   1.068   6.905   8.154 -1.8378 -0.1034  1.0332
  154SAPE  C31417167   1.212   6.786   8.269 -0.3313  0.5180 -0.3895
  154SAPE  H14X17168   1.291   6.836   8.208 -0.8106  0.6828 -0.8689
  154SAPE  H14Y17169   1.239   6.680   8.286  2.0907  1.2295  0.5248
  154SAPE  C31517170   1.211   6.876   8.394  0.8430  0.5550 -0.0708
  154SAPE  H15X17171   1.168   6.812   8.475  0.3354 -1.6815 -2.0562
  154SAPE  H15Y17172   1.153   6.969   8.380  0.4848  0.4024  0.3839
  154SAPE  C31617173   1.355   6.919   8.429 -0.3851  0.4853  1.1106
  154SAPE  H16X17174   1.366   6.975   8.524 -0.1551 -0.3092  1.5585
  154SAPE  H16Y17175   1.394   6.982   8.347  1.8325 -0.7479  1.1861
  154SAPE  C31717176   1.443   6.791   8.454 -0.3404  0.8872  0.1804
  154SAPE  H17X17177   1.475   6.744   8.359 -1.1354  1.1600 -0.2230
  154SAPE  H17Y17178   1.374   6.728   8.515 -0.8510 -1.5997 -2.8227
  154SAPE  C31817179   1.560   6.824   8.541 -0.4529  0.9418  0.5868
  154SAPE  H18X17180   1.630   6.898   8.495 -1.0318  1.3892  0.4237
  154SAPE  H18Y17181   1.626   6.740   8.572  0.1542  1.9685  2.0827
  154SAPE  H18Z17182   1.527   6.861   8.640 -0.7217  1.4709  0.2973
  155SAPE     N17183   1.024   1.832   6.542  0.5073 -0.2381  0.0488
  155SAPE   HN117184   1.101   1.846   6.610 -1.4901  3.1832  1.7320
  155SAPE   HN217185   1.035   1.893   6.459  0.4422  2.9101  2.2683
  155SAPE   HN317186   0.934   1.863   6.584  0.4264 -1.1547  0.5799
  155SAPE   C1217187   1.021   1.681   6.517  0.8961 -0.2506  0.5406
  155SAPE  H12A17188   1.001   1.635   6.616 -0.5547 -0.6766  0.0615
  155SAPE  H12B17189   1.125   1.653   6.491  1.0067 -0.7661  1.5128
  155SAPE   C1117190   0.922   1.627   6.406  0.5937 -0.3282  0.5361
  155SAPE  H11A17191   0.941   1.519   6.390  2.2030 -0.2769  1.8643
  155SAPE  H11B17192   0.962   1.674   6.313 -2.3554 -1.4815 -1.3659
  155SAPE     P17193   0.695   1.552   6.490 -0.1319 -0.2140 -0.0834
  155SAPE   O1317194   0.551   1.597   6.478  0.3098  0.0215 -0.3419
  155SAPE   O1417195   0.727   1.415   6.441 -0.6079  0.7951 -0.1513
  155SAPE   O1217196   0.788   1.666   6.434  0.0759  0.8459 -0.5307
  155SAPE   O1117197   0.735   1.568   6.645  0.2744  0.3854 -0.0784
  155SAPE    C117198   0.713   1.691   6.717  0.3456  0.4114 -0.1924
  155SAPE    HA17199   0.771   1.783   6.692 -2.9662  2.9878  1.0757
  155SAPE    HB17200   0.606   1.720   6.712 -0.0717 -0.8470  1.0380
  155SAPE    C217201   0.740   1.659   6.868  0.5970  0.6509 -0.9121
  155SAPE    HS17202   0.735   1.753   6.927  3.4993  0.1835  0.1249
  155SAPE   O2117203   0.869   1.593   6.885 -0.4337 -0.0784 -0.0386
  155SAPE   C2117204   0.923   1.588   7.005  0.3547  0.1635 -0.6038
  155SAPE   O2217205   0.881   1.649   7.102  0.1657  0.2800 -0.2553
  155SAPE   C2217206   1.046   1.497   7.013  0.2729 -0.1985 -0.3941
  155SAPE   H2R17207   1.005   1.400   7.047  0.2370 -0.1032 -0.1633
  155SAPE   H2S17208   1.089   1.490   6.910 -0.6300  0.5933 -0.8350
  155SAPE    C317209   0.622   1.563   6.905 -0.3370  0.2945 -0.2798
  155SAPE    HX17210   0.621   1.468   6.848 -0.0886  0.3759 -0.4180
  155SAPE    HY17211   0.528   1.614   6.876  0.2945  0.2573 -2.5075
  155SAPE   O3117212   0.605   1.542   7.046  0.2211  0.2028 -0.1807
  155SAPE   C3117213   0.659   1.431   7.101  0.3758 -0.6176  0.0704
  155SAPE   O3217214   0.733   1.352   7.049 -0.1774  0.7664 -0.0996
  155SAPE   C3217215   0.628   1.439   7.250  0.3702 -0.1967  0.5037
  155SAPE   H2X17216   0.518   1.437   7.261  0.2936 -0.5007 -0.2884
  155SAPE   H2Y17217   0.655   1.537   7.295 -0.7965  0.1240  0.5121
  155SAPE   C2317218   1.164   1.537   7.109  0.3052  0.2106  0.7463
  155SAPE   H3R17219   1.159   1.648   7.110 -0.5191  0.2077 -1.1601
  155SAPE   H3S17220   1.262   1.516   7.063  0.0329  0.5996 -0.0104
  155SAPE   C2417221   1.162   1.470   7.252  0.9784 -0.5230 -0.1729
  155SAPE   H4R17222   1.268   1.458   7.284  1.3585 -0.9267 -1.5095
  155SAPE   H4S17223   1.135   1.363   7.246  2.1889 -0.8430  0.0209
  155SAPE   C2517224   1.076   1.542   7.349  0.0416 -0.7875 -0.4403
  155SAPE   H5R17225   0.980   1.570   7.303 -0.4323  0.8833  1.5153
  155SAPE   C2617226   1.100   1.566   7.481  0.8066  0.2893  0.7205
  155SAPE   H6R17227   1.031   1.628   7.540 -1.2840  0.7249 -2.0319
  155SAPE   C2717228   1.217   1.516   7.548  0.3136 -0.2519 -0.3095
  155SAPE   H7R17229   1.305   1.498   7.482  1.9254 -2.3123  2.3014
  155SAPE   H7S17230   1.189   1.421   7.598  0.5706 -0.1069  0.1118
  155SAPE   C2817231   1.270   1.615   7.656 -0.2030 -1.1119  0.0249
  155SAPE   H8R17232   1.343   1.684   7.611  0.3314 -0.7121  1.4603
  155SAPE   C2917233   1.255   1.612   7.785  0.5431  0.1758 -0.1773
  155SAPE   H9R17234   1.310   1.690   7.841  1.5833  0.3251 -1.3785
  155SAPE  C21017235   1.166   1.519   7.869  0.4568 -0.5283 -0.5302
  155SAPE  H10R17236   1.080   1.481   7.808  0.4164 -0.7623 -0.3258
  155SAPE  H10S17237   1.123   1.580   7.951  2.0997 -1.1611  0.8266
  155SAPE  C21117238   1.245   1.414   7.925 -0.7708  0.3859  0.7732
  155SAPE  H11R17239   1.247   1.327   7.858 -0.6729  1.9276 -1.3071
  155SAPE  C21217240   1.298   1.401   8.048 -0.5619 -0.5303  0.2085
  155SAPE  H12R17241   1.358   1.312   8.072 -0.7193 -0.9707 -1.0089
  155SAPE  C21317242   1.285   1.503   8.160  0.4922 -0.4033 -0.6859
  155SAPE  H13R17243   1.189   1.482   8.210 -0.3144  3.8410 -0.2760
  155SAPE  H13S17244   1.267   1.605   8.119  1.7901  0.5761  1.1331
  155SAPE  C21417245   1.397   1.516   8.259  0.2569  0.7012 -0.7853
  155SAPE  H14R17246   1.489   1.562   8.221  0.0690  2.9815  1.3959
  155SAPE  C21517247   1.402   1.450   8.376  0.2806  0.0189  0.5942
  155SAPE  H15R17248   1.492   1.468   8.438  0.7096  1.6470 -0.4675
  155SAPE  C21617249   1.299   1.364   8.441  0.2631 -0.4793  0.5858
  155SAPE  H16R17250   1.347   1.274   8.485  2.7834 -0.3193 -1.6812
  155SAPE  H16S17251   1.231   1.326   8.361 -0.7234  2.8821 -0.2444
  155SAPE  C21717252   1.206   1.432   8.545 -0.2689  0.3401  0.2542
  155SAPE  H17R17253   1.144   1.352   8.590 -1.1066 -0.5152 -2.3819
  155SAPE  H17S17254   1.145   1.506   8.489  1.8858  1.7023 -0.3635
  155SAPE  C21817255   1.282   1.506   8.659 -0.5663  0.3299 -0.4232
  155SAPE  H18R17256   1.359   1.570   8.611 -2.4893  2.0916 -1.1845
  155SAPE  H18S17257   1.337   1.428   8.717 -1.8133 -0.7517 -0.6753
  155SAPE  C21917258   1.192   1.574   8.767  0.8262 -0.1456 -0.0134
  155SAPE  H19R17259   1.122   1.632   8.703  0.4404 -1.7753 -1.0935
  155SAPE  H19S17260   1.252   1.631   8.841  0.8901 -0.1194 -0.0858
  155SAPE  C22017261   1.120   1.470   8.859 -0.5101 -0.0039  0.1899
  155SAPE  H20R17262   1.194   1.394   8.893  0.7525  0.2386 -1.9396
  155SAPE  H20S17263   1.040   1.417   8.804 -3.7832  0.4943  4.2385
  155SAPE  H20T17264   1.072   1.514   8.949 -1.4744 -0.6456 -0.0048
  155SAPE   C3317265   0.682   1.312   7.322 -0.4352 -0.0771 -0.2654
  155SAPE   H3X17266   0.793   1.319   7.318 -0.3898 -1.1877 -0.9582
  155SAPE   H3Y17267   0.667   1.221   7.260 -1.1879  0.2752 -0.6044
  155SAPE   C3417268   0.641   1.296   7.468 -0.5554 -0.5460 -0.1771
  155SAPE   H4X17269   0.676   1.201   7.513 -0.5337  0.1620  1.3434
  155SAPE   H4Y17270   0.530   1.297   7.473 -0.5941 -0.0466 -1.0513
  155SAPE   C3517271   0.701   1.412   7.554  0.0729  0.2522 -0.1526
  155SAPE   H5X17272   0.681   1.506   7.498 -0.2639 -1.5478 -3.0962
  155SAPE   H5Y17273   0.810   1.393   7.562 -0.2291 -1.4696  0.0787
  155SAPE   C3617274   0.631   1.425   7.690 -0.7161  0.5608  0.3808
  155SAPE   H6X17275   0.570   1.339   7.727  0.6488  0.5887  2.7739
  155SAPE   H6Y17276   0.565   1.514   7.679 -0.8855  0.2725 -1.0902
  155SAPE   C3717277   0.733   1.461   7.808 -0.5420 -0.5823  0.7701
  155SAPE   H7X17278   0.678   1.516   7.888  0.0985 -0.3082  1.0238
  155SAPE   H7Y17279   0.810   1.529   7.766  1.7875 -3.5411  0.1425
  155SAPE   C3817280   0.799   1.346   7.881  0.3874  0.3292 -1.1779
  155SAPE   H8X17281   0.864   1.296   7.805  0.3461 -0.2309 -0.8440
  155SAPE   H8Y17282   0.720   1.276   7.915  1.1139  0.1243  0.1273
  155SAPE   C3917283   0.871   1.397   8.007  0.5450 -0.2928  0.0841
  155SAPE   H9X17284   0.933   1.487   7.986  1.2152 -1.1357 -1.6200
  155SAPE   H9Y17285   0.946   1.320   8.036  1.5800  1.1648  1.3851
  155SAPE  C31017286   0.798   1.422   8.135  0.3166 -0.0974  0.1832
  155SAPE  H10X17287   0.742   1.328   8.156  0.5431 -0.2138  0.2639
  155SAPE  H10Y17288   0.731   1.510   8.127 -0.2597 -0.5696 -0.2757
  155SAPE  C31117289   0.904   1.446   8.240 -0.1262 -0.3429 -0.0186
  155SAPE  H11X17290   0.977   1.527   8.218 -0.5666  0.1964  0.4790
  155SAPE  H11Y17291   0.966   1.358   8.267  2.9099  0.8766 -2.6796
  155SAPE  C31217292   0.831   1.485   8.373  0.0179 -0.5836  0.3401
  155SAPE  H12X17293   0.779   1.582   8.360  1.6559  0.1466 -0.9071
  155SAPE  H12Y17294   0.911   1.497   8.449 -0.1012  3.5613 -0.0809
  155SAPE  C31317295   0.733   1.378   8.411  0.0967 -0.2818 -0.1504
  155SAPE  H13X17296   0.775   1.275   8.419  1.8818  0.1958 -2.7687
  155SAPE  H13Y17297   0.648   1.383   8.339 -1.7351  1.0024  2.0292
  155SAPE  C31417298   0.673   1.412   8.547 -0.4257  0.4698  0.2479
  155SAPE  H14X17299   0.588   1.341   8.557 -0.6464  0.9280  1.7311
  155SAPE  H14Y17300   0.632   1.515   8.543 -0.2885  0.5336  0.5209
  155SAPE  C31517301   0.768   1.377   8.665 -0.4073  0.0865  1.7313
  155SAPE  H15X17302   0.858   1.441   8.658  1.1797 -2.2316 -0.1613
  155SAPE  H15Y17303   0.792   1.269   8.653 -0.5976  0.2692 -0.4145
  155SAPE  C31617304   0.688   1.400   8.799 -0.0725 -0.2226 -0.1183
  155SAPE  H16X17305   0.579   1.394   8.776  0.0779 -0.4249 -0.7831
  155SAPE  H16Y17306   0.709   1.499   8.843 -1.1056 -0.4784  0.9714
  155SAPE  C31717307   0.695   1.293   8.911  0.5150 -0.3750 -0.6191
  155SAPE  H17X17308   0.794   1.302   8.959  0.9243  1.3439 -1.7485
  155SAPE  H17Y17309   0.685   1.188   8.876  0.3122 -1.4778  2.5963
  155SAPE  C31817310   0.586   1.332   9.005  1.1770  0.5502 -0.2506
  155SAPE  H18X17311   0.591   1.282   9.104  0.1098  0.5591 -0.1862
  155SAPE  H18Y17312   0.486   1.313   8.961  1.5402 -2.1378  0.0313
  155SAPE  H18Z17313   0.599   1.441   9.022 -0.5684  0.5747  1.0317
  156SAPE     N17314   5.474   1.990   6.237  0.0200  0.2578  0.2211
  156SAPE   HN117315   5.491   1.903   6.184  0.9042  0.9749 -0.7006
  156SAPE   HN217316   5.413   2.052   6.180 -0.0886 -1.4937 -1.5899
  156SAPE   HN317317   5.560   2.044   6.262  0.4815  0.4139 -1.6603
  156SAPE   C1217318   5.428   1.973   6.374  0.1099  0.3128  0.1411
  156SAPE  H12A17319   5.510   1.964   6.448  0.2248  1.6059  0.1891
  156SAPE  H12B17320   5.360   1.885   6.376  0.5113 -0.0422 -0.9368
  156SAPE   C1117321   5.343   2.092   6.418  0.2004 -0.1051  0.1971
  156SAPE  H11A17322   5.321   2.082   6.527 -1.7838 -0.3215 -0.1967
  156SAPE  H11B17323   5.244   2.094   6.368 -0.2568 -0.0843  1.0804
  156SAPE     P17324   5.546   2.263   6.447 -0.0781  0.2274  0.1830
  156SAPE   O1317325   5.653   2.170   6.405  0.4586  0.2636 -0.5008
  156SAPE   O1417326   5.562   2.405   6.412  0.5581 -0.0273 -0.3757
  156SAPE   O1217327   5.409   2.216   6.396  0.4832  0.0124 -0.7975
  156SAPE   O1117328   5.526   2.244   6.604 -0.0807 -0.3130 -0.3154
  156SAPE    C117329   5.499   2.355   6.689 -0.0718 -0.6919  0.1413
  156SAPE    HA17330   5.575   2.434   6.671 -0.5660 -0.6215 -1.8111
  156SAPE    HB17331   5.398   2.399   6.675 -0.8339 -2.4500 -0.0770
  156SAPE    C217332   5.508   2.318   6.846  0.1242  0.2996  0.2280
  156SAPE    HS17333   5.446   2.385   6.909  0.1001 -0.9109  1.5179
  156SAPE   O2117334   5.646   2.341   6.890 -0.0992  0.7469 -0.3933
  156SAPE   C2117335   5.680   2.466   6.893  0.4693  0.6669 -0.3653
  156SAPE   O2217336   5.611   2.561   6.860  0.8204  0.1449  0.5662
  156SAPE   C2217337   5.818   2.471   6.970 -0.3188 -0.3201 -0.0020
  156SAPE   H2R17338   5.822   2.397   7.053 -0.5963 -0.0302  0.2710
  156SAPE   H2S17339   5.887   2.432   6.892  0.4512  0.2614  0.3801
  156SAPE    C317340   5.470   2.173   6.874 -0.7026  0.1894 -1.0021
  156SAPE    HX17341   5.534   2.088   6.842  2.1105  0.1023  4.2358
  156SAPE    HY17342   5.377   2.154   6.816 -2.0852  0.2076  1.1298
  156SAPE   O3117343   5.440   2.159   7.010  0.0675  0.1996 -0.2851
  156SAPE   C3117344   5.541   2.125   7.094 -0.2691 -0.3114 -0.0428
  156SAPE   O3217345   5.650   2.081   7.069  0.1862 -0.0887 -0.0917
  156SAPE   C3217346   5.494   2.166   7.228 -0.4013  0.3532  0.8747
  156SAPE   H2X17347   5.388   2.133   7.235  0.0654 -1.4178 -0.0876
  156SAPE   H2Y17348   5.488   2.277   7.233  0.8639  0.4684  0.0353
  156SAPE   C2317349   5.862   2.608   7.020  0.0173  0.2612  0.3409
  156SAPE   H3R17350   5.882   2.677   6.935  1.6124 -1.4907 -0.7504
  156SAPE   H3S17351   5.954   2.595   7.081  1.1085 -2.4650 -1.7997
  156SAPE   C2417352   5.764   2.675   7.113  0.4939  0.4210 -0.2013
  156SAPE   H4R17353   5.673   2.709   7.058  0.5228  0.7295 -0.0574
  156SAPE   H4S17354   5.803   2.777   7.131 -1.7243  1.1220  0.8331
  156SAPE   C2517355   5.719   2.611   7.237 -0.7017  0.0518 -0.7526
  156SAPE   H5R17356   5.760   2.510   7.254  2.6307  1.6602  1.3820
  156SAPE   C2617357   5.628   2.664   7.321  0.4498  0.4235  0.1546
  156SAPE   H6R17358   5.598   2.615   7.415  0.2657  1.4236  0.6241
  156SAPE   C2717359   5.564   2.801   7.300 -0.3754 -0.1165  0.4811
  156SAPE   H7R17360   5.470   2.804   7.359  0.8966  1.1868  2.5151
  156SAPE   H7S17361   5.526   2.815   7.196 -1.6521 -0.1157  0.9421
  156SAPE   C2817362   5.650   2.920   7.325 -0.1319 -0.0421 -1.3607
  156SAPE   H8R17363   5.710   2.971   7.249  0.1685  1.9966  0.1947
  156SAPE   C2917364   5.661   2.974   7.450 -0.2777 -0.9585 -0.1529
  156SAPE   H9R17365   5.732   3.058   7.454 -2.0391  0.5539  0.1184
  156SAPE  C21017366   5.586   2.924   7.576 -0.6611  0.2327  0.5551
  156SAPE  H10R17367   5.525   2.836   7.547  0.3042  0.3465 -1.9132
  156SAPE  H10S17368   5.511   3.002   7.604  1.2404  2.7304 -1.1314
  156SAPE  C21117369   5.688   2.896   7.685  0.2488 -0.3429 -0.1265
  156SAPE  H11R17370   5.786   2.937   7.657  1.0637 -1.6627  0.7203
  156SAPE  C21217371   5.675   2.828   7.797 -0.4297  0.4633 -0.1000
  156SAPE  H12R17372   5.758   2.824   7.870  1.4175 -0.6978 -2.2095
  156SAPE  C21317373   5.550   2.768   7.852 -0.1113 -0.9311 -0.4112
  156SAPE  H13R17374   5.570   2.663   7.884  1.1800 -0.9994 -1.3702
  156SAPE  H13S17375   5.473   2.753   7.773 -0.1229 -0.9941 -0.3885
  156SAPE  C21417376   5.484   2.854   7.958 -1.1895  0.0358 -0.5988
  156SAPE  H14R17377   5.449   2.954   7.927  2.9330  1.3260 -1.4750
  156SAPE  C21517378   5.483   2.829   8.090  0.5455 -0.7739 -0.1738
  156SAPE  H15R17379   5.422   2.898   8.150 -0.8675  0.0640 -2.5232
  156SAPE  C21617380   5.540   2.708   8.159 -0.7876  0.3016 -0.6232
  156SAPE  H16R17381   5.617   2.743   8.231 -2.5242  0.7912  1.0496
  156SAPE  H16S17382   5.590   2.638   8.089  1.5974  1.2417  0.0940
  156SAPE  C21717383   5.446   2.606   8.239  0.3050 -0.1119 -0.8642
  156SAPE  H17R17384   5.510   2.530   8.289 -1.3732 -0.6089  0.5629
  156SAPE  H17S17385   5.375   2.562   8.167 -0.8890 -1.3810  1.0446
  156SAPE  C21817386   5.367   2.690   8.346  0.8219  0.2339 -0.1394
  156SAPE  H18R17387   5.273   2.734   8.307 -0.0176 -1.5092 -0.1336
  156SAPE  H18S17388   5.429   2.775   8.381 -0.9903  1.1674  0.8654
  156SAPE  C21917389   5.321   2.604   8.467 -0.2051  0.4479 -0.0864
  156SAPE  H19R17390   5.279   2.671   8.545 -0.0128 -0.2619  0.6393
  156SAPE  H19S17391   5.412   2.553   8.505 -1.4549 -1.5236  0.3306
  156SAPE  C22017392   5.214   2.495   8.449 -0.7681  0.0480 -0.0574
  156SAPE  H20R17393   5.127   2.524   8.387 -0.8311 -1.5888 -0.7568
  156SAPE  H20S17394   5.188   2.469   8.553 -0.9490  0.9730  0.1334
  156SAPE  H20T17395   5.270   2.410   8.403  0.3677  1.6183 -1.6725
  156SAPE   C3317396   5.588   2.122   7.346 -0.8503  0.0200  0.4390
  156SAPE   H3X17397   5.694   2.129   7.313 -0.4422 -1.2612  1.4354
  156SAPE   H3Y17398   5.565   2.018   7.377  1.2841 -0.6746 -0.1985
  156SAPE   C3417399   5.569   2.198   7.471 -0.5678  0.3295 -0.8584
  156SAPE   H4X17400   5.548   2.307   7.466  3.0529  1.0197 -1.9366
  156SAPE   H4Y17401   5.653   2.188   7.542 -0.8375 -0.4561 -0.6461
  156SAPE   C3517402   5.438   2.152   7.548 -0.2669  0.3161 -0.1038
  156SAPE   H5X17403   5.447   2.042   7.554  2.5224  0.6254  2.7701
  156SAPE   H5Y17404   5.347   2.188   7.495 -0.1933  0.9528  0.1939
  156SAPE   C3617405   5.442   2.199   7.691  0.4228  0.2747 -1.1685
  156SAPE   H6X17406   5.450   2.309   7.675  2.1096  0.2150 -0.8081
  156SAPE   H6Y17407   5.535   2.164   7.741  0.1114  0.4743 -0.4343
  156SAPE   C3717408   5.312   2.163   7.765 -0.3833  0.1240  0.0344
  156SAPE   H7X17409   5.308   2.056   7.734 -0.4139  0.3047 -0.5818
  156SAPE   H7Y17410   5.222   2.220   7.736 -1.5247 -1.1353  0.9948
  156SAPE   C3817411   5.330   2.174   7.922  0.2554 -1.1375 -0.3011
  156SAPE   H8X17412   5.436   2.154   7.947 -0.2042 -2.9666  0.2252
  156SAPE   H8Y17413   5.274   2.096   7.978  1.5307 -0.7357  1.5632
  156SAPE   C3917414   5.294   2.316   7.980  0.2480 -0.0578  0.2655
  156SAPE   H9X17415   5.320   2.384   7.896 -2.1001  0.6183  0.0545
  156SAPE   H9Y17416   5.355   2.346   8.068  0.8483 -0.9949  0.1833
  156SAPE  C31017417   5.140   2.346   8.002  0.2544  0.4690 -0.0180
  156SAPE  H10X17418   5.101   2.264   8.066 -0.2161  1.2817  0.7496
  156SAPE  H10Y17419   5.099   2.335   7.899  1.5911  0.3270 -0.5394
  156SAPE  C31117420   5.097   2.482   8.062  0.4659  0.1813 -0.7286
  156SAPE  H11X17421   5.152   2.565   8.014 -1.6376  2.7095  1.0258
  156SAPE  H11Y17422   5.121   2.481   8.171  0.5332  0.1095 -0.7448
  156SAPE  C31217423   4.945   2.512   8.044  0.4501  0.1450 -0.1164
  156SAPE  H12X17424   4.891   2.417   8.062 -1.4931  0.8739 -1.9492
  156SAPE  H12Y17425   4.918   2.539   7.939 -1.0404  1.3949  0.5698
  156SAPE  C31317426   4.898   2.630   8.133 -0.3916  0.4497 -0.4740
  156SAPE  H13X17427   4.950   2.725   8.107  1.0180 -0.1440  0.0845
  156SAPE  H13Y17428   4.940   2.599   8.232 -0.6323 -0.1768 -0.5666
  156SAPE  C31417429   4.744   2.648   8.143 -0.2903  0.3340  0.2750
  156SAPE  H14X17430   4.699   2.563   8.198 -0.0372 -0.4320 -0.6936
  156SAPE  H14Y17431   4.700   2.653   8.041 -1.1296  3.0310  0.7326
  156SAPE  C31517432   4.695   2.775   8.209 -0.0166 -0.6772 -0.2192
  156SAPE  H15X17433   4.596   2.790   8.160  1.0141 -2.3619 -2.9079
  156SAPE  H15Y17434   4.762   2.858   8.179  0.2864 -0.2141  1.6812
  156SAPE  C31617435   4.678   2.780   8.363  0.3323 -0.1443  0.2631
  156SAPE  H16X17436   4.776   2.759   8.412  1.6693  0.9139 -1.8565
  156SAPE  H16Y17437   4.601   2.705   8.391 -0.0105  0.4691  0.9849
  156SAPE  C31717438   4.637   2.919   8.407  0.0275 -0.8611 -0.6630
  156SAPE  H17X17439   4.545   2.941   8.348  0.5985 -1.5498 -1.8136
  156SAPE  H17Y17440   4.713   2.995   8.382 -1.2505  0.5189 -0.4446
  156SAPE  C31817441   4.610   2.932   8.559 -0.3152 -0.4491 -0.3114
  156SAPE  H18X17442   4.567   2.833   8.588 -2.0443  0.2280 -0.5530
  156SAPE  H18Y17443   4.532   3.006   8.585  0.0028 -0.3100  0.2690
  156SAPE  H18Z17444   4.707   2.956   8.607  0.4876  1.2872 -2.7360
  157SAPE     N17445   3.057   3.450   5.976 -0.0544  0.0424  0.7259
  157SAPE   HN117446   3.115   3.389   5.914  0.7559  0.1933  1.3268
  157SAPE   HN217447   2.960   3.417   5.959  0.3015 -0.6698  0.0262
  157SAPE   HN317448   3.053   3.548   5.939 -2.8043 -0.6852 -1.0688
  157SAPE   C1217449   3.094   3.445   6.117 -0.3036  0.0579 -0.3977
  157SAPE  H12A17450   3.071   3.343   6.153 -0.2316  0.3671  0.5364
  157SAPE  H12B17451   3.032   3.527   6.160 -0.2665  0.9298 -1.9275
  157SAPE   C1117452   3.245   3.473   6.153  0.3103 -0.2151  0.5173
  157SAPE  H11A17453   3.294   3.402   6.084 -0.0861 -0.1934  0.2081
  157SAPE  H11B17454   3.262   3.446   6.260 -3.6791  0.5349  1.4495
  157SAPE     P17455   3.408   3.663   6.073 -0.0628 -0.2167 -0.1207
  157SAPE   O1317456   3.434   3.592   5.942 -0.1567 -0.1286 -0.1811
  157SAPE   O1417457   3.396   3.810   6.073 -0.5154  0.3393 -0.0732
  157SAPE   O1217458   3.279   3.606   6.137  0.1983 -0.0915  0.1283
  157SAPE   O1117459   3.521   3.625   6.173  0.6450 -0.7367 -0.2753
  157SAPE    C117460   3.526   3.666   6.311  0.4887  0.3073  0.6335
  157SAPE    HA17461   3.600   3.748   6.321  0.1924  0.5469  0.8738
  157SAPE    HB17462   3.425   3.699   6.346  1.0595  1.9927  0.7094
  157SAPE    C217463   3.587   3.558   6.410 -0.4878 -0.2617  0.0347
  157SAPE    HS17464   3.683   3.524   6.365  0.4994  0.3948  1.5980
  157SAPE   O2117465   3.494   3.448   6.420 -0.2070 -0.5408  0.1620
  157SAPE   C2117466   3.532   3.328   6.458  0.5682 -0.2928 -0.0979
  157SAPE   O2217467   3.652   3.302   6.471  0.3930 -0.4607  0.2192
  157SAPE   C2217468   3.417   3.235   6.502 -0.3406 -0.1135  0.4434
  157SAPE   H2R17469   3.350   3.301   6.561 -1.0043 -0.1455 -0.2648
  157SAPE   H2S17470   3.356   3.215   6.411 -1.4000  0.5675  0.9872
  157SAPE    C317471   3.615   3.620   6.552  0.3872 -0.6686 -0.2987
  157SAPE    HX17472   3.670   3.714   6.531 -1.1519  0.0241 -1.2637
  157SAPE    HY17473   3.685   3.551   6.604 -0.1532 -2.2589 -1.6311
  157SAPE   O3117474   3.486   3.651   6.606  0.8556 -0.1138  0.0420
  157SAPE   C3117475   3.439   3.566   6.699 -0.4791 -0.1509 -0.4717
  157SAPE   O3217476   3.496   3.469   6.744 -0.2347  0.3103 -0.4277
  157SAPE   C3217477   3.308   3.616   6.746 -0.2247 -0.2832 -0.3625
  157SAPE   H2X17478   3.229   3.541   6.724  0.6708 -0.8447 -1.6716
  157SAPE   H2Y17479   3.268   3.707   6.696 -1.4964 -0.2274  0.7244
  157SAPE   C2317480   3.469   3.117   6.588  0.3417 -0.0063  0.2634
  157SAPE   H3R17481   3.545   3.154   6.660  0.1260  0.3664  0.2988
  157SAPE   H3S17482   3.520   3.050   6.515 -1.2563  0.5011 -1.3412
  157SAPE   C2417483   3.358   3.052   6.679 -0.3295 -0.3145 -0.2210
  157SAPE   H4R17484   3.288   3.013   6.602 -0.8956  0.1374  0.0643
  157SAPE   H4S17485   3.302   3.125   6.742 -1.0741  0.1709 -1.4450
  157SAPE   C2517486   3.409   2.937   6.761  0.2645  0.6232 -0.8131
  157SAPE   H5R17487   3.457   2.857   6.702  1.3359  1.4666 -1.0962
  157SAPE   C2617488   3.397   2.917   6.892 -1.0279  0.2289  0.6053
  157SAPE   H6R17489   3.431   2.823   6.938 -0.3719  0.6640  1.0155
  157SAPE   C2717490   3.338   3.012   6.998  0.1468  0.1551  0.3869
  157SAPE   H7R17491   3.327   2.952   7.091 -1.0639  0.5356  0.4977
  157SAPE   H7S17492   3.235   3.032   6.963  0.7306  3.0756  0.2583
  157SAPE   C2817493   3.425   3.131   7.023 -0.6994 -0.2031 -0.5699
  157SAPE   H8R17494   3.476   3.173   6.935  0.0664  0.9407  0.4073
  157SAPE   C2917495   3.441   3.183   7.148  0.2616  0.2387 -0.0831
  157SAPE   H9R17496   3.514   3.265   7.152  0.1878  0.2807  0.5135
  157SAPE  C21017497   3.384   3.118   7.280 -0.2620 -0.8278  0.4095
  157SAPE  H10R17498   3.287   3.067   7.262  0.4179 -1.4813 -1.6376
  157SAPE  H10S17499   3.361   3.203   7.347 -1.8472 -2.3087  1.7686
  157SAPE  C21117500   3.486   3.022   7.339 -0.5502  0.2090  0.3498
  157SAPE  H11R17501   3.490   2.928   7.282 -1.4100 -0.7217  1.8101
  157SAPE  C21217502   3.535   3.024   7.462  0.0558 -0.2750  0.0285
  157SAPE  H12R17503   3.601   2.941   7.491  1.2105  0.5750 -0.1078
  157SAPE  C21317504   3.520   3.128   7.557 -0.4352  0.5313  0.4811
  157SAPE  H13R17505   3.525   3.223   7.499 -1.3709 -0.2294 -0.8829
  157SAPE  H13S17506   3.613   3.137   7.617  0.6834  0.7622 -1.2871
  157SAPE  C21417507   3.394   3.133   7.637  0.0247 -0.4189 -0.6310
  157SAPE  H14R17508   3.301   3.137   7.578  0.4593  4.5007 -1.1768
  157SAPE  C21517509   3.381   3.139   7.770  0.0160 -0.5320 -0.1199
  157SAPE  H15R17510   3.282   3.150   7.817  0.6676 -2.1849  1.6970
  157SAPE  C21617511   3.490   3.156   7.871 -0.0552  0.0397  0.5252
  157SAPE  H16R17512   3.588   3.175   7.822 -0.0469  0.8917  0.8656
  157SAPE  H16S17513   3.505   3.077   7.947 -2.0748  0.7362  1.6924
  157SAPE  C21717514   3.466   3.280   7.957 -0.3870 -0.1679  0.1830
  157SAPE  H17R17515   3.504   3.264   8.060 -3.3013  1.1486  1.5329
  157SAPE  H17S17516   3.357   3.302   7.960 -0.2453  0.5571  0.2331
  157SAPE  C21817517   3.529   3.410   7.892 -0.6820 -0.0105  0.6324
  157SAPE  H18R17518   3.517   3.400   7.782  3.0825  2.3728 -0.0683
  157SAPE  H18S17519   3.636   3.405   7.919 -1.0741  3.1173  3.1027
  157SAPE  C21917520   3.478   3.545   7.950 -0.2049  0.2813  0.0124
  157SAPE  H19R17521   3.377   3.570   7.912 -0.8301 -4.2343 -1.5473
  157SAPE  H19S17522   3.542   3.623   7.904 -1.7536  0.1997 -2.3615
  157SAPE  C22017523   3.486   3.540   8.101 -0.4785 -0.0519  0.5870
  157SAPE  H20R17524   3.563   3.472   8.141  0.5915  1.3589  0.9510
  157SAPE  H20S17525   3.385   3.528   8.146 -1.0457  2.4081  0.0918
  157SAPE  H20T17526   3.523   3.639   8.136 -1.2343  1.2620 -2.1817
  157SAPE   C3317527   3.301   3.653   6.903 -0.2659  0.1852  0.2488
  157SAPE   H3X17528   3.208   3.710   6.924 -0.4598 -0.2871  0.6828
  157SAPE   H3Y17529   3.389   3.720   6.917  1.7759 -2.2934 -0.3208
  157SAPE   C3417530   3.301   3.532   6.998  0.5770 -0.1769  0.2589
  157SAPE   H4X17531   3.394   3.474   6.982  1.0368  0.6597 -0.1081
  157SAPE   H4Y17532   3.211   3.473   6.969 -0.9997  1.4479  1.6361
  157SAPE   C3517533   3.283   3.579   7.144  0.0741 -0.3153  0.1520
  157SAPE   H5X17534   3.255   3.491   7.205  3.0675  0.0483  2.1931
  157SAPE   H5Y17535   3.201   3.654   7.147  2.3048  2.1663  0.9267
  157SAPE   C3617536   3.405   3.652   7.204 -0.9732 -0.1637  0.3764
  157SAPE   H6X17537   3.452   3.709   7.122 -1.5219 -0.3080 -0.0399
  157SAPE   H6Y17538   3.468   3.572   7.249  0.1907  1.2310  1.2417
  157SAPE   C3717539   3.361   3.757   7.304 -0.3263 -0.3668 -0.4341
  157SAPE   H7X17540   3.293   3.831   7.257 -0.2204  0.5188  0.7909
  157SAPE   H7Y17541   3.444   3.829   7.321 -0.6752 -0.0338 -0.1468
  157SAPE   C3817542   3.316   3.698   7.436  0.1248  0.2849  0.3503
  157SAPE   H8X17543   3.401   3.638   7.473  0.0158 -0.9560 -1.3647
  157SAPE   H8Y17544   3.239   3.619   7.422  0.3943  0.3414 -1.5647
  157SAPE   C3917545   3.302   3.819   7.534  0.1185 -0.2809  0.1717
  157SAPE   H9X17546   3.200   3.862   7.530 -0.1164 -0.8541 -0.0551
  157SAPE   H9Y17547   3.362   3.906   7.499 -0.9276  1.7276  3.1554
  157SAPE  C31017548   3.308   3.787   7.686  0.2040  0.0869  0.5978
  157SAPE  H10X17549   3.412   3.756   7.707  0.4163  0.2002 -0.2511
  157SAPE  H10Y17550   3.255   3.692   7.707 -0.8980  0.3757 -0.7546
  157SAPE  C31117551   3.261   3.900   7.774 -0.3178 -0.3356  0.0797
  157SAPE  H11X17552   3.162   3.934   7.738  0.4765  0.4765 -1.3852
  157SAPE  H11Y17553   3.338   3.981   7.771  1.4954 -2.0346 -0.2310
  157SAPE  C31217554   3.259   3.873   7.926 -0.3094 -1.0214  0.4357
  157SAPE  H12X17555   3.365   3.857   7.954 -0.4531  0.6460  2.0178
  157SAPE  H12Y17556   3.203   3.780   7.946 -0.9419 -0.4978  1.1278
  157SAPE  C31317557   3.200   3.994   7.999 -0.3328 -1.0916  0.0504
  157SAPE  H13X17558   3.107   4.027   7.949  1.0150 -0.8234 -2.3121
  157SAPE  H13Y17559   3.266   4.081   7.981 -3.2209  1.6271  1.9122
  157SAPE  C31417560   3.176   3.984   8.148 -0.9497 -0.7744 -0.1630
  157SAPE  H14X17561   3.137   3.881   8.159 -0.8770 -0.9560 -1.5601
  157SAPE  H14Y17562   3.102   4.058   8.186  2.0607  1.8862  0.7654
  157SAPE  C31517563   3.302   3.993   8.236  0.1527 -0.0607 -0.6777
  157SAPE  H15X17564   3.319   4.096   8.273  1.5008 -0.8777  1.0239
  157SAPE  H15Y17565   3.388   3.960   8.174  0.0803  0.5599 -1.1082
  157SAPE  C31617566   3.300   3.915   8.366  0.1732  0.3846 -0.0754
  157SAPE  H16X17567   3.195   3.925   8.401 -0.0453  1.7444 -1.0498
  157SAPE  H16Y17568   3.373   3.961   8.436  1.3897 -2.3399  0.5183
  157SAPE  C31717569   3.322   3.770   8.354  0.2157 -0.2282  0.7022
  157SAPE  H17X17570   3.429   3.741   8.345 -0.0411 -2.0806  2.8764
  157SAPE  H17Y17571   3.279   3.731   8.260  0.6977 -0.0558  0.4115
  157SAPE  C31817572   3.256   3.680   8.465 -0.0402  0.0713  0.6957
  157SAPE  H18X17573   3.284   3.701   8.571 -1.8206 -0.5257  1.3007
  157SAPE  H18Y17574   3.276   3.571   8.453 -0.3318 -0.0131  0.9798
  157SAPE  H18Z17575   3.151   3.715   8.464 -0.4016 -1.0006 -1.1546
  158SAPE     N17576   6.013   1.371   6.481  0.4944 -0.2168  0.1435
  158SAPE   HN117577   6.059   1.304   6.546 -0.4535  0.8252  1.9465
  158SAPE   HN217578   5.935   1.329   6.427 -1.9262  3.1887  0.7879
  158SAPE   HN317579   6.082   1.415   6.416 -1.1507 -0.5455 -1.8633
  158SAPE   C1217580   5.948   1.475   6.565  0.1294  0.2546 -0.3859
  158SAPE  H12A17581   5.996   1.573   6.547 -0.3929  0.4784 -0.5639
  158SAPE  H12B17582   5.958   1.449   6.672 -0.8930  0.8029 -0.1531
  158SAPE   C1117583   5.801   1.498   6.527  0.2053  0.3596 -0.6920
  158SAPE  H11A17584   5.765   1.566   6.607  0.1008  0.7065 -1.0255
  158SAPE  H11B17585   5.767   1.394   6.541 -2.2925  1.1910 -0.3935
  158SAPE     P17586   5.758   1.699   6.374 -0.2583  0.0561 -0.1024
  158SAPE   O1317587   5.837   1.774   6.471 -0.1790 -0.3040  0.2252
  158SAPE   O1417588   5.779   1.741   6.237  0.1317 -0.7989  0.3462
  158SAPE   O1217589   5.787   1.553   6.396  0.5835  0.1012 -0.3067
  158SAPE   O1117590   5.605   1.718   6.398  0.4801 -0.2669  0.1015
  158SAPE    C117591   5.504   1.622   6.422  0.2845  0.7387 -0.5746
  158SAPE    HA17592   5.421   1.625   6.348 -0.4282 -2.0959  0.0405
  158SAPE    HB17593   5.543   1.518   6.425  1.3459  1.1607  0.9612
  158SAPE    C217594   5.432   1.638   6.565 -0.3457  0.2577 -0.4733
  158SAPE    HS17595   5.360   1.722   6.570  1.9900  2.4006 -1.3633
  158SAPE   O2117596   5.532   1.644   6.667  0.1699  0.2836 -0.2445
  158SAPE   C2117597   5.570   1.766   6.704  0.2270  0.8763 -0.2095
  158SAPE   O2217598   5.516   1.868   6.671 -0.4217 -0.0932 -0.0247
  158SAPE   C2217599   5.682   1.748   6.809 -0.3766 -0.0621 -0.0751
  158SAPE   H2R17600   5.774   1.732   6.749 -1.8187 -2.6427 -1.6622
  158SAPE   H2S17601   5.701   1.848   6.855 -0.3330  0.0537 -0.3411
  158SAPE    C317602   5.342   1.520   6.592 -0.0187 -0.5994 -0.1517
  158SAPE    HX17603   5.384   1.421   6.565 -1.6232 -1.4325  0.3458
  158SAPE    HY17604   5.256   1.536   6.524 -1.0308  1.8928  1.6106
  158SAPE   O3117605   5.298   1.519   6.727 -0.0003 -0.5892 -0.2129
  158SAPE   C3117606   5.201   1.616   6.749 -0.5198  0.0081  0.3722
  158SAPE   O3217607   5.150   1.681   6.659  0.5931  0.0026  0.3811
  158SAPE   C3217608   5.151   1.622   6.892 -0.4411 -0.1655 -1.2077
  158SAPE   H2X17609   5.216   1.563   6.961  1.5374  3.0044 -0.2553
  158SAPE   H2Y17610   5.045   1.589   6.895 -0.6345  0.3568 -2.4086
  158SAPE   C2317611   5.663   1.629   6.907 -0.0387  0.4324  0.1872
  158SAPE   H3R17612   5.763   1.609   6.950  1.1755  2.8647 -1.3869
  158SAPE   H3S17613   5.636   1.535   6.854 -0.8351  0.1436  1.0807
  158SAPE   C2417614   5.553   1.646   7.015 -0.5836 -0.5584  0.5510
  158SAPE   H4R17615   5.520   1.545   7.046  0.4098 -1.9258 -2.6816
  158SAPE   H4S17616   5.453   1.685   6.985  0.6590  0.5051 -2.3870
  158SAPE   C2517617   5.603   1.734   7.127  0.1423 -0.2825 -0.0146
  158SAPE   H5R17618   5.656   1.823   7.088  0.9485  0.3961  2.5623
  158SAPE   C2617619   5.565   1.730   7.254  0.0907  0.4632 -0.8324
  158SAPE   H6R17620   5.598   1.808   7.324  2.1378 -1.1522  0.0522
  158SAPE   C2717621   5.476   1.627   7.317  0.3079 -0.0995  0.7224
  158SAPE   H7R17622   5.539   1.551   7.368 -0.6445 -1.1989  0.2765
  158SAPE   H7S17623   5.431   1.571   7.232  0.9462 -1.0213  0.9752
  158SAPE   C2817624   5.376   1.701   7.395  0.1250 -0.5197  0.3044
  158SAPE   H8R17625   5.282   1.723   7.342 -0.0284  1.4305  1.3490
  158SAPE   C2917626   5.374   1.753   7.516 -0.4874  0.3032 -0.1483
  158SAPE   H9R17627   5.283   1.804   7.551  0.3555  1.1252  0.8705
  158SAPE  C21017628   5.494   1.760   7.605 -0.9557  0.1223  0.2970
  158SAPE  H10R17629   5.508   1.863   7.645  0.1563  0.6613 -1.4053
  158SAPE  H10S17630   5.580   1.737   7.538 -0.7796 -0.2427  0.6523
  158SAPE  C21117631   5.495   1.651   7.705 -0.1068  0.0329  0.1623
  158SAPE  H11R17632   5.526   1.558   7.654 -0.3268 -0.3832  0.7889
  158SAPE  C21217633   5.466   1.648   7.833  0.0147 -0.0243 -0.1250
  158SAPE  H12R17634   5.478   1.548   7.876  1.7842  0.4547  0.5501
  158SAPE  C21317635   5.415   1.768   7.908 -0.2987  0.0001 -0.5024
  158SAPE  H13R17636   5.414   1.869   7.861 -1.0026 -0.5637 -1.7020
  158SAPE  H13S17637   5.489   1.780   7.990 -1.3535 -3.1919  0.9951
  158SAPE  C21417638   5.281   1.725   7.958  0.3068 -0.0848  0.6854
  158SAPE  H14R17639   5.209   1.740   7.876  0.3178 -1.2418  0.4531
  158SAPE  C21517640   5.258   1.667   8.079  0.1584 -0.1255  1.1082
  158SAPE  H15R17641   5.155   1.638   8.105 -0.5819  0.5916 -0.8954
  158SAPE  C21617642   5.360   1.644   8.183  0.6787 -0.2553 -0.1553
  158SAPE  H16R17643   5.463   1.678   8.160  0.3023  1.0899  0.0701
  158SAPE  H16S17644   5.377   1.536   8.200  1.8739 -0.4619 -2.5588
  158SAPE  C21717645   5.318   1.726   8.307  0.2886 -0.1473  0.8949
  158SAPE  H17R17646   5.382   1.693   8.392  1.7440  3.7444  1.3914
  158SAPE  H17S17647   5.211   1.698   8.322  0.1460 -0.3444 -0.4511
  158SAPE  C21817648   5.325   1.873   8.275 -0.0638  0.1334 -0.1632
  158SAPE  H18R17649   5.245   1.898   8.202  1.4296  0.7063 -1.6571
  158SAPE  H18S17650   5.425   1.913   8.244  0.1804 -1.0338 -0.9049
  158SAPE  C21917651   5.291   1.959   8.403  0.1197 -0.3751 -0.1562
  158SAPE  H19R17652   5.356   1.923   8.485 -0.0188 -0.9752 -0.3051
  158SAPE  H19S17653   5.188   1.937   8.440 -1.1903  2.8033 -1.7309
  158SAPE  C22017654   5.300   2.103   8.375  0.4555  0.0917 -0.0840
  158SAPE  H20R17655   5.268   2.179   8.449  0.7244  0.0547  0.0688
  158SAPE  H20S17656   5.242   2.116   8.281  0.5236  1.5813  0.0718
  158SAPE  H20T17657   5.406   2.118   8.345  0.0870  1.0796 -0.9204
  158SAPE   C3317658   5.173   1.764   6.940  0.4740  0.0386  0.6392
  158SAPE   H3X17659   5.136   1.833   6.861  1.6373 -0.1083 -0.0405
  158SAPE   H3Y17660   5.281   1.787   6.956  0.4675  2.0037 -1.8339
  158SAPE   C3417661   5.113   1.783   7.079 -0.1574 -0.7694 -1.1122
  158SAPE   H4X17662   5.129   1.695   7.144  0.4908  0.6850  0.7320
  158SAPE   H4Y17663   5.003   1.797   7.071  0.0995  1.7541 -0.6585
  158SAPE   C3517664   5.169   1.914   7.146  0.7506  0.0618  0.4612
  158SAPE   H5X17665   5.175   1.998   7.074  3.5963  0.3933  1.0249
  158SAPE   H5Y17666   5.272   1.897   7.182  1.1854  0.5080 -0.5508
  158SAPE   C3617667   5.084   1.946   7.268 -0.1189  0.1019  0.8109
  158SAPE   H6X17668   5.103   1.868   7.345  0.6210 -0.2399  0.2925
  158SAPE   H6Y17669   4.977   1.935   7.242  0.0769  1.6938 -0.7935
  158SAPE   C3717670   5.107   2.084   7.336 -0.3485 -0.2886 -0.3443
  158SAPE   H7X17671   5.206   2.068   7.385 -0.0518 -1.6783 -1.3723
  158SAPE   H7Y17672   5.113   2.157   7.253 -0.4196 -1.2095 -1.1641
  158SAPE   C3817673   4.997   2.108   7.443 -0.6290  0.3248 -0.5265
  158SAPE   H8X17674   4.897   2.100   7.396 -0.5834 -0.5129 -0.4757
  158SAPE   H8Y17675   5.003   2.208   7.491 -1.3666  0.5963 -0.9914
  158SAPE   C3917676   5.000   2.021   7.569 -0.0323  0.2025  0.4132
  158SAPE   H9X17677   5.108   2.013   7.590  0.2349  0.2194 -0.9154
  158SAPE   H9Y17678   4.960   1.918   7.556 -2.6997  1.2166  0.1344
  158SAPE  C31017679   4.921   2.080   7.686  1.3955  0.6162 -0.0519
  158SAPE  H10X17680   4.814   2.062   7.663  1.4049  0.3221  0.1399
  158SAPE  H10Y17681   4.941   2.188   7.703  0.0526  0.7679  0.5967
  158SAPE  C31117682   4.954   2.005   7.823 -0.1329  0.2155  0.4594
  158SAPE  H11X17683   5.064   2.007   7.839 -0.3346  0.1168  1.8985
  158SAPE  H11Y17684   4.920   1.900   7.825 -0.3559  0.2644 -0.4427
  158SAPE  C31217685   4.888   2.089   7.932 -0.2520 -0.3167  0.2868
  158SAPE  H12X17686   4.781   2.076   7.902  0.6120 -1.9708 -2.2507
  158SAPE  H12Y17687   4.925   2.193   7.920  0.5665 -0.8045 -1.6019
  158SAPE  C31317688   4.903   2.039   8.067  0.2792  0.4152  0.3289
  158SAPE  H13X17689   5.012   2.021   8.082  0.2812  0.4517  0.3539
  158SAPE  H13Y17690   4.837   1.951   8.083 -0.4172  1.0928  1.1713
  158SAPE  C31417691   4.868   2.135   8.184  0.5505 -0.3960 -0.1895
  158SAPE  H14X17692   4.765   2.173   8.169  1.0244  1.3052  0.7721
  158SAPE  H14Y17693   4.937   2.222   8.188 -0.8316  0.6587  1.0472
  158SAPE  C31517694   4.893   2.067   8.321 -0.2758  0.4450 -0.0948
  158SAPE  H15X17695   4.987   2.009   8.312 -0.8662 -0.3630 -1.1915
  158SAPE  H15Y17696   4.812   1.993   8.314 -0.9751  1.3197 -1.4986
  158SAPE  C31617697   4.880   2.142   8.453 -0.5586  0.8130  0.6501
  158SAPE  H16X17698   4.778   2.187   8.453 -0.8202  0.2672 -0.4156
  158SAPE  H16Y17699   4.945   2.232   8.449 -1.4712  1.5083  1.1062
  158SAPE  C31717700   4.892   2.055   8.582  0.4823  0.2810  0.3474
  158SAPE  H17X17701   4.927   2.107   8.674  0.0220 -1.1376  1.3458
  158SAPE  H17Y17702   4.972   1.978   8.566  0.6970  0.7335 -0.8075
  158SAPE  C31817703   4.762   1.976   8.590  0.0737  0.7323 -0.1265
  158SAPE  H18X17704   4.736   1.917   8.500  2.4920  1.5692 -1.4238
  158SAPE  H18Y17705   4.683   2.052   8.613  0.3771  0.7999  0.6984
  158SAPE  H18Z17706   4.775   1.906   8.676 -2.3253 -1.5569 -1.5468
  159SAPE     N17707   5.074   4.879   6.300 -0.0882  0.2569 -0.1329
  159SAPE   HN117708   5.123   4.821   6.371  1.0334 -0.4712 -1.4783
  159SAPE   HN217709   5.092   4.839   6.206 -1.5913 -2.0169  0.4939
  159SAPE   HN317710   5.119   4.973   6.305 -0.9147  0.6583 -0.2432
  159SAPE   C1217711   4.931   4.886   6.312  0.1858 -0.1585 -0.1369
  159SAPE  H12A17712   4.900   4.980   6.262 -0.7376 -0.8833 -0.9422
  159SAPE  H12B17713   4.896   4.888   6.418  0.4233  1.8316 -0.0603
  159SAPE   C1117714   4.868   4.765   6.247 -0.0831  0.4892  0.5878
  159SAPE  H11A17715   4.870   4.767   6.136 -2.9546 -1.8605  0.4366
  159SAPE  H11B17716   4.760   4.762   6.270 -0.4168 -0.7858 -1.0378
  159SAPE     P17717   4.851   4.530   6.356 -0.0646 -0.2688  0.1698
  159SAPE   O1317718   4.740   4.493   6.267  0.2463  0.2281 -0.0688
  159SAPE   O1417719   4.931   4.422   6.414 -0.4059  0.4785  0.3303
  159SAPE   O1217720   4.932   4.637   6.284  0.1264  0.3499  0.2185
  159SAPE   O1117721   4.789   4.608   6.475 -0.2453 -0.0728 -0.1399
  159SAPE    C117722   4.867   4.660   6.579  0.3192 -0.9592 -0.2655
  159SAPE    HA17723   4.961   4.715   6.556  0.7965 -0.0877  3.3726
  159SAPE    HB17724   4.799   4.735   6.627  3.0945 -0.5399  3.2824
  159SAPE    C217725   4.887   4.553   6.698 -0.3439  0.0582  0.3275
  159SAPE    HS17726   4.963   4.476   6.671 -0.4282  0.0585  0.0947
  159SAPE   O2117727   4.766   4.473   6.719  0.3984  0.5808 -0.6636
  159SAPE   C2117728   4.670   4.529   6.790 -0.4604 -0.2380 -0.1454
  159SAPE   O2217729   4.662   4.642   6.829 -0.0617 -0.0567 -0.3762
  159SAPE   C2217730   4.564   4.428   6.817  1.0051  0.7684  0.5425
  159SAPE   H2R17731   4.484   4.485   6.867  0.5103  0.3048  0.2882
  159SAPE   H2S17732   4.530   4.388   6.719 -0.3820  0.4126  1.1547
  159SAPE    C317733   4.945   4.633   6.824 -0.7775 -1.1604  0.4950
  159SAPE    HX17734   4.882   4.720   6.852  0.6500  0.2481 -0.5440
  159SAPE    HY17735   5.045   4.666   6.787 -1.7422 -2.0092 -3.0524
  159SAPE   O3117736   4.955   4.547   6.941 -0.2343  0.7233 -0.2463
  159SAPE   C3117737   5.082   4.532   6.994 -0.1613  0.3516  0.0759
  159SAPE   O3217738   5.175   4.602   6.963  0.1710  0.0568  0.6079
  159SAPE   C3217739   5.087   4.418   7.100  0.1700 -0.2529 -0.5187
  159SAPE   H2X17740   5.163   4.341   7.075  1.4790  0.5110  0.9504
  159SAPE   H2Y17741   4.985   4.374   7.109  0.2597 -0.1614  1.0900
  159SAPE   C2317742   4.613   4.303   6.898  0.0476 -0.9087 -0.2554
  159SAPE   H3R17743   4.692   4.248   6.843 -0.3734 -1.1933 -0.5803
  159SAPE   H3S17744   4.535   4.226   6.914 -1.4017  0.4092 -0.8638
  159SAPE   C2417745   4.670   4.350   7.036 -0.2561  0.5491 -0.3679
  159SAPE   H4R17746   4.751   4.424   7.016  0.5747 -0.3831 -0.4818
  159SAPE   H4S17747   4.715   4.262   7.087  3.0871  2.6849  0.5159
  159SAPE   C2517748   4.562   4.416   7.122 -0.2598  0.1936  0.2691
  159SAPE   H5R17749   4.461   4.393   7.085 -0.4786  2.0288 -0.3297
  159SAPE   C2617750   4.583   4.502   7.226  0.0711  0.1642 -1.1671
  159SAPE   H6R17751   4.497   4.548   7.277  0.5153  2.4230 -2.4320
  159SAPE   C2717752   4.716   4.552   7.278  0.0983 -0.0309  0.2449
  159SAPE   H7R17753   4.782   4.463   7.284 -0.3282 -0.3202  0.6701
  159SAPE   H7S17754   4.695   4.563   7.387  0.4073  0.7690  0.2333
  159SAPE   C2817755   4.776   4.671   7.203  0.3371  0.4696  0.1301
  159SAPE   H8R17756   4.790   4.669   7.093 -0.0297  0.1619  0.0892
  159SAPE   C2917757   4.811   4.788   7.260  0.7440 -0.3374  0.4157
  159SAPE   H9R17758   4.852   4.872   7.203 -0.2271  2.4279  3.6374
  159SAPE  C21017759   4.803   4.812   7.402  0.0033 -0.7853  0.2326
  159SAPE  H10R17760   4.890   4.874   7.433 -0.5975 -0.3604  1.1080
  159SAPE  H10S17761   4.823   4.719   7.461  1.5833 -0.2023  0.6249
  159SAPE  C21117762   4.669   4.869   7.450  0.3825 -0.6151 -0.1738
  159SAPE  H11R17763   4.580   4.845   7.390 -1.1120  3.1982  0.4010
  159SAPE  C21217764   4.669   4.953   7.556 -0.2646 -0.7690  0.7558
  159SAPE  H12R17765   4.572   4.975   7.601 -0.6712  0.0149 -0.4768
  159SAPE  C21317766   4.785   4.992   7.641  0.5568  0.1004  0.4854
  159SAPE  H13R17767   4.845   5.061   7.579 -1.3142  0.2978 -1.1653
  159SAPE  H13S17768   4.840   4.902   7.677 -0.3326 -0.6911 -0.1117
  159SAPE  C21417769   4.753   5.062   7.773 -0.5194  0.6814  0.5233
  159SAPE  H14R17770   4.819   5.149   7.791 -0.9137  0.5035  2.9673
  159SAPE  C21517771   4.651   5.039   7.860  0.6026 -0.1510  0.2594
  159SAPE  H15R17772   4.637   5.102   7.949 -4.2364 -0.3614 -0.2578
  159SAPE  C21617773   4.554   4.923   7.860 -0.9438 -0.1449 -1.0156
  159SAPE  H16R17774   4.592   4.844   7.792 -0.9427  2.2837 -3.9877
  159SAPE  H16S17775   4.454   4.953   7.820 -1.4205 -1.6626 -0.9945
  159SAPE  C21717776   4.533   4.864   7.997 -0.6347 -0.3612  0.4504
  159SAPE  H17R17777   4.459   4.781   7.994 -3.0562  1.6777  1.4218
  159SAPE  H17S17778   4.480   4.945   8.052 -1.1148  0.1952 -0.7988
  159SAPE  C21817779   4.654   4.830   8.088 -0.0272  0.4112 -0.4372
  159SAPE  H18R17780   4.631   4.839   8.197 -2.2263 -0.1989 -0.8300
  159SAPE  H18S17781   4.735   4.899   8.058  0.9780 -1.1804 -1.4643
  159SAPE  C21917782   4.693   4.675   8.075  0.0214  0.1491  0.3061
  159SAPE  H19R17783   4.735   4.669   7.972  2.1985  0.2582  1.1464
  159SAPE  H19S17784   4.608   4.607   8.097 -0.6745  0.7053 -0.6340
  159SAPE  C22017785   4.804   4.638   8.172  0.2215  0.5635 -1.2469
  159SAPE  H20R17786   4.837   4.532   8.166  1.1670  0.7134  0.7307
  159SAPE  H20S17787   4.767   4.650   8.277 -1.0240  1.0177 -1.7327
  159SAPE  H20T17788   4.898   4.696   8.173  0.4475  0.2266  0.7909
  159SAPE   C3317789   5.123   4.489   7.232 -0.2594  0.1663 -0.2848
  159SAPE   H3X17790   5.041   4.550   7.276  0.1084 -0.0489  0.7147
  159SAPE   H3Y17791   5.209   4.558   7.227  0.2432 -0.3525  0.8447
  159SAPE   C3417792   5.152   4.400   7.354 -0.3290 -0.4359  0.0118
  159SAPE   H4X17793   5.239   4.344   7.314 -1.1254 -0.7734 -1.2779
  159SAPE   H4Y17794   5.060   4.338   7.367  0.3636 -1.3957  0.3405
  159SAPE   C3517795   5.177   4.484   7.477  1.2143  0.1408 -0.2037
  159SAPE   H5X17796   5.089   4.549   7.495  1.9652  0.3094  3.1244
  159SAPE   H5Y17797   5.266   4.550   7.469  0.0273  1.7176 -0.5282
  159SAPE   C3617798   5.193   4.397   7.598  0.2237  0.0685 -0.6148
  159SAPE   H6X17799   5.293   4.349   7.599  0.2203  0.0223 -1.6586
  159SAPE   H6Y17800   5.119   4.313   7.603  1.9013 -1.3236  2.7802
  159SAPE   C3717801   5.172   4.474   7.722 -0.2528 -0.7017  0.1866
  159SAPE   H7X17802   5.072   4.519   7.738  0.6048  0.0832  3.8062
  159SAPE   H7Y17803   5.254   4.550   7.721  1.2871 -2.3330 -1.9480
  159SAPE   C3817804   5.189   4.395   7.846  0.0920  0.6029  0.5827
  159SAPE   H8X17805   5.266   4.316   7.835 -0.7107 -0.1261  0.1193
  159SAPE   H8Y17806   5.091   4.342   7.849 -0.1739  1.0644  0.1712
  159SAPE   C3917807   5.220   4.476   7.976  0.2243 -0.1726  0.7406
  159SAPE   H9X17808   5.189   4.583   7.974  0.6618 -0.0560 -0.4103
  159SAPE   H9Y17809   5.332   4.476   7.980  0.2272  2.5695  2.7085
  159SAPE  C31017810   5.156   4.401   8.093 -0.1029 -0.2253 -0.7517
  159SAPE  H10X17811   5.163   4.290   8.094  1.6201 -0.1826 -3.4367
  159SAPE  H10Y17812   5.047   4.399   8.070 -0.4595 -0.8413  0.9001
  159SAPE  C31117813   5.189   4.464   8.233  0.5933 -0.4318 -0.6984
  159SAPE  H11X17814   5.159   4.569   8.211  1.4234  0.4842  2.3234
  159SAPE  H11Y17815   5.299   4.463   8.248  0.3503 -1.8075  1.0854
  159SAPE  C31217816   5.108   4.403   8.336  0.2311 -0.4008 -0.2398
  159SAPE  H12X17817   5.134   4.295   8.341 -2.4642 -1.0521  0.3361
  159SAPE  H12Y17818   5.000   4.412   8.314  0.1643  0.4698  0.4253
  159SAPE  C31317819   5.127   4.462   8.471 -1.0524  0.5868  0.4938
  159SAPE  H13X17820   5.105   4.571   8.471 -2.7681  0.2504  0.2956
  159SAPE  H13Y17821   5.231   4.451   8.510 -1.5825 -0.3443  1.6960
  159SAPE  C31417822   5.035   4.373   8.563 -0.3447 -0.4520 -0.0335
  159SAPE  H14X17823   5.040   4.262   8.559 -2.1313 -0.5090 -1.2145
  159SAPE  H14Y17824   4.935   4.400   8.524  0.4742  1.3631 -0.9762
  159SAPE  C31517825   5.044   4.413   8.709  0.2444 -0.4553  0.1946
  159SAPE  H15X17826   5.044   4.523   8.727  1.6764 -0.1548 -1.5711
  159SAPE  H15Y17827   5.139   4.379   8.755  0.7370  1.3505  0.5499
  159SAPE  C31617828   4.923   4.357   8.788 -0.4939 -0.7604  0.0627
  159SAPE  H16X17829   4.833   4.421   8.781 -0.6364 -0.9928 -0.2658
  159SAPE  H16Y17830   4.957   4.374   8.892 -0.6877 -1.6669  0.2812
  159SAPE  C31717831   4.880   4.207   8.758 -0.7742 -0.2817  0.3573
  159SAPE  H17X17832   4.836   4.214   8.656 -1.2490  1.3091  0.6685
  159SAPE  H17Y17833   4.804   4.173   8.831 -1.5523  1.0671  0.1839
  159SAPE  C31817834   4.985   4.093   8.754 -0.4270 -1.0741  0.0228
  159SAPE  H18X17835   5.065   4.135   8.689  0.2437  0.6382  1.8868
  159SAPE  H18Y17836   4.949   4.002   8.702 -1.6501 -1.3480  1.3133
  159SAPE  H18Z17837   5.015   4.078   8.860 -1.1585  0.6095  0.5019
  160SAPE     N17838   4.864   3.356   6.099  0.6450 -0.1082 -0.0873
  160SAPE   HN117839   4.959   3.364   6.058  1.4964 -1.5409  1.5210
  160SAPE   HN217840   4.804   3.303   6.033  1.6767 -0.9060 -0.4068
  160SAPE   HN317841   4.818   3.449   6.100 -0.4188 -0.6295  0.9143
  160SAPE   C1217842   4.868   3.316   6.240 -0.4199  0.0388 -0.4456
  160SAPE  H12A17843   4.969   3.285   6.274  0.3496  1.6772 -1.2041
  160SAPE  H12B17844   4.802   3.227   6.242  0.7033 -0.7902  1.6718
  160SAPE   C1117845   4.822   3.431   6.336  0.1726 -0.1109 -0.8173
  160SAPE  H11A17846   4.905   3.505   6.340  1.2698 -1.4167  1.4277
  160SAPE  H11B17847   4.797   3.377   6.430  1.0718 -1.5816 -1.4009
  160SAPE     P17848   4.637   3.615   6.370 -0.2391  0.4860 -0.3555
  160SAPE   O1317849   4.721   3.738   6.370 -0.1452  0.5509 -0.2565
  160SAPE   O1417850   4.500   3.637   6.315  0.5778 -0.2202 -0.2946
  160SAPE   O1217851   4.708   3.501   6.291  0.5474 -0.7931  0.3266
  160SAPE   O1117852   4.610   3.566   6.522  0.1170 -0.2007 -0.5633
  160SAPE    C117853   4.545   3.441   6.555 -1.2788 -0.0516 -0.0765
  160SAPE    HA17854   4.437   3.449   6.531 -1.5421 -0.7524  0.8528
  160SAPE    HB17855   4.591   3.358   6.497  2.4744 -0.6841  3.5548
  160SAPE    C217856   4.566   3.399   6.710  0.0173  0.3091 -0.0251
  160SAPE    HS17857   4.520   3.300   6.726  0.6105  0.1963  1.0042
  160SAPE   O2117858   4.513   3.493   6.795 -0.4407 -0.0227  0.7776
  160SAPE   C2117859   4.384   3.488   6.823 -0.0433  0.4441  0.1151
  160SAPE   O2217860   4.308   3.401   6.784  0.3548  0.1486  0.3656
  160SAPE   C2217861   4.347   3.617   6.903 -0.5205  0.9889 -0.3699
  160SAPE   H2R17862   4.368   3.707   6.841 -0.6553  1.2908  0.0247
  160SAPE   H2S17863   4.242   3.608   6.938 -1.0782  2.3141 -1.6609
  160SAPE    C317864   4.714   3.390   6.736 -0.2331  0.0008  0.0454
  160SAPE    HX17865   4.778   3.466   6.687 -0.9979  0.3415 -0.4378
  160SAPE    HY17866   4.747   3.289   6.704 -0.4656  0.0854 -0.4613
  160SAPE   O3117867   4.740   3.408   6.876  0.5282 -0.5896 -0.1911
  160SAPE   C3117868   4.694   3.306   6.955 -0.7700  0.1326 -0.2350
  160SAPE   O3217869   4.658   3.199   6.915  0.2020 -0.4991 -0.1824
  160SAPE   C3217870   4.713   3.352   7.101  0.6303  0.0063  0.0802
  160SAPE   H2X17871   4.683   3.457   7.124 -2.4970 -0.9259  0.3719
  160SAPE   H2Y17872   4.823   3.355   7.116  0.8030  0.3767 -1.2428
  160SAPE   C2317873   4.434   3.634   7.028 -0.1557 -0.0312  0.2878
  160SAPE   H3R17874   4.453   3.742   7.046  0.2744  0.0661 -0.7632
  160SAPE   H3S17875   4.539   3.597   7.021 -0.2339 -0.4991  1.4164
  160SAPE   C2417876   4.372   3.571   7.151 -0.2567  0.1397  0.2835
  160SAPE   H4R17877   4.443   3.511   7.210 -0.1720 -0.4862 -0.4514
  160SAPE   H4S17878   4.299   3.493   7.121  0.8209 -2.3898  4.0466
  160SAPE   C2517879   4.284   3.659   7.234 -0.6235 -0.4780  0.4266
  160SAPE   H5R17880   4.190   3.687   7.183 -0.5920 -1.2869 -0.0750
  160SAPE   C2617881   4.313   3.708   7.353 -0.8872  0.2462  0.2182
  160SAPE   H6R17882   4.243   3.785   7.388 -0.3669  1.4027 -1.2130
  160SAPE   C2717883   4.438   3.687   7.438  0.3418 -0.5738  0.5772
  160SAPE   H7R17884   4.520   3.628   7.393  0.8815 -0.6379  1.6161
  160SAPE   H7S17885   4.399   3.625   7.522 -0.9225 -2.3392 -1.2877
  160SAPE   C2817886   4.481   3.808   7.510 -0.8552  0.3482  0.1374
  160SAPE   H8R17887   4.397   3.878   7.522 -1.2351  0.0326 -0.7112
  160SAPE   C2917888   4.594   3.829   7.582  0.7236  0.3995 -0.0267
  160SAPE   H9R17889   4.599   3.909   7.658  0.4536  0.7785 -0.4028
  160SAPE  C21017890   4.713   3.743   7.568 -0.8930 -0.2506  0.2350
  160SAPE  H10R17891   4.806   3.799   7.593  0.8239 -3.3448  0.9748
  160SAPE  H10S17892   4.724   3.724   7.460  2.6475  1.6369  0.1888
  160SAPE  C21117893   4.706   3.617   7.651 -0.9592  0.3816 -0.4476
  160SAPE  H11R17894   4.615   3.559   7.633 -0.8700 -0.4567  1.7181
  160SAPE  C21217895   4.779   3.583   7.758  0.2113  0.0901  0.2979
  160SAPE  H12R17896   4.755   3.484   7.800  3.1169 -0.3582  1.0034
  160SAPE  C21317897   4.899   3.657   7.815 -0.4073  0.1974  0.8433
  160SAPE  H13R17898   4.863   3.749   7.864  1.6644  2.0263 -0.9789
  160SAPE  H13S17899   4.970   3.690   7.737 -0.6624  1.1833  1.0294
  160SAPE  C21417900   4.978   3.563   7.907 -0.0626  0.6115 -0.9293
  160SAPE  H14R17901   4.935   3.542   8.006  0.7284 -0.6641 -0.8346
  160SAPE  C21517902   5.095   3.500   7.880 -1.1517 -0.6100 -0.4104
  160SAPE  H15R17903   5.158   3.455   7.959  0.6141 -1.2757 -2.1719
  160SAPE  C21617904   5.172   3.507   7.751  0.3364  0.6109 -0.4255
  160SAPE  H16R17905   5.223   3.606   7.744  1.3533  0.3654  2.7260
  160SAPE  H16S17906   5.107   3.488   7.663 -0.8336  2.2173  0.0604
  160SAPE  C21717907   5.283   3.391   7.743  0.1254  0.0909  0.0578
  160SAPE  H17R17908   5.231   3.293   7.748  1.3868 -0.6779 -1.3992
  160SAPE  H17S17909   5.338   3.422   7.834 -2.4739  1.9968  1.0343
  160SAPE  C21817910   5.366   3.398   7.616 -0.0900 -1.0333  0.6744
  160SAPE  H18R17911   5.404   3.502   7.608  0.1740 -1.0238  1.9676
  160SAPE  H18S17912   5.310   3.377   7.523 -2.2638  0.3147  1.6448
  160SAPE  C21917913   5.494   3.309   7.622 -0.6231  0.5557  0.1848
  160SAPE  H19R17914   5.479   3.201   7.639  0.0060  0.3644 -0.4405
  160SAPE  H19S17915   5.557   3.347   7.706  0.3793 -1.7247  0.5002
  160SAPE  C22017916   5.587   3.319   7.496 -0.3621  0.2904 -0.2473
  160SAPE  H20R17917   5.597   3.425   7.462  3.6351  0.3919  0.9213
  160SAPE  H20S17918   5.546   3.270   7.405  1.0995 -0.0353 -0.7561
  160SAPE  H20T17919   5.693   3.287   7.507 -0.1522  0.9359 -0.3676
  160SAPE   C3317920   4.656   3.267   7.206  0.1187  0.4687 -0.1185
  160SAPE   H3X17921   4.665   3.162   7.171 -2.1031  0.3713 -0.4639
  160SAPE   H3Y17922   4.547   3.289   7.214 -0.1769 -0.9920  0.0101
  160SAPE   C3417923   4.720   3.293   7.343 -0.1923 -0.2853 -0.0363
  160SAPE   H4X17924   4.720   3.403   7.363 -0.9166 -0.5661  1.5865
  160SAPE   H4Y17925   4.827   3.263   7.343  0.1568  0.9318  0.0974
  160SAPE   C3517926   4.646   3.221   7.455 -0.2191  0.1082 -0.0632
  160SAPE   H5X17927   4.633   3.114   7.427 -0.5784  0.5890 -1.8057
  160SAPE   H5Y17928   4.541   3.257   7.460  0.2999  1.6630 -0.2046
  160SAPE   C3617929   4.726   3.244   7.586 -0.4345  0.0984  0.4398
  160SAPE   H6X17930   4.801   3.326   7.580 -1.8864  1.4032 -0.3092
  160SAPE   H6Y17931   4.783   3.150   7.602 -3.3415 -1.9738 -0.8953
  160SAPE   C3717932   4.644   3.255   7.710 -0.3583  0.0129 -0.2114
  160SAPE   H7X17933   4.552   3.197   7.686 -0.8377 -0.0207  1.6276
  160SAPE   H7Y17934   4.615   3.361   7.723  0.9361  0.2271  1.0173
  160SAPE   C3817935   4.700   3.204   7.844  0.4341 -0.3656  0.5457
  160SAPE   H8X17936   4.795   3.255   7.871  0.3781  0.8032 -1.4103
  160SAPE   H8Y17937   4.728   3.097   7.848 -0.8835 -0.7710 -0.6949
  160SAPE   C3917938   4.598   3.218   7.955 -0.5967 -0.0648 -0.2335
  160SAPE   H9X17939   4.502   3.185   7.909  0.3675 -2.4729 -0.5649
  160SAPE   H9Y17940   4.586   3.325   7.982 -2.5309 -0.6303  1.1963
  160SAPE  C31017941   4.641   3.154   8.088  0.5063 -0.4892 -0.3489
  160SAPE  H10X17942   4.735   3.205   8.120  0.7156 -0.5888 -0.8034
  160SAPE  H10Y17943   4.655   3.045   8.075  0.2439 -0.5169 -0.3971
  160SAPE  C31117944   4.529   3.199   8.184 -0.2932 -0.4980  0.5792
  160SAPE  H11X17945   4.517   3.309   8.182 -1.9252 -0.6684 -0.1771
  160SAPE  H11Y17946   4.550   3.182   8.292  2.0572  0.1443  0.2475
  160SAPE  C31217947   4.386   3.145   8.150  0.2147  0.4735 -0.6546
  160SAPE  H12X17948   4.375   3.040   8.117 -2.1911 -0.8131  3.7786
  160SAPE  H12Y17949   4.336   3.201   8.068  0.7393  1.5959 -0.2201
  160SAPE  C31317950   4.293   3.146   8.276 -0.3775 -0.0719 -0.1304
  160SAPE  H13X17951   4.340   3.068   8.340  0.2178  0.8050  0.5127
  160SAPE  H13Y17952   4.188   3.120   8.251 -0.6139  1.1763 -0.4352
  160SAPE  C31417953   4.291   3.282   8.342 -0.5976  0.8025 -0.1214
  160SAPE  H14X17954   4.298   3.365   8.268  3.0179  0.5366 -0.1764
  160SAPE  H14Y17955   4.385   3.297   8.399 -0.6816 -2.0233  0.8145
  160SAPE  C31517956   4.168   3.302   8.429 -0.6088 -0.5533  0.6025
  160SAPE  H15X17957   4.150   3.216   8.497 -1.0894 -0.7507  0.2271
  160SAPE  H15Y17958   4.079   3.296   8.363 -1.3116  0.6593  1.4173
  160SAPE  C31617959   4.153   3.430   8.504 -1.0734  0.0093  0.6153
  160SAPE  H16X17960   4.192   3.519   8.450  0.0474 -0.3828  0.7724
  160SAPE  H16Y17961   4.199   3.429   8.605  0.5130  0.3201 -0.0860
  160SAPE  C31717962   4.005   3.458   8.541  0.1481 -0.3160  1.0846
  160SAPE  H17X17963   3.956   3.366   8.581 -2.4785  0.2441 -0.7716
  160SAPE  H17Y17964   3.948   3.473   8.447 -0.6940 -2.6060  1.1823
  160SAPE  C31817965   3.993   3.585   8.626  0.5060 -0.2178  0.0654
  160SAPE  H18X17966   3.886   3.615   8.629  1.0066  1.7908 -1.3596
  160SAPE  H18Y17967   4.053   3.668   8.584 -1.7642  2.2495  1.4567
  160SAPE  H18Z17968   4.026   3.570   8.731 -1.8281 -0.1892  0.8433
  161SOPE     N17969   4.869   5.159  10.501 -0.5451  0.0334  0.4838
  161SOPE   HN117970   4.846   5.124  10.406 -1.3479  0.8978  0.3542
  161SOPE   HN217971   4.970   5.137  10.515  0.2169  1.1400 -2.6687
  161SOPE   HN317972   4.801   5.123  10.570 -1.0006  0.0311  0.0378
  161SOPE   C1217973   4.868   5.315  10.505  0.2769  0.0164 -0.2380
  161SOPE  H12A17974   4.875   5.354  10.401 -0.6076  0.8949  0.0257
  161SOPE  H12B17975   4.960   5.345  10.561 -0.3601  1.1146  0.2416
  161SOPE   C1117976   4.734   5.364  10.580  0.0262 -0.0480 -0.5380
  161SOPE  H11A17977   4.730   5.475  10.584 -0.7789 -0.0518 -1.2618
  161SOPE  H11B17978   4.734   5.331  10.687  1.5940 -1.3933 -0.9331
  161SOPE     P17979   4.534   5.206  10.558  0.1718  0.1819 -0.2047
  161SOPE   O1317980   4.456   5.230  10.682 -0.0709  0.1322 -0.3349
  161SOPE   O1417981   4.618   5.083  10.552  0.1926  0.0001 -0.1685
  161SOPE   O1217982   4.612   5.332  10.515 -0.3409 -0.5588 -0.4809
  161SOPE   O1117983   4.429   5.185  10.447 -0.8650 -0.2670  0.7398
  161SOPE    C117984   4.371   5.288  10.370  0.0771  0.2754  0.1374
  161SOPE    HA17985   4.393   5.391  10.404  0.5252  0.2331 -0.0322
  161SOPE    HB17986   4.263   5.266  10.386  0.2245 -1.3094 -0.8783
  161SOPE    C217987   4.391   5.254  10.223  0.2359 -0.2947  0.0105
  161SOPE    HS17988   4.353   5.334  10.155  0.6200  1.3806  1.7098
  161SOPE   O2117989   4.325   5.134  10.189 -0.1270  0.3007 -0.5162
  161SOPE   C2117990   4.197   5.146  10.160  0.1927  0.1517  0.3206
  161SOPE   O2217991   4.134   5.249  10.148 -0.2349  0.0071 -0.1399
  161SOPE   C2217992   4.133   5.017  10.142 -0.1189  0.4323 -0.2434
  161SOPE   H2R17993   4.138   4.954  10.233 -0.9204  1.4943  0.5469
  161SOPE   H2S17994   4.194   4.968  10.064 -1.4498  0.9102 -1.6171
  161SOPE    C317995   4.542   5.243  10.184 -0.6947 -0.2595 -0.4214
  161SOPE    HX17996   4.582   5.142  10.207  2.0217  0.6889 -0.8202
  161SOPE    HY17997   4.602   5.313  10.246 -1.0188 -2.9888  3.1422
  161SOPE   O3117998   4.551   5.278  10.046  0.2251 -0.1521 -0.1366
  161SOPE   C3117999   4.546   5.178   9.960  1.1688  0.0431  0.2747
  161SOPE   O3218000   4.541   5.058   9.986  0.1572 -0.2751 -0.0700
  161SOPE   C3218001   4.533   5.232   9.818 -0.0561 -0.4139  0.2944
  161SOPE   H2X18002   4.632   5.273   9.788 -0.8568  1.3067 -0.0592
  161SOPE   H2Y18003   4.449   5.305   9.819  0.2416 -0.0622 -0.2437
  161SOPE   C2318004   4.000   5.019  10.067  0.5774 -0.0300 -0.2164
  161SOPE   H3R18005   3.974   4.920  10.024 -1.0838 -0.3554  1.5061
  161SOPE   H3S18006   3.997   5.093   9.984  0.9101  1.7649  1.3280
  161SOPE   C2418007   3.882   5.045  10.166  0.5497 -0.0560 -0.2890
  161SOPE   H4R18008   3.886   4.971  10.249 -4.0458  1.0701  1.1430
  161SOPE   H4S18009   3.899   5.146  10.209 -1.3748 -0.6828  2.0429
  161SOPE   C2518010   3.746   5.055  10.099  0.4061 -0.3329 -0.5096
  161SOPE   H5R18011   3.747   5.136  10.023  0.3675 -0.1233 -0.2901
  161SOPE   H5S18012   3.734   4.963  10.038 -0.2870 -0.5829 -0.0117
  161SOPE   C2618013   3.623   5.059  10.188 -0.3612  0.9579 -0.1394
  161SOPE   H6R18014   3.654   5.042  10.293 -1.3815  1.9202  0.3340
  161SOPE   H6S18015   3.582   5.162  10.186  0.4445  1.4336  4.2058
  161SOPE   C2718016   3.521   4.951  10.137  0.0258 -0.4808  0.3192
  161SOPE   H7R18017   3.568   4.850  10.142  2.4670  0.6932  1.7096
  161SOPE   H7S18018   3.430   4.955  10.201  1.5505  0.8502  2.4736
  161SOPE   C2818019   3.476   4.959   9.990 -0.0952 -0.2469  0.1844
  161SOPE   H8R18020   3.565   4.936   9.928 -1.3040  0.6646 -1.9503
  161SOPE   H8S18021   3.400   4.880   9.974 -0.1452 -0.3040  0.6969
  161SOPE   C2918022   3.419   5.093   9.941 -0.8959  0.5189  0.1855
  161SOPE   H9118023   3.346   5.137  10.011  0.3810  3.4836 -0.2792
  161SOPE  C21018024   3.472   5.177   9.847 -0.3817  0.3607  0.0110
  161SOPE  H10118025   3.426   5.277   9.844 -0.0846  0.4603 -1.3734
  161SOPE  C21118026   3.579   5.139   9.748  0.1550  0.2374  0.3785
  161SOPE  H11R18027   3.643   5.056   9.784 -0.4070  0.1974  1.2961
  161SOPE  H11S18028   3.656   5.218   9.736  0.1189  0.1170 -0.7109
  161SOPE  C21218029   3.520   5.087   9.622  0.5506 -0.0882 -0.6271
  161SOPE  H12R18030   3.462   5.161   9.563  0.9928  0.0879 -0.8487
  161SOPE  H12S18031   3.450   5.005   9.646 -0.1341  0.3073 -1.2728
  161SOPE  C21318032   3.629   5.043   9.518  0.4186 -0.2564  0.1090
  161SOPE  H13R18033   3.679   4.952   9.557  0.3393  0.1347  1.1348
  161SOPE  H13S18034   3.710   5.116   9.498 -1.7091  1.9740 -0.5444
  161SOPE  C21418035   3.566   5.005   9.376 -0.1371 -0.3168 -0.4465
  161SOPE  H14R18036   3.527   5.098   9.329  0.6070  0.8236  1.1344
  161SOPE  H14S18037   3.484   4.938   9.407 -0.7803  0.3255 -0.7515
  161SOPE  C21518038   3.648   4.935   9.273 -0.0991 -0.1833 -0.1962
  161SOPE  H15R18039   3.685   4.841   9.318  0.4919  0.8235  1.4514
  161SOPE  H15S18040   3.727   5.010   9.252 -0.8749  0.5371 -0.5900
  161SOPE  C21618041   3.574   4.902   9.143  0.4150 -0.4894 -0.2282
  161SOPE  H16R18042   3.560   5.002   9.096  0.0525 -0.6058 -0.3756
  161SOPE  H16S18043   3.474   4.866   9.174 -1.1527  1.4221 -2.8213
  161SOPE  C21718044   3.640   4.797   9.043 -0.3745  0.3016 -0.3832
  161SOPE  H17R18045   3.570   4.785   8.957 -1.6662  1.2680  0.5044
  161SOPE  H17S18046   3.642   4.699   9.095  1.7449  0.6809  0.2871
  161SOPE  C21818047   3.783   4.835   8.995  0.3209 -0.4842  0.3640
  161SOPE  H18R18048   3.811   4.760   8.917  2.2711  0.2023  0.3872
  161SOPE  H18S18049   3.858   4.822   9.075  0.4356  1.7732  0.6454
  161SOPE  H18T18050   3.790   4.938   8.955 -0.4364 -1.0024 -1.1614
  161SOPE   C3318051   4.489   5.130   9.709 -0.1232 -0.5467  0.5169
  161SOPE   H3X18052   4.399   5.088   9.758 -1.9443  1.5732 -0.9014
  161SOPE   H3Y18053   4.566   5.050   9.699 -1.1310 -1.6542  1.4642
  161SOPE   C3418054   4.425   5.194   9.582  0.3212 -0.0745  0.0847
  161SOPE   H4X18055   4.484   5.284   9.557  0.6733  0.2866  2.1393
  161SOPE   H4Y18056   4.325   5.230   9.617  0.0071  0.7162 -1.6121
  161SOPE   C3518057   4.399   5.105   9.462  0.3036  0.1033 -0.1123
  161SOPE   H5X18058   4.370   5.002   9.491 -0.2278 -0.7618 -3.5152
  161SOPE   H5Y18059   4.495   5.081   9.411  1.0637 -0.4543  1.5164
  161SOPE   C3618060   4.298   5.163   9.364 -0.3060 -0.1093 -0.3263
  161SOPE   H6X18061   4.346   5.248   9.313 -1.4045  1.1966  0.7862
  161SOPE   H6Y18062   4.201   5.194   9.410 -0.1731 -0.2061  0.0184
  161SOPE   C3718063   4.241   5.065   9.255 -0.2994 -0.4240 -0.8727
  161SOPE   H7X18064   4.204   4.972   9.304 -0.1688 -1.5177 -2.7670
  161SOPE   H7Y18065   4.329   5.036   9.194 -0.6488  4.0200 -3.6993
  161SOPE   C3818066   4.130   5.116   9.163 -0.0913  0.7656 -0.1698
  161SOPE   H8X18067   4.146   5.226   9.164  3.1387  0.3551  2.8231
  161SOPE   H8Y18068   4.030   5.106   9.210  0.4501  1.6143  1.1950
  161SOPE   C3918069   4.138   5.057   9.024  0.4922 -0.5305  0.4007
  161SOPE   H9X18070   4.092   4.956   9.015  0.9840 -0.7732  0.5964
  161SOPE   H9Y18071   4.245   5.054   8.996  0.8423 -0.7477  1.7373
  161SOPE  C31018072   4.056   5.135   8.927  0.2880 -0.2705 -0.4883
  161SOPE  H10X18073   4.092   5.240   8.918 -3.1325  0.8587 -1.5488
  161SOPE  H10Y18074   3.949   5.138   8.954  0.2499  1.8481 -0.7520
  161SOPE  C31118075   4.046   5.063   8.790 -0.3578  0.3084  0.0242
  161SOPE  H11X18076   3.993   4.967   8.807 -0.5757  0.5820  0.9370
  161SOPE  H11Y18077   4.146   5.036   8.751 -0.8380 -0.2787 -0.8146
  161SOPE  C31218078   3.970   5.143   8.687 -0.6605  0.0305 -0.3225
  161SOPE  H12X18079   3.992   5.089   8.593 -1.2794 -0.9045  0.0659
  161SOPE  H12Y18080   4.016   5.245   8.680  0.5325 -0.4757 -0.0216
  161SOPE  C31318081   3.818   5.137   8.706  0.0889  0.1285 -0.4584
  161SOPE  H13X18082   3.796   5.165   8.811  0.3312  1.4242 -0.7373
  161SOPE  H13Y18083   3.777   5.034   8.704 -1.4947  0.7526 -2.4757
  161SOPE  C31418084   3.735   5.217   8.601  0.3867 -0.2113 -0.6433
  161SOPE  H14X18085   3.749   5.180   8.497 -0.6529  1.0014 -1.2176
  161SOPE  H14Y18086   3.785   5.316   8.597 -0.7637  0.4560  1.1968
  161SOPE  C31518087   3.585   5.224   8.627  0.0215 -0.0157 -0.6383
  161SOPE  H15X18088   3.569   5.269   8.727  1.7235  0.5880 -0.6188
  161SOPE  H15Y18089   3.532   5.127   8.627  0.2051 -0.1160 -0.4350
  161SOPE  C31618090   3.517   5.322   8.523  0.4264 -0.3782 -0.3207
  161SOPE  H16X18091   3.524   5.259   8.431  0.0973 -0.1700 -0.4898
  161SOPE  H16Y18092   3.574   5.416   8.511  1.8295 -1.0250  1.1261
  161SOPE  C31718093   3.373   5.356   8.547 -0.0784  0.4336 -0.1156
  161SOPE  H17X18094   3.303   5.272   8.527  0.5306  0.2815 -1.6404
  161SOPE  H17Y18095   3.349   5.430   8.468  0.8262 -0.7336 -1.5054
  161SOPE  C31818096   3.355   5.419   8.691 -0.5642  0.0141  0.6105
  161SOPE  H18X18097   3.439   5.490   8.704 -0.5834 -0.0517  1.1223
  161SOPE  H18Y18098   3.372   5.348   8.775 -0.2160  1.6741  1.9807
  161SOPE  H18Z18099   3.254   5.460   8.710  0.1475  1.9987  0.2029
  162SOPE     N18100   2.766   4.452  11.130  0.0269  0.0928  0.6003
  162SOPE   HN118101   2.721   4.445  11.224  0.0112  0.2327  0.6049
  162SOPE   HN218102   2.720   4.530  11.078 -0.6616 -1.8495 -1.8234
  162SOPE   HN318103   2.748   4.363  11.079  0.3078 -1.2004  2.7318
  162SOPE   C1218104   2.910   4.490  11.128 -0.2377  0.3871  0.0549
  162SOPE  H12A18105   2.970   4.410  11.178  1.9992  1.6683 -0.4983
  162SOPE  H12B18106   2.930   4.582  11.188 -0.2306  1.4538 -1.5638
  162SOPE   C1118107   2.960   4.503  10.984  1.1938 -0.1712  0.6569
  162SOPE  H11A18108   2.935   4.411  10.927 -0.5278  0.2742  0.6777
  162SOPE  H11B18109   3.068   4.527  10.989  1.3145 -0.1277 -1.8352
  162SOPE     P18110   2.968   4.737  10.864 -0.0444  0.0893 -0.1265
  162SOPE   O1318111   3.072   4.699  10.766 -0.1571 -0.1331  0.6573
  162SOPE   O1418112   3.008   4.822  10.976  0.0083  0.6014 -0.2262
  162SOPE   O1218113   2.888   4.605  10.921  0.1994  0.1220 -0.1003
  162SOPE   O1118114   2.859   4.814  10.785  0.2481  0.2341  0.2243
  162SOPE    C118115   2.809   4.730  10.677 -0.0208 -0.1869  0.0096
  162SOPE    HA18116   2.749   4.649  10.725  1.5117 -2.1853 -1.3679
  162SOPE    HB18117   2.879   4.675  10.611  0.8174 -1.2678  1.7469
  162SOPE    C218118   2.695   4.803  10.592 -0.6737  0.5553 -0.0386
  162SOPE    HS18119   2.624   4.728  10.549  0.4605  0.0380 -1.0680
  162SOPE   O2118120   2.745   4.893  10.490 -0.6833  0.4721  0.0860
  162SOPE   C2118121   2.798   4.838  10.382  0.2939 -0.7442 -0.1435
  162SOPE   O2218122   2.816   4.717  10.370  0.2585 -0.2081  0.3398
  162SOPE   C2218123   2.842   4.950  10.287 -0.3497  0.4627 -0.0290
  162SOPE   H2R18124   2.891   5.034  10.340  1.7827 -0.4817 -0.4533
  162SOPE   H2S18125   2.750   4.987  10.236  0.4730  0.5869 -1.4421
  162SOPE    C318126   2.603   4.880  10.694 -0.6360  0.8526  0.5782
  162SOPE    HX18127   2.655   4.959  10.753 -2.2144  2.6493 -0.3879
  162SOPE    HY18128   2.564   4.812  10.773 -0.8841 -0.3081 -0.5383
  162SOPE   O3118129   2.497   4.943  10.620 -0.3267  0.5962  0.0935
  162SOPE   C3118130   2.393   4.867  10.598 -0.0491  0.3956 -0.1092
  162SOPE   O3218131   2.377   4.754  10.641  0.5516  0.4944  0.3426
  162SOPE   C3218132   2.295   4.937  10.507 -0.1977  0.0764 -0.0278
  162SOPE   H2X18133   2.300   5.042  10.544 -0.9570  0.3457 -0.6621
  162SOPE   H2Y18134   2.198   4.887  10.529  0.4943 -1.1718  0.1871
  162SOPE   C2318135   2.921   4.901  10.165 -0.0488 -0.7029  0.3078
  162SOPE   H3R18136   2.908   4.989  10.098  0.0684 -0.2804  0.8367
  162SOPE   H3S18137   2.876   4.815  10.112  0.8913 -1.1483  0.2132
  162SOPE   C2418138   3.067   4.864  10.191 -0.3415  0.1872 -0.2025
  162SOPE   H4R18139   3.107   4.937  10.264  0.3697  0.1789 -0.5767
  162SOPE   H4S18140   3.070   4.769  10.248  2.6506 -0.0553 -0.6571
  162SOPE   C2518141   3.156   4.859  10.069 -0.4378  0.7531 -0.5083
  162SOPE   H5R18142   3.179   4.959  10.026 -2.5424  0.6564 -1.9281
  162SOPE   H5S18143   3.256   4.814  10.089 -0.8283  1.0228  2.2578
  162SOPE   C2618144   3.103   4.769   9.952 -0.2136  0.1611  0.3644
  162SOPE   H6R18145   3.192   4.717   9.910  0.9393  1.0653  1.6467
  162SOPE   H6S18146   3.047   4.688  10.004  1.4455  0.1209  2.1481
  162SOPE   C2718147   3.027   4.850   9.844 -0.5191  0.2588 -0.8935
  162SOPE   H7R18148   2.920   4.828   9.863 -0.4205  1.7874  1.6525
  162SOPE   H7S18149   3.057   4.957   9.839  0.0041  0.1093 -1.0536
  162SOPE   C2818150   3.036   4.794   9.698 -0.7861  0.0141 -0.6656
  162SOPE   H8R18151   2.988   4.695   9.679  0.1154 -0.9000  1.5576
  162SOPE   H8S18152   2.990   4.875   9.638  3.3661  4.0009  1.2192
  162SOPE   C2918153   3.181   4.782   9.653 -0.7538 -0.2412  0.4842
  162SOPE   H9118154   3.257   4.814   9.726 -0.8052 -2.1523  1.4167
  162SOPE  C21018155   3.222   4.765   9.523 -0.0561 -0.2762  0.1864
  162SOPE  H10118156   3.331   4.770   9.508 -0.2086  3.0945 -0.2263
  162SOPE  C21118157   3.135   4.759   9.403  0.1422 -0.5835  0.2151
  162SOPE  H11R18158   3.094   4.859   9.381 -0.6986 -0.9272  0.2170
  162SOPE  H11S18159   3.065   4.674   9.416 -2.2745  1.3158 -0.1289
  162SOPE  C21218160   3.218   4.704   9.288  0.6085 -0.1930  0.0581
  162SOPE  H12R18161   3.267   4.608   9.314  0.9094  0.1810  0.8837
  162SOPE  H12S18162   3.294   4.783   9.266  1.8008 -0.7969  1.8929
  162SOPE  C21318163   3.136   4.677   9.154 -0.3793 -0.9031 -0.3701
  162SOPE  H13R18164   3.061   4.752   9.123 -0.9308 -1.6253 -0.8099
  162SOPE  H13S18165   3.076   4.591   9.191 -2.8527  1.6074  1.6305
  162SOPE  C21418166   3.237   4.657   9.037 -0.1180  0.2359  0.3295
  162SOPE  H14R18167   3.302   4.571   9.062 -0.6852 -0.5099 -0.7406
  162SOPE  H14S18168   3.291   4.750   9.012  0.5174  0.4391  2.3681
  162SOPE  C21518169   3.162   4.605   8.912  0.6625  0.4943  0.0722
  162SOPE  H15R18170   3.083   4.676   8.880 -0.6365 -0.0937  1.9415
  162SOPE  H15S18171   3.110   4.511   8.937 -0.8877  0.5822 -2.6016
  162SOPE  C21618172   3.249   4.583   8.780  0.2312 -0.2331 -0.4989
  162SOPE  H16R18173   3.325   4.505   8.802  0.1913 -0.3282 -0.6939
  162SOPE  H16S18174   3.319   4.665   8.754  0.6984 -0.3214  0.4751
  162SOPE  C21718175   3.162   4.529   8.659  0.6688 -1.4398  0.3192
  162SOPE  H17R18176   3.132   4.425   8.684 -1.7074 -0.1553  3.0632
  162SOPE  H17S18177   3.233   4.517   8.574 -1.4812 -0.2629 -1.7095
  162SOPE  C21818178   3.053   4.621   8.613  0.5544  0.1150  0.1513
  162SOPE  H18R18179   3.004   4.583   8.521 -2.0504  1.4771  0.9537
  162SOPE  H18S18180   3.096   4.722   8.597  1.6768 -0.1033  1.7243
  162SOPE  H18T18181   2.974   4.635   8.689 -0.0885 -2.2782 -0.0255
  162SOPE   C3318182   2.341   4.930  10.359 -0.0984  0.5630 -1.2200
  162SOPE   H3X18183   2.250   4.962  10.304 -0.3136  1.0886 -0.5617
  162SOPE   H3Y18184   2.364   4.828  10.320  1.9846 -0.2772  2.0139
  162SOPE   C3418185   2.448   5.027  10.326 -0.2603 -0.0626 -0.9448
  162SOPE   H4X18186   2.549   4.988  10.350 -0.2859  0.3754 -0.1036
  162SOPE   H4Y18187   2.436   5.116  10.392 -1.1703  0.3400 -1.6471
  162SOPE   C3518188   2.444   5.063  10.177 -0.0531 -0.2422 -0.1970
  162SOPE   H5X18189   2.509   5.153  10.169 -0.5479  0.0176 -1.4367
  162SOPE   H5Y18190   2.341   5.100  10.157  0.9878  3.3227  0.7358
  162SOPE   C3618191   2.474   4.944  10.085  0.0658  0.6286 -0.1754
  162SOPE   H6X18192   2.382   4.882  10.086  1.3673 -1.3256  0.3827
  162SOPE   H6Y18193   2.552   4.883  10.135 -0.7142 -1.3547 -1.3102
  162SOPE   C3718194   2.524   4.995   9.950  0.4347  0.0428  0.5063
  162SOPE   H7X18195   2.608   5.067   9.955 -0.5073  1.1534  0.5183
  162SOPE   H7Y18196   2.447   5.051   9.893  1.0629  0.3317 -0.0560
  162SOPE   C3818197   2.560   4.878   9.864  0.8938  0.0915 -0.0893
  162SOPE   H8X18198   2.490   4.796   9.890 -0.3819  0.8543 -1.0567
  162SOPE   H8Y18199   2.669   4.859   9.880  0.8126 -0.8651 -0.6526
  162SOPE   C3918200   2.548   4.891   9.713  0.0606 -0.9901  0.8944
  162SOPE   H9X18201   2.447   4.931   9.689  0.0862 -0.6393  1.3628
  162SOPE   H9Y18202   2.565   4.790   9.669  2.8324 -0.1164 -0.0940
  162SOPE  C31018203   2.664   4.980   9.665 -0.3401 -0.8248  0.1042
  162SOPE  H10X18204   2.763   4.940   9.697  0.6218  0.8098 -0.7088
  162SOPE  H10Y18205   2.664   5.085   9.703  1.0142 -1.1784  1.1114
  162SOPE  C31118206   2.651   4.987   9.503  0.0956  0.0293 -0.1198
  162SOPE  H11X18207   2.557   5.039   9.474 -0.4103  0.0171  1.4597
  162SOPE  H11Y18208   2.643   4.882   9.466  0.5377  0.4846 -1.5479
  162SOPE  C31218209   2.777   5.044   9.431 -0.4626  0.3233  0.0336
  162SOPE  H12X18210   2.865   4.977   9.440 -0.9323 -0.2969 -0.0171
  162SOPE  H12Y18211   2.795   5.142   9.481  0.1804 -0.3646  1.1736
  162SOPE  C31318212   2.756   5.080   9.280 -0.0182 -0.1613 -0.8085
  162SOPE  H13X18213   2.842   5.140   9.244  0.9264 -0.0174  1.6026
  162SOPE  H13Y18214   2.673   5.154   9.276 -0.0615 -0.2780 -2.3348
  162SOPE  C31418215   2.727   4.960   9.190 -0.2666  0.4122  0.1601
  162SOPE  H14X18216   2.626   4.922   9.215  0.1583 -0.7262  0.1712
  162SOPE  H14Y18217   2.792   4.872   9.209 -1.6179 -0.3611  1.2728
  162SOPE  C31518218   2.738   5.009   9.043 -0.3598 -0.0810 -0.3479
  162SOPE  H15X18219   2.834   5.065   9.033  0.1508 -1.2220 -2.1536
  162SOPE  H15Y18220   2.665   5.092   9.035  0.7678  1.0403  0.7171
  162SOPE  C31618221   2.729   4.900   8.935  0.8446 -0.0040 -0.0903
  162SOPE  H16X18222   2.629   4.853   8.937  0.7285  0.2950  2.0281
  162SOPE  H16Y18223   2.808   4.825   8.955  0.3435 -0.1528  1.3887
  162SOPE  C31718224   2.756   4.951   8.796 -0.5368 -0.2766  0.5025
  162SOPE  H17X18225   2.746   4.870   8.720  0.4827  2.1316 -2.2857
  162SOPE  H17Y18226   2.858   4.993   8.786  0.4469 -2.4422  1.3087
  162SOPE  C31818227   2.657   5.062   8.759 -0.4573 -0.3579 -0.0189
  162SOPE  H18X18228   2.669   5.149   8.828 -3.0281  0.8494 -0.9980
  162SOPE  H18Y18229   2.550   5.034   8.752 -0.5233 -0.5088  1.3759
  162SOPE  H18Z18230   2.681   5.096   8.656 -2.4004  2.4479  0.3942
  163SOPE     N18231   2.721   2.434  10.654  0.0536 -0.5916  0.8036
  163SOPE   HN118232   2.751   2.433  10.754  0.0508 -2.8656  0.8071
  163SOPE   HN218233   2.628   2.388  10.645  0.5961 -1.5517  0.0269
  163SOPE   HN318234   2.795   2.380  10.605  1.0231  1.1366  0.3083
  163SOPE   C1218235   2.703   2.578  10.602 -0.5144  0.3436  0.1180
  163SOPE  H12A18236   2.647   2.638  10.676  0.4630  0.2810  0.9271
  163SOPE  H12B18237   2.635   2.565  10.516  0.5288  3.0550 -1.1746
  163SOPE   C1118238   2.832   2.646  10.557 -0.0926 -0.2878 -0.4955
  163SOPE  H11A18239   2.817   2.752  10.526  0.9197  0.2363  0.7748
  163SOPE  H11B18240   2.880   2.594  10.471 -0.6180 -0.1432 -0.8812
  163SOPE     P18241   2.953   2.752  10.762 -0.0346 -0.2456  0.2193
  163SOPE   O1318242   3.080   2.729  10.829 -0.8971 -0.1064 -0.1834
  163SOPE   O1418243   2.836   2.765  10.851  0.1736  0.4627  0.1034
  163SOPE   O1218244   2.931   2.640  10.656  0.0063  0.0235 -0.2603
  163SOPE   O1118245   2.958   2.887  10.675 -0.3692  0.7022  0.1811
  163SOPE    C118246   3.088   2.956  10.639  0.9011 -0.3420 -0.7010
  163SOPE    HA18247   3.165   2.963  10.719 -0.4039  0.2827  0.5220
  163SOPE    HB18248   3.053   3.053  10.599 -1.7137  0.0015  2.2306
  163SOPE    C218249   3.158   2.897  10.513 -0.1716 -0.2060  0.5382
  163SOPE    HS18250   3.212   2.988  10.477  0.6571 -0.9478 -0.1154
  163SOPE   O2118251   3.067   2.838  10.412  0.4099  0.6743  0.0599
  163SOPE   C2118252   3.069   2.897  10.296  0.7229 -0.1831  0.4722
  163SOPE   O2218253   3.146   2.985  10.257  0.0627  0.2312 -0.2014
  163SOPE   C2218254   2.958   2.833  10.213  0.6246 -0.1097 -0.3754
  163SOPE   H2R18255   2.870   2.848  10.279  1.1226  1.4754 -0.0665
  163SOPE   H2S18256   2.977   2.724  10.197  3.3576 -0.1217  2.4465
  163SOPE    C318257   3.271   2.796  10.545 -0.3622  0.1174 -1.0816
  163SOPE    HX18258   3.234   2.710  10.604 -2.3231 -0.1788 -2.6918
  163SOPE    HY18259   3.353   2.839  10.607 -1.0115 -0.5786  0.2805
  163SOPE   O3118260   3.333   2.737  10.430 -0.0719 -0.2398 -0.2834
  163SOPE   C3118261   3.450   2.798  10.397 -0.4708 -0.0821 -0.5836
  163SOPE   O3218262   3.485   2.908  10.431  0.3454  0.1008  0.1598
  163SOPE   C3218263   3.534   2.703  10.311 -0.1079  0.6945 -0.0021
  163SOPE   H2X18264   3.502   2.602  10.343  0.0410  1.9945  4.6677
  163SOPE   H2Y18265   3.637   2.716  10.352 -1.0381 -1.1059  2.9959
  163SOPE   C2318266   2.917   2.910  10.083  0.1933 -0.3016  0.7354
  163SOPE   H3R18267   2.908   3.020  10.095 -0.3668 -0.0807 -1.5134
  163SOPE   H3S18268   2.818   2.868  10.058  1.6047 -2.5531 -1.2527
  163SOPE   C2418269   3.011   2.881   9.967  0.0611  0.8305 -0.0014
  163SOPE   H4R18270   3.109   2.929   9.991  0.9571 -0.1901 -1.5024
  163SOPE   H4S18271   3.027   2.772   9.954 -0.6778  0.6200  0.8755
  163SOPE   C2518272   2.956   2.938   9.838  0.8810  0.8326 -0.5010
  163SOPE   H5R18273   2.862   2.881   9.820  1.5256 -0.5775  0.4897
  163SOPE   H5S18274   2.932   3.046   9.851 -1.8449 -0.0230  2.0484
  163SOPE   C2618275   3.037   2.900   9.718 -0.4725 -0.1973  0.3740
  163SOPE   H6R18276   3.033   2.790   9.702 -3.7563  0.0976 -1.3494
  163SOPE   H6S18277   2.973   2.942   9.638  1.4774  2.6764  0.2674
  163SOPE   C2718278   3.175   2.974   9.708  0.8266  0.7629 -0.3216
  163SOPE   H7R18279   3.153   3.081   9.726 -2.0618  0.1374 -0.0209
  163SOPE   H7S18280   3.248   2.934   9.782 -0.0158  0.1019  0.1606
  163SOPE   C2818281   3.236   2.952   9.570 -0.1075  0.2944 -0.4203
  163SOPE   H8R18282   3.177   3.015   9.500 -2.7375 -3.1032 -1.4494
  163SOPE   H8S18283   3.338   2.994   9.569  0.5933 -1.3546 -1.6826
  163SOPE   C2918284   3.249   2.807   9.523  0.3298  0.5202  0.0897
  163SOPE   H9118285   3.304   2.738   9.589 -2.6533 -1.9128  0.1527
  163SOPE  C21018286   3.213   2.756   9.406 -0.6403 -0.5157  0.1721
  163SOPE  H10118287   3.246   2.653   9.389 -2.0322 -0.5008 -3.1365
  163SOPE  C21118288   3.152   2.825   9.292 -0.6520 -0.3104  0.1552
  163SOPE  H11R18289   3.233   2.883   9.244 -1.4850 -0.1125 -1.0317
  163SOPE  H11S18290   3.075   2.900   9.322  0.1187  0.6738 -0.2853
  163SOPE  C21218291   3.089   2.735   9.181  0.4055  0.6615  0.5957
  163SOPE  H12R18292   2.986   2.719   9.221  1.2000  0.3485  2.5494
  163SOPE  H12S18293   3.141   2.638   9.170  1.4389  1.5071 -2.5190
  163SOPE  C21318294   3.062   2.821   9.043  0.1514  0.7169  0.2833
  163SOPE  H13R18295   3.051   2.740   8.969  0.6725  0.8045  0.1075
  163SOPE  H13S18296   3.158   2.871   9.018  0.1300  0.8021  0.3723
  163SOPE  C21418297   2.939   2.915   9.052  0.1856  0.6866  0.3586
  163SOPE  H14R18298   2.986   3.002   9.103 -1.3078  3.5315 -2.9713
  163SOPE  H14S18299   2.856   2.878   9.117 -0.8629  1.6249 -0.4293
  163SOPE  C21518300   2.877   2.944   8.914  0.5074  0.7562 -0.1153
  163SOPE  H15R18301   2.853   2.841   8.881  1.4137  0.1102  1.1858
  163SOPE  H15S18302   2.954   2.993   8.850  0.6470 -0.4281 -0.8606
  163SOPE  C21618303   2.764   3.042   8.921 -0.0562  0.1362  0.0243
  163SOPE  H16R18304   2.676   2.997   8.972  0.9674 -1.2341  0.5978
  163SOPE  H16S18305   2.719   3.057   8.820 -0.1024  0.7018  0.1282
  163SOPE  C21718306   2.787   3.173   8.991  0.9798 -0.1888 -0.3106
  163SOPE  H17R18307   2.872   3.238   8.961 -0.1709  0.2608 -2.7094
  163SOPE  H17S18308   2.802   3.168   9.101  2.4596  0.2381 -0.4812
  163SOPE  C21818309   2.660   3.254   8.965  0.3342 -0.0721  0.1042
  163SOPE  H18R18310   2.657   3.277   8.856  2.4655 -0.9971 -0.1669
  163SOPE  H18S18311   2.655   3.357   9.007 -0.7506 -0.6252  1.3931
  163SOPE  H18T18312   2.568   3.198   8.993  0.0824  0.2818 -0.0048
  163SOPE   C3318313   3.526   2.729  10.160 -0.1863  0.2916  0.5926
  163SOPE   H3X18314   3.600   2.669  10.104  0.7572  1.3615  0.6771
  163SOPE   H3Y18315   3.559   2.834  10.141 -0.4738  0.0535 -1.2352
  163SOPE   C3418316   3.403   2.702  10.074  0.4785 -0.1195 -0.7649
  163SOPE   H4X18317   3.417   2.722   9.966  0.1265  0.7588 -0.6521
  163SOPE   H4Y18318   3.322   2.772  10.104 -1.3592 -4.2586  4.9630
  163SOPE   C3518319   3.341   2.565  10.097 -0.1900 -0.2711 -0.5294
  163SOPE   H5X18320   3.312   2.550  10.203 -0.5287 -0.6086 -0.6677
  163SOPE   H5Y18321   3.406   2.479  10.070  0.0883  0.2154 -1.4037
  163SOPE   C3618322   3.220   2.545  10.007 -0.3694  0.0663  1.1408
  163SOPE   H6X18323   3.168   2.642  10.001  0.9521  0.7238  0.0926
  163SOPE   H6Y18324   3.141   2.490  10.063  0.1455  0.7071  2.5230
  163SOPE   C3718325   3.257   2.479   9.868 -0.1122  0.3622  0.0197
  163SOPE   H7X18326   3.297   2.376   9.883 -0.9913  0.2241  1.5680
  163SOPE   H7Y18327   3.339   2.543   9.829 -0.3489  0.4322 -0.3619
  163SOPE   C3818328   3.129   2.487   9.784  0.1994 -0.1430  0.3380
  163SOPE   H8X18329   3.100   2.591   9.759  0.1900 -0.3796 -0.6477
  163SOPE   H8Y18330   3.047   2.434   9.836  0.4031 -1.4801 -0.6767
  163SOPE   C3918331   3.162   2.421   9.645 -0.4322 -0.2780  0.5597
  163SOPE   H9X18332   3.207   2.321   9.663  0.6558  0.2838  1.0332
  163SOPE   H9Y18333   3.234   2.478   9.581 -0.5834 -0.8445 -0.1201
  163SOPE  C31018334   3.029   2.413   9.572 -0.2628  0.6729 -0.3917
  163SOPE  H10X18335   2.984   2.514   9.582  1.2653  1.6403 -2.8338
  163SOPE  H10Y18336   2.966   2.333   9.618  0.3502  0.1028 -0.5321
  163SOPE  C31118337   3.034   2.369   9.423  0.1928  0.3539 -0.0942
  163SOPE  H11X18338   3.107   2.285   9.417  0.6501  0.7840 -0.6302
  163SOPE  H11Y18339   3.088   2.451   9.371  1.8948 -1.1804 -0.8189
  163SOPE  C31218340   2.899   2.342   9.360  0.1613  0.6500  0.2302
  163SOPE  H12X18341   2.828   2.425   9.383 -0.2088 -0.4349  3.1927
  163SOPE  H12Y18342   2.856   2.252   9.409  1.4994  0.5662  1.2725
  163SOPE  C31318343   2.909   2.329   9.210  0.7790 -0.6303  0.2844
  163SOPE  H13X18344   2.945   2.225   9.198 -0.0092 -0.6646 -1.9184
  163SOPE  H13Y18345   2.965   2.406   9.154 -0.1909 -1.4232 -1.8328
  163SOPE  C31418346   2.770   2.332   9.138  0.5963  0.5254  0.3523
  163SOPE  H14X18347   2.730   2.435   9.152  0.4453  0.4101  0.7897
  163SOPE  H14Y18348   2.698   2.261   9.183 -0.7048  1.1929 -0.6739
  163SOPE  C31518349   2.781   2.302   8.992  0.5932  0.4677 -0.0662
  163SOPE  H15X18350   2.685   2.255   8.960 -1.0946  2.4973  1.8400
  163SOPE  H15Y18351   2.858   2.223   8.980  1.2859  1.2332 -0.7362
  163SOPE  C31618352   2.794   2.419   8.898 -0.4025  0.3670  0.2638
  163SOPE  H16X18353   2.881   2.484   8.924  0.7093 -1.3171  0.8918
  163SOPE  H16Y18354   2.704   2.483   8.896 -1.2191 -0.6312  2.5258
  163SOPE  C31718355   2.839   2.369   8.759 -0.2707 -0.3690  0.6460
  163SOPE  H17X18356   2.804   2.447   8.688  0.6995  0.5832  1.2028
  163SOPE  H17Y18357   2.797   2.272   8.725  1.8419 -1.0381 -0.2069
  163SOPE  C31818358   2.992   2.352   8.750  0.2102 -0.2343  0.1898
  163SOPE  H18X18359   3.021   2.349   8.643 -1.6896  1.3925 -0.4161
  163SOPE  H18Y18360   3.017   2.251   8.787  2.5333  0.4933  0.6552
  163SOPE  H18Z18361   3.053   2.428   8.804 -1.3362  0.1584  1.4228
  164SOPE     N18362   5.993   0.003  10.863 -0.1442  0.5931 -0.1881
  164SOPE   HN118363   6.064   0.003  10.939  1.2947  0.2210 -1.5038
  164SOPE   HN218364   6.028  -0.039  10.774  0.0053  1.5419 -0.5791
  164SOPE   HN318365   5.966   0.102  10.848  0.2313  0.2195 -3.7859
  164SOPE   C1218366   5.864  -0.064  10.899 -0.3857 -1.0715 -0.0495
  164SOPE  H12A18367   5.829  -0.017  10.994  1.2763 -0.8819  0.4842
  164SOPE  H12B18368   5.885  -0.167  10.934  0.3991 -0.2797  1.9185
  164SOPE   C1118369   5.764  -0.054  10.788  0.7905  0.1511  0.3306
  164SOPE  H11A18370   5.669  -0.110  10.803  1.0940 -0.8987 -1.5243
  164SOPE  H11B18371   5.805  -0.099  10.695  1.2810  0.2959  0.4740
  164SOPE     P18372   5.592   0.154  10.807 -0.2278  0.5548  0.0352
  164SOPE   O1318373   5.598   0.189  10.946 -0.0503 -0.7264  0.0734
  164SOPE   O1418374   5.472   0.073  10.770  0.3671  0.2763  0.8009
  164SOPE   O1218375   5.733   0.086  10.755 -0.1843  0.5370 -0.2537
  164SOPE   O1118376   5.589   0.288  10.725 -0.4720  0.0574 -0.1187
  164SOPE    C118377   5.690   0.358  10.651  0.3924  0.1265  0.5460
  164SOPE    HA18378   5.789   0.350  10.700  0.8176 -2.4409 -0.6243
  164SOPE    HB18379   5.662   0.464  10.633  1.0967  0.0467 -1.0943
  164SOPE    C218380   5.691   0.306  10.503  0.1027  0.1304  0.1583
  164SOPE    HS18381   5.721   0.199  10.494  2.2518  0.8475 -1.6702
  164SOPE   O2118382   5.784   0.383  10.425 -0.1794  0.3367 -0.2322
  164SOPE   C2118383   5.912   0.333  10.419  0.4325 -0.8932 -0.6769
  164SOPE   O2218384   5.952   0.241  10.487 -0.3999 -0.3512  0.3511
  164SOPE   C2218385   5.997   0.407  10.315 -0.5975  0.2696  0.5540
  164SOPE   H2R18386   6.077   0.339  10.279 -0.3094  0.5856  0.6066
  164SOPE   H2S18387   6.042   0.494  10.368 -0.5861  0.1366  0.7646
  164SOPE    C318388   5.548   0.327  10.434  0.3317 -0.0209  0.4008
  164SOPE    HX18389   5.519   0.431  10.461  2.8179  1.0123 -0.7362
  164SOPE    HY18390   5.486   0.259  10.497  0.8634 -0.2092  0.7277
  164SOPE   O3118391   5.537   0.299  10.287  0.2062 -1.1993 -0.2198
  164SOPE   C3118392   5.548   0.179  10.251 -0.9359  0.2242 -0.3315
  164SOPE   O3218393   5.586   0.084  10.317  0.0899 -0.0618  0.0579
  164SOPE   C3218394   5.517   0.174  10.096 -0.3562  0.1795 -0.2913
  164SOPE   H2X18395   5.411   0.160  10.066 -0.3119  3.8800 -2.5312
  164SOPE   H2Y18396   5.567   0.078  10.073  0.7128  0.7592 -0.4485
  164SOPE   C2318397   5.921   0.452  10.187 -0.4027 -0.1066 -0.1746
  164SOPE   H3R18398   5.822   0.502  10.196 -0.4718 -0.1141 -0.9315
  164SOPE   H3S18399   5.891   0.356  10.140  3.2332 -1.7349  0.6920
  164SOPE   C2418400   6.010   0.532  10.098 -0.5375 -0.4132  0.0049
  164SOPE   H4R18401   6.051   0.629  10.132  0.4137  0.1849 -2.7312
  164SOPE   H4S18402   6.098   0.468  10.076  0.4532  0.4336  1.4852
  164SOPE   C2518403   5.934   0.564   9.966 -0.1915  0.6053 -0.1558
  164SOPE   H5R18404   5.889   0.470   9.928 -0.9653  1.5197 -1.5929
  164SOPE   H5S18405   5.849   0.630   9.995 -0.9217  0.2581 -1.4455
  164SOPE   C2618406   6.021   0.632   9.863 -0.0954 -0.0961  0.3553
  164SOPE   H6R18407   6.068   0.716   9.919  0.4785 -0.9046  1.1048
  164SOPE   H6S18408   6.098   0.555   9.842  0.0785  0.3259 -0.6010
  164SOPE   C2718409   5.951   0.661   9.728 -0.6507  0.1798 -1.6549
  164SOPE   H7R18410   5.919   0.566   9.680 -0.2064  0.6145 -2.8304
  164SOPE   H7S18411   5.850   0.703   9.743 -0.1636  1.2286 -1.2214
  164SOPE   C2818412   6.039   0.734   9.623 -0.5345 -0.2583 -0.2892
  164SOPE   H8R18413   6.130   0.671   9.612  0.8384  1.6855 -0.2530
  164SOPE   H8S18414   5.987   0.743   9.525 -0.0638  2.2075 -0.3565
  164SOPE   C2918415   6.083   0.870   9.673  0.7686 -0.4652  0.1353
  164SOPE   H9118416   6.100   0.873   9.781  0.8534  0.7915  0.0923
  164SOPE  C21018417   6.107   0.982   9.604 -0.4807 -0.1371 -0.7890
  164SOPE  H10118418   6.124   1.076   9.658 -0.2598  0.4063 -1.7933
  164SOPE  C21118419   6.095   1.000   9.449 -0.7501 -0.1313 -0.6171
  164SOPE  H11R18420   6.034   1.090   9.426 -0.5165  0.7159  1.8364
  164SOPE  H11S18421   6.028   0.919   9.414 -1.6509 -0.0813  0.8952
  164SOPE  C21218422   6.235   1.012   9.377 -0.3751 -0.7253  0.8295
  164SOPE  H12R18423   6.281   0.911   9.383  2.8813  0.5583 -0.9287
  164SOPE  H12S18424   6.294   1.092   9.428  0.5617 -1.2649  0.6144
  164SOPE  C21318425   6.215   1.059   9.230  0.5871 -0.6699  0.5868
  164SOPE  H13R18426   6.136   1.001   9.178 -1.9240  1.0105  2.4127
  164SOPE  H13S18427   6.312   1.028   9.186  1.7730 -0.5979  3.0547
  164SOPE  C21418428   6.182   1.209   9.209  0.0951 -0.1405 -0.1565
  164SOPE  H14R18429   6.256   1.274   9.262  0.0778 -1.2045  1.2113
  164SOPE  H14S18430   6.080   1.221   9.252  0.3517 -0.1717  0.4701
  164SOPE  C21518431   6.165   1.263   9.066  0.0127 -0.8323  0.0427
  164SOPE  H15R18432   6.079   1.214   9.017  1.0746 -0.5874 -2.1156
  164SOPE  H15S18433   6.261   1.241   9.016 -0.1610  2.3240 -1.7964
  164SOPE  C21618434   6.149   1.418   9.059  0.3102 -0.1065  0.0348
  164SOPE  H16R18435   6.236   1.478   9.092 -0.7908  1.6674 -0.2460
  164SOPE  H16S18436   6.055   1.437   9.115 -1.0900  0.4129 -2.4309
  164SOPE  C21718437   6.109   1.461   8.920  0.8526  0.1784 -0.2978
  164SOPE  H17R18438   6.060   1.560   8.933 -1.1305 -0.7773 -0.2530
  164SOPE  H17S18439   6.040   1.384   8.878  0.0354 -0.4295  2.0885
  164SOPE  C21818440   6.221   1.485   8.822 -0.1280  0.0994 -0.1675
  164SOPE  H18R18441   6.260   1.390   8.779 -1.0817 -0.2482 -0.2713
  164SOPE  H18S18442   6.302   1.534   8.880  1.5401 -1.6938 -0.9420
  164SOPE  H18T18443   6.195   1.547   8.734  1.2629 -0.6081 -1.0921
  164SOPE   C3318444   5.594   0.285  10.017 -0.0867  0.6267  0.7701
  164SOPE   H3X18445   5.701   0.294  10.046  0.0193  4.6732 -0.5677
  164SOPE   H3Y18446   5.554   0.386  10.040  0.0720  0.5428  1.4404
  164SOPE   C3418447   5.576   0.259   9.867  0.1564  0.2084  0.2070
  164SOPE   H4X18448   5.470   0.237   9.842  0.2700 -0.0759 -0.0385
  164SOPE   H4Y18449   5.618   0.160   9.839 -2.2636 -0.0930 -2.6076
  164SOPE   C3518450   5.621   0.366   9.766 -0.3604 -0.1307  0.2388
  164SOPE   H5X18451   5.732   0.362   9.769 -0.4152 -1.0054  1.5843
  164SOPE   H5Y18452   5.601   0.471   9.795  2.6232 -0.0037  2.0109
  164SOPE   C3618453   5.582   0.342   9.618  0.3695  0.5790 -0.2013
  164SOPE   H6X18454   5.473   0.362   9.602  0.2115 -1.2224 -1.5955
  164SOPE   H6Y18455   5.594   0.234   9.596  1.4967  0.9010 -1.2011
  164SOPE   C3718456   5.664   0.434   9.529  0.0628  0.4688 -0.1388
  164SOPE   H7X18457   5.721   0.508   9.591 -0.2190 -1.9823  3.2044
  164SOPE   H7Y18458   5.595   0.483   9.457 -0.6539  1.1167  0.9546
  164SOPE   C3818459   5.757   0.359   9.436 -0.4911  0.0779  0.1572
  164SOPE   H8X18460   5.701   0.296   9.364  1.3850  0.0896 -1.3528
  164SOPE   H8Y18461   5.819   0.293   9.501 -1.1493 -2.4039 -1.6594
  164SOPE   C3918462   5.852   0.445   9.343 -0.3284  0.3744  0.4297
  164SOPE   H9X18463   5.900   0.382   9.265  0.1008  0.7056  0.4294
  164SOPE   H9Y18464   5.921   0.492   9.416  0.0626  0.8225 -0.2248
  164SOPE  C31018465   5.781   0.560   9.258 -0.1143  0.6177 -0.4193
  164SOPE  H10X18466   5.761   0.640   9.331  1.4659 -1.0939  1.9568
  164SOPE  H10Y18467   5.691   0.511   9.216 -0.0931  1.2943 -1.2682
  164SOPE  C31118468   5.880   0.611   9.152  0.6405  0.7769 -0.4239
  164SOPE  H11X18469   5.903   0.521   9.090  0.5676 -0.0604  0.7300
  164SOPE  H11Y18470   5.973   0.634   9.208  0.0891  0.4623  0.6315
  164SOPE  C31218471   5.847   0.744   9.069  0.2473  0.3825 -0.2580
  164SOPE  H12X18472   5.810   0.820   9.142 -2.5842  0.1979 -1.4138
  164SOPE  H12Y18473   5.759   0.718   9.006  0.2095  0.9909 -0.4628
  164SOPE  C31318474   5.980   0.782   9.004 -0.3324 -0.0513  0.3162
  164SOPE  H13X18475   6.023   0.694   8.952 -2.0864 -1.4685  1.2029
  164SOPE  H13Y18476   6.057   0.826   9.071  0.8615  0.2385 -1.2152
  164SOPE  C31418477   5.948   0.881   8.892 -0.6308 -0.0700  0.5028
  164SOPE  H14X18478   5.926   0.982   8.933 -0.5085  0.0050  0.3795
  164SOPE  H14Y18479   5.859   0.852   8.832  0.0863 -1.6341  0.1869
  164SOPE  C31518480   6.058   0.914   8.789 -0.2767 -0.6880  0.0772
  164SOPE  H15X18481   6.112   0.825   8.752  0.3850 -1.2929  2.4319
  164SOPE  H15Y18482   6.133   0.981   8.836 -0.1430 -0.9509  0.2405
  164SOPE  C31618483   6.003   1.009   8.677 -0.1303 -0.4836  0.5448
  164SOPE  H16X18484   5.952   1.096   8.724 -1.1442 -0.7187 -0.1008
  164SOPE  H16Y18485   5.927   0.968   8.608  0.5963  0.0525 -0.5832
  164SOPE  C31718486   6.116   1.058   8.586  0.6607  0.1652  0.3672
  164SOPE  H17X18487   6.187   0.974   8.570  0.0915 -0.2535  0.0208
  164SOPE  H17Y18488   6.188   1.129   8.631  0.0802  0.8886  0.1634
  164SOPE  C31818489   6.063   1.103   8.447  0.1092  0.3795 -0.0881
  164SOPE  H18X18490   6.147   1.156   8.396 -0.0856  0.2407 -0.5504
  164SOPE  H18Y18491   5.982   1.179   8.448 -1.1524 -0.9682  0.4370
  164SOPE  H18Z18492   6.024   1.024   8.380 -0.0180  1.1893 -0.9873
  165SOPE     N18493   3.236   1.283  10.637 -0.3610 -0.8147  0.0298
  165SOPE   HN118494   3.217   1.371  10.690 -2.2107 -0.3602 -1.3278
  165SOPE   HN218495   3.219   1.301  10.536  0.9034  1.3996  0.1768
  165SOPE   HN318496   3.176   1.209  10.679  0.8231 -0.6107  2.1418
  165SOPE   C1218497   3.380   1.233  10.649 -0.1258  0.3234  0.2939
  165SOPE  H12A18498   3.386   1.127  10.615  0.5716  0.7649 -0.9818
  165SOPE  H12B18499   3.392   1.219  10.759 -0.6159 -0.6357  0.2343
  165SOPE   C1118500   3.468   1.339  10.581 -0.0226 -0.0306  0.1159
  165SOPE  H11A18501   3.441   1.358  10.475  1.9123 -1.2170 -0.6064
  165SOPE  H11B18502   3.575   1.310  10.571 -0.7702 -1.7098 -3.8276
  165SOPE     P18503   3.548   1.492  10.779 -0.3971 -0.0283  0.6759
  165SOPE   O1318504   3.511   1.411  10.895 -0.1218 -0.0895 -0.2988
  165SOPE   O1418505   3.545   1.639  10.794  0.2871 -0.8593  0.4897
  165SOPE   O1218506   3.454   1.465  10.657 -0.6098 -0.0686  0.3022
  165SOPE   O1118507   3.690   1.457  10.733  0.6794  0.1147  0.0149
  165SOPE    C118508   3.783   1.547  10.673 -0.3167 -0.5085  0.2553
  165SOPE    HA18509   3.875   1.547  10.735 -0.1266 -0.8542 -0.0248
  165SOPE    HB18510   3.752   1.654  10.670  0.5051 -0.2868 -1.0400
  165SOPE    C218511   3.822   1.507  10.532  0.0825  0.1260 -0.0840
  165SOPE    HS18512   3.893   1.578  10.483 -0.7943 -0.2601 -1.9818
  165SOPE   O2118513   3.713   1.493  10.442 -0.2986 -0.0530  0.1093
  165SOPE   C2118514   3.665   1.609  10.391  0.3154  0.0211  0.5896
  165SOPE   O2218515   3.700   1.718  10.431  0.0733 -0.2001  0.2492
  165SOPE   C2218516   3.554   1.570  10.290  0.1832  0.4284  0.3109
  165SOPE   H2R18517   3.456   1.561  10.343  1.3094 -1.0596  2.2110
  165SOPE   H2S18518   3.574   1.470  10.245 -1.0019  0.0948  0.5069
  165SOPE    C318519   3.882   1.365  10.547  0.0255  0.1486 -0.1602
  165SOPE    HX18520   3.814   1.302  10.608 -0.2568  0.0290 -0.5919
  165SOPE    HY18521   3.980   1.376  10.598  0.2029 -1.4070 -0.1263
  165SOPE   O3118522   3.899   1.297  10.422 -0.2533  0.0336  0.6843
  165SOPE   C3118523   4.017   1.304  10.364  0.4993 -0.1382  0.0146
  165SOPE   O3218524   4.105   1.377  10.397 -0.3132 -0.1984 -0.7724
  165SOPE   C3218525   4.033   1.215  10.241  0.1226 -0.0418 -0.5008
  165SOPE   H2X18526   3.944   1.149  10.232  0.5327 -0.9112  1.4961
  165SOPE   H2Y18527   4.130   1.162  10.250  0.8992  1.1568 -1.6174
  165SOPE   C2318528   3.531   1.674  10.174  0.0886 -0.0372 -0.0760
  165SOPE   H3R18529   3.514   1.776  10.216 -0.8874 -0.6194  0.9872
  165SOPE   H3S18530   3.434   1.643  10.130 -1.8424  1.7024  2.7637
  165SOPE   C2418531   3.640   1.670  10.069 -0.3071  0.1360 -0.2303
  165SOPE   H4R18532   3.740   1.660  10.115 -0.8209 -0.5299  0.7642
  165SOPE   H4S18533   3.634   1.570  10.020  4.8563 -1.0385  1.3084
  165SOPE   C2518534   3.638   1.775   9.957 -0.3225 -0.1529 -0.3298
  165SOPE   H5R18535   3.658   1.876  10.000  1.2009 -1.5428  2.3829
  165SOPE   H5S18536   3.723   1.756   9.889  0.0061  0.6353 -0.1395
  165SOPE   C2618537   3.514   1.783   9.871  0.1740  0.0714 -0.7087
  165SOPE   H6R18538   3.507   1.680   9.831  1.2262 -0.2961  0.0443
  165SOPE   H6S18539   3.422   1.801   9.931 -0.0835 -3.2920 -0.0090
  165SOPE   C2718540   3.520   1.887   9.757  0.2504 -0.4869  0.4341
  165SOPE   H7R18541   3.415   1.921   9.745  0.0386 -0.8291  1.2232
  165SOPE   H7S18542   3.577   1.974   9.795  1.2119 -1.3974  1.0866
  165SOPE   C2818543   3.581   1.840   9.625  0.2223 -0.1361  0.7026
  165SOPE   H8R18544   3.583   1.926   9.555 -0.0845 -1.2801 -0.7365
  165SOPE   H8S18545   3.685   1.808   9.648  1.1981  2.6639  0.3140
  165SOPE   C2918546   3.511   1.733   9.549  0.1539 -0.3998 -0.0234
  165SOPE   H9118547   3.403   1.737   9.568  0.0513 -0.9746 -0.4878
  165SOPE  C21018548   3.568   1.656   9.450 -0.2311  0.1324  0.4831
  165SOPE  H10118549   3.511   1.578   9.396  0.6828  0.4866 -1.0368
  165SOPE  C21118550   3.707   1.659   9.398 -0.5512  0.0443  0.2732
  165SOPE  H11R18551   3.760   1.561   9.402  0.1931  0.4599  0.9436
  165SOPE  H11S18552   3.760   1.740   9.453 -1.3470 -0.6221  2.0487
  165SOPE  C21218553   3.706   1.710   9.254 -0.3969 -0.0408  0.3104
  165SOPE  H12R18554   3.630   1.655   9.193 -0.4560 -1.0115  1.2513
  165SOPE  H12S18555   3.797   1.675   9.201 -1.1241  0.4447 -1.2909
  165SOPE  C21318556   3.705   1.858   9.238 -0.0939  0.3391  0.8570
  165SOPE  H13R18557   3.757   1.899   9.327  3.0588 -2.9718  0.6733
  165SOPE  H13S18558   3.601   1.895   9.240  0.2344  1.2332  1.3972
  165SOPE  C21418559   3.760   1.901   9.104 -0.8461  0.3236 -0.2635
  165SOPE  H14R18560   3.700   1.852   9.024 -1.7678  0.1744  0.5050
  165SOPE  H14S18561   3.868   1.880   9.092 -0.7058  2.3658 -3.1055
  165SOPE  C21518562   3.742   2.052   9.088 -0.2471  0.1639 -0.0640
  165SOPE  H15R18563   3.636   2.075   9.110 -0.3259 -0.2053 -0.0539
  165SOPE  H15S18564   3.766   2.085   8.984 -1.0273 -1.5294 -0.8073
  165SOPE  C21618565   3.826   2.139   9.187 -0.0318 -0.0245 -0.6753
  165SOPE  H16R18566   3.924   2.088   9.193  1.6921  3.1465 -1.3611
  165SOPE  H16S18567   3.785   2.116   9.287  0.8315 -0.9241 -0.5205
  165SOPE  C21718568   3.835   2.286   9.153  0.3183 -0.5368 -0.2490
  165SOPE  H17R18569   3.733   2.311   9.116  1.1186  1.5731 -1.1653
  165SOPE  H17S18570   3.909   2.316   9.076  1.3437  0.0782  0.9599
  165SOPE  C21818571   3.865   2.370   9.278  0.1657  0.4183 -0.6639
  165SOPE  H18R18572   3.879   2.476   9.245  0.5708 -0.0417 -2.0206
  165SOPE  H18S18573   3.964   2.343   9.318 -0.4387 -0.1807  0.4422
  165SOPE  H18T18574   3.786   2.354   9.355 -0.6140  0.7990 -1.3642
  165SOPE   C3318575   4.032   1.298  10.112  0.0855 -0.2785 -0.3517
  165SOPE   H3X18576   4.089   1.231  10.043  2.6558 -0.5150  1.9329
  165SOPE   H3Y18577   4.087   1.393  10.129  2.4989 -1.3657 -1.8241
  165SOPE   C3418578   3.894   1.320  10.051  0.5348 -0.1836 -0.6002
  165SOPE   H4X18579   3.835   1.366  10.133 -0.0723 -0.8161 -0.6800
  165SOPE   H4Y18580   3.829   1.233  10.025  0.1342  0.7201 -2.6538
  165SOPE   C3518581   3.901   1.413   9.929  0.8013 -0.0684 -0.0774
  165SOPE   H5X18582   3.941   1.510   9.964  1.5536 -0.3416 -0.1694
  165SOPE   H5Y18583   3.801   1.432   9.884  0.3553 -0.1651  0.8570
  165SOPE   C3618584   3.980   1.353   9.807 -0.4724  0.1420  0.0414
  165SOPE   H6X18585   3.932   1.263   9.763  1.4027  0.3343 -2.5341
  165SOPE   H6Y18586   4.076   1.308   9.841 -1.4135 -0.0940  2.4481
  165SOPE   C3718587   4.015   1.446   9.694 -0.9242 -0.0704 -0.2010
  165SOPE   H7X18588   4.099   1.505   9.736  0.8351 -2.7436  0.1606
  165SOPE   H7Y18589   3.931   1.513   9.665 -0.8627 -1.2672 -3.3795
  165SOPE   C3818590   4.072   1.370   9.574 -0.1059 -0.0175 -0.4507
  165SOPE   H8X18591   3.990   1.301   9.545  0.6497 -0.2865 -1.9966
  165SOPE   H8Y18592   4.155   1.308   9.613  0.4192 -1.1452 -3.2127
  165SOPE   C3918593   4.107   1.452   9.459 -0.0299  0.1343  0.1020
  165SOPE   H9X18594   4.218   1.464   9.464 -0.2639  1.2641  3.4399
  165SOPE   H9Y18595   4.065   1.555   9.456  2.2602  1.0759 -1.1746
  165SOPE  C31018596   4.066   1.391   9.322 -0.1371  0.4104 -1.2062
  165SOPE  H10X18597   3.957   1.370   9.324 -0.1479  0.5116 -0.7265
  165SOPE  H10Y18598   4.120   1.294   9.322 -2.2075 -0.7690 -0.1406
  165SOPE  C31118599   4.103   1.474   9.197 -0.1956 -0.2453 -0.4403
  165SOPE  H11X18600   4.209   1.484   9.166 -0.4943 -2.6094 -2.4206
  165SOPE  H11Y18601   4.064   1.576   9.219 -0.5766 -0.5473  0.3048
  165SOPE  C31218602   4.021   1.419   9.081 -0.6414  0.0047  0.0891
  165SOPE  H12X18603   3.919   1.414   9.125  0.2523 -2.6826  1.9886
  165SOPE  H12Y18604   4.049   1.316   9.052  0.3785  0.5286 -0.8416
  165SOPE  C31318605   4.027   1.510   8.961 -1.1260 -0.8333 -0.1728
  165SOPE  H13X18606   4.130   1.529   8.922 -0.2813  0.0993  2.3532
  165SOPE  H13Y18607   3.978   1.608   8.979  1.1034  0.0510  1.4214
  165SOPE  C31418608   3.942   1.448   8.850  0.0078  0.3644 -0.0101
  165SOPE  H14X18609   3.834   1.475   8.857 -0.7735 -2.6345 -0.0664
  165SOPE  H14Y18610   3.965   1.340   8.857  3.7656  1.0717 -0.3836
  165SOPE  C31518611   3.962   1.493   8.704  0.7854 -0.4161 -0.6006
  165SOPE  H15X18612   4.072   1.484   8.686  0.5266 -1.5942 -1.6622
  165SOPE  H15Y18613   3.934   1.600   8.704  3.3671  0.3090  0.6805
  165SOPE  C31618614   3.887   1.398   8.607  0.1140 -0.6084  0.0639
  165SOPE  H16X18615   3.787   1.378   8.652  0.1247 -1.0342 -0.0959
  165SOPE  H16Y18616   3.946   1.304   8.596 -1.2370 -1.0605 -4.3107
  165SOPE  C31718617   3.859   1.472   8.471  0.3641 -0.4912  0.4403
  165SOPE  H17X18618   3.775   1.542   8.489  0.6925 -0.0609  0.2947
  165SOPE  H17Y18619   3.833   1.408   8.384  1.2907 -0.5120  0.1767
  165SOPE  C31818620   3.980   1.542   8.418 -0.1011 -1.1514 -0.2846
  165SOPE  H18X18621   4.007   1.633   8.477 -1.9381 -0.1931 -0.9051
  165SOPE  H18Y18622   3.956   1.589   8.320 -2.6232  1.2138  1.3964
  165SOPE  H18Z18623   4.073   1.484   8.435  2.1496  2.4133  0.1812
  166SOPE     N18624   0.996   0.640  10.848 -0.0501  0.7943 -0.1688
  166SOPE   HN118625   0.975   0.630  10.747 -1.3970  1.5800  0.0150
  166SOPE   HN218626   1.097   0.620  10.856 -0.0989  0.1518 -1.1282
  166SOPE   HN318627   0.941   0.565  10.897  2.4596 -1.5386 -0.8217
  166SOPE   C1218628   0.975   0.778  10.904 -0.2825  0.9081 -0.3973
  166SOPE  H12A18629   1.030   0.777  11.001 -0.4984  1.9087 -0.2586
  166SOPE  H12B18630   0.865   0.795  10.908 -0.6172 -1.3439  1.3556
  166SOPE   C1118631   1.046   0.885  10.822 -0.1047 -0.0254  0.3441
  166SOPE  H11A18632   1.064   0.974  10.885 -0.0611 -0.3578  0.8103
  166SOPE  H11B18633   0.999   0.913  10.726 -0.5843  0.0035  0.5888
  166SOPE     P18634   1.306   0.892  10.858 -0.0428  0.1189  0.1083
  166SOPE   O1318635   1.429   0.835  10.804  0.0827 -0.0576  0.0438
  166SOPE   O1418636   1.292   0.874  11.002  0.4557  0.4037 -0.1121
  166SOPE   O1218637   1.179   0.831  10.791  0.0340 -0.2751  0.3020
  166SOPE   O1118638   1.296   1.043  10.832 -0.5505  0.0714 -0.2996
  166SOPE    C118639   1.356   1.107  10.712  0.3924  0.4986  0.3442
  166SOPE    HA18640   1.306   1.064  10.622 -0.9700  0.3881  1.1363
  166SOPE    HB18641   1.466   1.106  10.700  0.5110 -3.8523  1.0180
  166SOPE    C218642   1.312   1.261  10.710 -0.0731 -0.1730  0.0684
  166SOPE    HS18643   1.360   1.306  10.799 -0.3559  0.7295 -0.2332
  166SOPE   O2118644   1.166   1.275  10.704 -0.0843 -0.1838 -0.4326
  166SOPE   C2118645   1.110   1.284  10.817  0.4464  0.4374  0.2466
  166SOPE   O2218646   1.168   1.280  10.924 -0.3277 -0.0166  0.4082
  166SOPE   C2218647   0.962   1.316  10.805 -0.1080  0.1805  0.8809
  166SOPE   H2R18648   0.937   1.407  10.863 -4.3508 -0.1324 -0.2736
  166SOPE   H2S18649   0.912   1.232  10.858  0.5705 -0.0925  1.0892
  166SOPE    C318650   1.363   1.337  10.586  0.1597 -0.3523  0.6297
  166SOPE    HX18651   1.474   1.326  10.581  0.2959  0.9952  0.5657
  166SOPE    HY18652   1.339   1.445  10.595 -1.2451 -0.5614 -0.5432
  166SOPE   O3118653   1.316   1.283  10.461  0.7136 -0.1555  0.0753
  166SOPE   C3118654   1.261   1.374  10.374 -0.0810 -0.5231  0.2614
  166SOPE   O3218655   1.270   1.497  10.388  0.0720 -0.0607  0.2023
  166SOPE   C3218656   1.182   1.295  10.257  0.0848  0.2096 -0.2564
  166SOPE   H2X18657   1.079   1.335  10.264 -0.4952 -1.3970  0.7005
  166SOPE   H2Y18658   1.190   1.185  10.274 -0.0345  0.4770  1.6902
  166SOPE   C2318659   0.896   1.330  10.664  0.0412  0.1827 -0.0422
  166SOPE   H3R18660   0.785   1.327  10.667 -0.0947  3.2221 -1.0750
  166SOPE   H3S18661   0.925   1.240  10.605  0.5137  1.3344 -1.5857
  166SOPE   C2418662   0.922   1.463  10.584 -0.1895  0.4488  0.0824
  166SOPE   H4R18663   0.892   1.542  10.657  0.8024  0.7945  0.1258
  166SOPE   H4S18664   1.029   1.461  10.552 -0.1720  0.0600  0.1611
  166SOPE   C2518665   0.826   1.457  10.464  0.3013  0.1446  0.3154
  166SOPE   H5R18666   0.850   1.364  10.407  0.7716  0.9462 -0.8129
  166SOPE   H5S18667   0.725   1.450  10.510 -0.1117 -1.9946 -0.8322
  166SOPE   C2618668   0.838   1.571  10.360 -0.9236 -0.1499 -0.3220
  166SOPE   H6R18669   0.800   1.664  10.407  0.4349  0.8732 -1.2107
  166SOPE   H6S18670   0.944   1.586  10.332 -0.6368  2.3169  1.8668
  166SOPE   C2718671   0.753   1.560  10.231 -0.1967 -0.2431 -0.7330
  166SOPE   H7R18672   0.790   1.641  10.165 -0.5631 -0.2012 -0.8864
  166SOPE   H7S18673   0.782   1.463  10.186  0.8124 -1.8987  3.2012
  166SOPE   C2818674   0.591   1.542  10.236 -0.6395 -0.8071 -0.1709
  166SOPE   H8R18675   0.546   1.536  10.135  0.9287  0.6060 -0.9743
  166SOPE   H8S18676   0.579   1.443  10.285 -1.3197 -0.7591 -0.2292
  166SOPE   C2918677   0.516   1.646  10.317  0.2772 -0.5068 -0.2474
  166SOPE   H9118678   0.487   1.629  10.422 -0.6417  2.7190  0.0650
  166SOPE  C21018679   0.472   1.761  10.271  0.1158 -0.3380 -0.3736
  166SOPE  H10118680   0.398   1.822  10.324 -0.2130 -0.4645 -0.6861
  166SOPE  C21118681   0.498   1.816  10.137  0.3480  0.6085 -0.2325
  166SOPE  H11R18682   0.585   1.763  10.093  0.9048  0.0286  1.5455
  166SOPE  H11S18683   0.528   1.923  10.142 -1.2948  0.9941  3.9039
  166SOPE  C21218684   0.385   1.803  10.035  0.1214 -0.0284 -0.1491
  166SOPE  H12R18685   0.303   1.869  10.069  0.4513  0.2263  0.1532
  166SOPE  H12S18686   0.357   1.696  10.028  2.0615 -0.3824 -4.2658
  166SOPE  C21318687   0.435   1.850   9.898  0.4478  0.3537 -0.0328
  166SOPE  H13R18688   0.519   1.785   9.865  0.8621 -0.3801  2.3197
  166SOPE  H13S18689   0.477   1.951   9.916  0.6830  0.0977  0.8866
  166SOPE  C21418690   0.322   1.849   9.799 -0.1270  0.2368  0.5234
  166SOPE  H14R18691   0.240   1.914   9.837 -0.7599 -0.9056  1.1578
  166SOPE  H14S18692   0.277   1.748   9.785  1.2276 -0.3470  0.3812
  166SOPE  C21518693   0.351   1.915   9.667 -0.2681  0.2579  0.4612
  166SOPE  H15R18694   0.442   1.861   9.634 -1.5030 -1.8526  0.3725
  166SOPE  H15S18695   0.363   2.025   9.672  1.4714  0.1117 -0.2776
  166SOPE  C21618696   0.252   1.874   9.554  0.0746  1.0099 -0.1148
  166SOPE  H16R18697   0.150   1.910   9.580  0.5833  1.8846  0.6958
  166SOPE  H16S18698   0.248   1.763   9.548 -0.0266  1.0251 -0.3708
  166SOPE  C21718699   0.295   1.936   9.418  0.1130 -0.1107  1.0334
  166SOPE  H17R18700   0.390   1.994   9.418  1.4024 -2.1644  1.1271
  166SOPE  H17S18701   0.210   2.003   9.392  0.2798 -0.4119 -0.3203
  166SOPE  C21818702   0.310   1.826   9.309 -0.8464 -0.1183 -0.3083
  166SOPE  H18R18703   0.339   1.866   9.210  0.0781  0.9240  0.3693
  166SOPE  H18S18704   0.221   1.761   9.296  0.0463 -1.8462  1.8849
  166SOPE  H18T18705   0.399   1.763   9.327  1.1012  2.8328  0.8180
  166SOPE   C3318706   1.242   1.321  10.114 -0.3478 -0.4088 -0.1492
  166SOPE   H3X18707   1.290   1.224  10.089 -0.8454 -0.4857 -0.7937
  166SOPE   H3Y18708   1.327   1.392  10.125 -0.0063 -0.3757 -2.7349
  166SOPE   C3418709   1.147   1.357  10.001 -0.1109  0.0619 -0.1688
  166SOPE   H4X18710   1.051   1.305  10.019 -0.2828  0.2015 -0.6787
  166SOPE   H4Y18711   1.176   1.329   9.898  1.1870 -1.2608  0.5300
  166SOPE   C3518712   1.126   1.510  10.002  0.0731  0.1411 -1.0314
  166SOPE   H5X18713   1.223   1.558   9.974  1.4163 -2.4758 -1.0309
  166SOPE   H5Y18714   1.104   1.554  10.102  1.9701  1.3990 -1.1367
  166SOPE   C3618715   1.017   1.565   9.919  0.4240 -0.2049  0.3746
  166SOPE   H6X18716   0.939   1.489   9.941  0.1660 -0.2380 -0.6043
  166SOPE   H6Y18717   1.043   1.560   9.811  1.8844 -1.1574  0.7454
  166SOPE   C3718718   0.967   1.716   9.953 -0.4554  0.8880 -0.3100
  166SOPE   H7X18719   1.051   1.785   9.935 -0.7043  0.8079 -1.8383
  166SOPE   H7Y18720   0.944   1.728  10.061  2.2749 -0.6522  0.4660
  166SOPE   C3818721   0.835   1.757   9.877 -0.1786 -0.0775  0.1881
  166SOPE   H8X18722   0.810   1.861   9.907 -0.0350 -0.4604  1.6731
  166SOPE   H8Y18723   0.760   1.683   9.910  0.4458 -1.0482 -0.5376
  166SOPE   C3918724   0.861   1.754   9.728  0.1786 -0.2768  0.4712
  166SOPE   H9X18725   0.895   1.651   9.704  1.6407  0.1259  0.7486
  166SOPE   H9Y18726   0.942   1.823   9.696 -1.5846  0.9388 -1.6042
  166SOPE  C31018727   0.743   1.780   9.632  0.3417  0.8158 -0.5893
  166SOPE  H10X18728   0.702   1.882   9.652 -0.7755  0.4131 -0.8118
  166SOPE  H10Y18729   0.660   1.711   9.656  1.4652 -0.5557 -0.5985
  166SOPE  C31118730   0.779   1.750   9.484  0.4634 -0.8102 -0.0686
  166SOPE  H11X18731   0.823   1.648   9.483  0.0023 -1.0000 -1.3254
  166SOPE  H11Y18732   0.855   1.826   9.455 -0.4131 -0.0066 -0.2940
  166SOPE  C31218733   0.667   1.765   9.379  0.1719  0.1910 -0.4427
  166SOPE  H12X18734   0.628   1.868   9.397 -0.0801 -0.0031  0.1090
  166SOPE  H12Y18735   0.587   1.689   9.386  0.7976 -0.2094  3.5687
  166SOPE  C31318736   0.710   1.770   9.233 -0.2427 -0.1287 -0.1970
  166SOPE  H13X18737   0.718   1.664   9.201 -1.3927 -0.6047  1.0765
  166SOPE  H13Y18738   0.808   1.821   9.221 -0.7432  0.5452 -1.6749
  166SOPE  C31418739   0.621   1.839   9.129 -0.1796 -0.2067 -0.9664
  166SOPE  H14X18740   0.572   1.931   9.165  1.6187 -0.8426  3.3387
  166SOPE  H14Y18741   0.538   1.766   9.116  1.3771 -2.3556  0.7447
  166SOPE  C31518742   0.692   1.873   8.991  0.0548 -0.1728  0.2204
  166SOPE  H15X18743   0.787   1.928   9.007 -0.7963  0.6696  2.6564
  166SOPE  H15Y18744   0.612   1.939   8.950 -1.4460 -1.0479  1.6671
  166SOPE  C31618745   0.708   1.746   8.909 -0.4371 -0.2408  0.3058
  166SOPE  H16X18746   0.624   1.674   8.918 -1.8521  0.9346 -2.7961
  166SOPE  H16Y18747   0.807   1.699   8.927 -0.4441 -0.6584 -0.7215
  166SOPE  C31718748   0.710   1.783   8.754  0.4801 -0.4832 -0.0381
  166SOPE  H17X18749   0.620   1.833   8.713  0.1216 -0.2638  0.9869
  166SOPE  H17Y18750   0.726   1.683   8.709 -2.4712 -0.3667 -1.4895
  166SOPE  C31818751   0.828   1.868   8.708 -0.3520 -0.5003  0.0420
  166SOPE  H18X18752   0.929   1.839   8.746  0.5127  0.3654 -1.5602
  166SOPE  H18Y18753   0.803   1.965   8.756  0.1332 -0.9136  1.1691
  166SOPE  H18Z18754   0.827   1.872   8.597  2.0146 -1.2495 -0.0370
  167SOPE     N18755   2.270   5.735   5.973  0.4918 -0.6724 -0.3818
  167SOPE   HN118756   2.367   5.744   5.937  1.0859 -1.8346  0.8844
  167SOPE   HN218757   2.210   5.675   5.913  1.3136 -1.9791  0.0657
  167SOPE   HN318758   2.215   5.823   5.980 -1.5079 -1.8756 -0.5345
  167SOPE   C1218759   2.284   5.675   6.109 -0.3685 -0.1542  0.4155
  167SOPE  H12A18760   2.330   5.576   6.089 -0.0331  0.1992 -0.5505
  167SOPE  H12B18761   2.186   5.656   6.160  0.0845  2.1246  2.2416
  167SOPE   C1118762   2.388   5.759   6.187 -0.1513 -0.4126  0.1495
  167SOPE  H11A18763   2.398   5.712   6.287 -0.7346 -0.8869 -0.0143
  167SOPE  H11B18764   2.344   5.862   6.193  2.6593  0.8838 -0.7693
  167SOPE     P18765   2.620   5.873   6.145  0.3060 -0.3988 -0.0642
  167SOPE   O1318766   2.559   6.011   6.129  0.4063  0.1720 -0.0562
  167SOPE   O1418767   2.745   5.852   6.067 -0.2518  0.2359  0.4533
  167SOPE   O1218768   2.508   5.760   6.116  0.0036  0.2602  0.5289
  167SOPE   O1118769   2.644   5.840   6.291  0.3463  0.2336 -0.1347
  167SOPE    C118770   2.695   5.707   6.325  0.5958 -0.2944 -0.7009
  167SOPE    HA18771   2.760   5.660   6.248  0.7276  0.4360 -1.0441
  167SOPE    HB18772   2.614   5.632   6.336  0.0889  0.3916  0.2859
  167SOPE    C218773   2.782   5.701   6.461 -0.1398 -0.5848 -0.0668
  167SOPE    HS18774   2.809   5.595   6.482  1.0893 -0.2249  0.1848
  167SOPE   O2118775   2.704   5.756   6.572  0.2071 -0.1102  0.1108
  167SOPE   C2118776   2.622   5.677   6.629 -0.5456 -0.1492 -0.2860
  167SOPE   O2218777   2.591   5.562   6.597  0.2998 -0.0681 -0.2415
  167SOPE   C2218778   2.573   5.743   6.750 -0.1197 -0.3546 -0.4597
  167SOPE   H2R18779   2.491   5.675   6.781 -0.7597 -0.0557 -1.4837
  167SOPE   H2S18780   2.543   5.847   6.724  1.2434  0.0573 -0.3980
  167SOPE    C318781   2.909   5.780   6.442 -0.8483 -0.0810  0.2434
  167SOPE    HX18782   2.880   5.878   6.400 -0.9161 -1.0516 -2.0618
  167SOPE    HY18783   2.956   5.723   6.358 -3.2028 -1.5838 -0.0999
  167SOPE   O3118784   2.997   5.782   6.559  0.3632  0.0543 -0.5192
  167SOPE   C3118785   2.998   5.900   6.623 -0.5154  0.1117  0.4888
  167SOPE   O3218786   2.966   6.008   6.579  0.2214  0.4972 -0.3641
  167SOPE   C3218787   3.049   5.877   6.767  0.3495  1.4349 -0.2003
  167SOPE   H2X18788   3.155   5.844   6.769  0.2522  1.0976 -0.4199
  167SOPE   H2Y18789   2.977   5.804   6.810  0.6988  1.4422  0.4070
  167SOPE   C2318790   2.682   5.744   6.865  0.3890 -0.1042 -0.6302
  167SOPE   H3R18791   2.756   5.816   6.823 -0.6094 -0.0060 -2.2514
  167SOPE   H3S18792   2.731   5.645   6.872  0.3868 -0.0312  0.6012
  167SOPE   C2418793   2.628   5.779   7.002 -0.3852 -0.0610 -0.4852
  167SOPE   H4R18794   2.560   5.693   7.021 -1.8298  0.9319 -1.1086
  167SOPE   H4S18795   2.701   5.785   7.086 -0.5668  2.3533 -0.4820
  167SOPE   C2518796   2.552   5.910   7.009  0.1083  0.0233  0.1396
  167SOPE   H5R18797   2.457   5.918   6.953 -0.1108  1.4775  0.6869
  167SOPE   H5S18798   2.521   5.911   7.116 -0.6587  0.3657 -0.0834
  167SOPE   C2618799   2.642   6.033   6.989 -0.3344 -0.1029 -0.4683
  167SOPE   H6R18800   2.608   6.100   7.070 -0.6809 -0.8151 -0.0138
  167SOPE   H6S18801   2.749   6.027   7.018 -0.0486  0.1824 -1.4341
  167SOPE   C2718802   2.627   6.106   6.861 -0.4947 -0.4814  0.3426
  167SOPE   H7R18803   2.689   6.083   6.771  2.1281  0.4058  1.8600
  167SOPE   H7S18804   2.524   6.109   6.819 -0.3998  1.0848  0.1809
  167SOPE   C2818805   2.660   6.263   6.887  0.2367 -0.0071 -0.2252
  167SOPE   H8R18806   2.759   6.273   6.937 -0.3567  0.3909  0.8932
  167SOPE   H8S18807   2.674   6.305   6.785  1.0431 -1.7555 -0.8549
  167SOPE   C2918808   2.554   6.349   6.949 -0.5122  0.3182  0.0377
  167SOPE   H9118809   2.470   6.357   6.878  1.2728  1.3191 -2.0563
  167SOPE  C21018810   2.541   6.422   7.065 -0.4452 -0.4255  0.6502
  167SOPE  H10118811   2.444   6.466   7.091 -0.7511  0.0905 -1.2795
  167SOPE  C21118812   2.640   6.438   7.181  0.2445  0.3366  0.2640
  167SOPE  H11R18813   2.671   6.543   7.199  0.9824  0.1169  0.2810
  167SOPE  H11S18814   2.732   6.382   7.155 -0.0381  0.0994 -0.2157
  167SOPE  C21218815   2.569   6.383   7.299 -0.5858  0.3363 -0.3428
  167SOPE  H12R18816   2.556   6.272   7.299 -0.6548  0.2802  2.7089
  167SOPE  H12S18817   2.472   6.434   7.317 -1.7502 -1.8856 -0.1039
  167SOPE  C21318818   2.655   6.406   7.427  0.2546  0.2159  0.1697
  167SOPE  H13R18819   2.658   6.517   7.440 -2.6858  0.4919 -0.9174
  167SOPE  H13S18820   2.756   6.362   7.421  1.3851  3.0227 -3.3426
  167SOPE  C21418821   2.585   6.362   7.559 -0.6964  0.2706 -0.6089
  167SOPE  H14R18822   2.576   6.252   7.574 -1.5442  0.0882 -2.2687
  167SOPE  H14S18823   2.482   6.404   7.556 -0.6591  0.3181 -1.4865
  167SOPE  C21518824   2.651   6.420   7.683 -0.2966 -0.1128 -0.2260
  167SOPE  H15R18825   2.677   6.525   7.660 -1.0305  0.0934 -0.1413
  167SOPE  H15S18826   2.742   6.362   7.710  0.3616  0.1733 -1.7799
  167SOPE  C21618827   2.565   6.413   7.806  0.0342 -0.0516  0.1674
  167SOPE  H16R18828   2.535   6.318   7.855 -0.4676  0.2491  0.4453
  167SOPE  H16S18829   2.470   6.460   7.774 -0.6985 -0.4794  1.6545
  167SOPE  C21718830   2.616   6.501   7.915  1.0726  0.2920 -0.2489
  167SOPE  H17R18831   2.631   6.600   7.867 -3.2948  2.4597  2.5015
  167SOPE  H17S18832   2.701   6.453   7.968  0.9146  2.0639  1.6977
  167SOPE  C21818833   2.513   6.521   8.033 -0.0762 -0.2013  0.1122
  167SOPE  H18R18834   2.494   6.424   8.083 -1.2832  0.5734  1.1738
  167SOPE  H18S18835   2.411   6.552   8.002 -0.3500 -0.3375  0.8824
  167SOPE  H18T18836   2.564   6.590   8.104  1.2887 -1.1516  0.0732
  167SOPE   C3318837   3.034   6.001   6.861  0.1189  0.6001  0.6245
  167SOPE   H3X18838   2.934   6.049   6.847  0.0668  0.4790  0.5817
  167SOPE   H3Y18839   3.107   6.082   6.838  2.2000 -1.0159  1.4139
  167SOPE   C3418840   3.049   5.968   7.008 -0.2307 -0.7966 -0.6371
  167SOPE   H4X18841   3.157   5.943   7.020  0.9187  3.8177 -0.4778
  167SOPE   H4Y18842   2.983   5.885   7.042 -2.7026  3.0191  4.5807
  167SOPE   C3518843   3.019   6.086   7.106 -0.6314 -0.6433 -0.3058
  167SOPE   H5X18844   2.961   6.164   7.053 -0.1019 -0.4458 -0.5998
  167SOPE   H5Y18845   3.115   6.132   7.137 -1.7776 -0.2010  2.7210
  167SOPE   C3618846   2.933   6.033   7.222  0.9717  0.0265 -0.4217
  167SOPE   H6X18847   2.995   5.966   7.287  0.3815 -1.5326 -1.4341
  167SOPE   H6Y18848   2.838   5.983   7.193  0.6351  0.2564  0.2729
  167SOPE   C3718849   2.883   6.143   7.320 -0.4263  0.4671  0.2215
  167SOPE   H7X18850   2.808   6.211   7.275 -1.8065  0.7852  2.9209
  167SOPE   H7Y18851   2.965   6.210   7.356 -0.6491  1.0460 -0.3466
  167SOPE   C3818852   2.828   6.069   7.441  0.9057 -0.9022  0.5829
  167SOPE   H8X18853   2.741   6.004   7.419 -0.9761  1.6160  0.4554
  167SOPE   H8Y18854   2.784   6.150   7.503 -2.2044 -2.5325  0.5999
  167SOPE   C3918855   2.933   5.996   7.529  0.7772 -0.2302  0.0821
  167SOPE   H9X18856   2.942   5.891   7.494  1.1499 -0.6340  1.3668
  167SOPE   H9Y18857   2.882   5.998   7.628  2.4769 -0.7430  0.9925
  167SOPE  C31018858   3.063   6.067   7.541 -1.4867 -0.0652  0.4244
  167SOPE  H10X18859   3.041   6.173   7.567  0.3033  0.2767  0.5991
  167SOPE  H10Y18860   3.128   6.058   7.452  1.6665 -1.9598  2.8287
  167SOPE  C31118861   3.143   6.037   7.667 -0.0704  0.3451  0.5439
  167SOPE  H11X18862   3.239   6.093   7.665  0.0737  0.0740 -0.8097
  167SOPE  H11Y18863   3.168   5.929   7.652 -0.3428  0.0768  1.9714
  167SOPE  C31218864   3.079   6.064   7.800 -0.0323 -0.6772 -0.4893
  167SOPE  H12X18865   3.006   5.984   7.825 -2.1429  1.5721  0.7916
  167SOPE  H12Y18866   3.027   6.161   7.790 -1.7295 -1.3668  1.2938
  167SOPE  C31318867   3.173   6.067   7.923  0.0050  1.0709 -0.0167
  167SOPE  H13X18868   3.266   6.127   7.922  2.3623 -2.4015 -0.7552
  167SOPE  H13Y18869   3.225   5.969   7.924  0.5556  1.3687  3.3083
  167SOPE  C31418870   3.103   6.099   8.051  0.1808 -0.2262 -0.9075
  167SOPE  H14X18871   3.052   6.013   8.101 -0.4863 -1.4160 -3.5308
  167SOPE  H14Y18872   3.034   6.185   8.034  2.0907  1.4386 -0.3379
  167SOPE  C31518873   3.203   6.161   8.162 -0.3186  0.2868 -0.5398
  167SOPE  H15X18874   3.258   6.249   8.123 -0.5968  0.5597 -0.3172
  167SOPE  H15Y18875   3.285   6.090   8.187 -2.0334 -1.4023  0.4271
  167SOPE  C31618876   3.137   6.202   8.296 -0.2331 -0.2064  0.3564
  167SOPE  H16X18877   3.066   6.120   8.321 -2.7268  1.4156 -1.1689
  167SOPE  H16Y18878   3.070   6.287   8.271 -1.7633 -0.9630  1.8145
  167SOPE  C31718879   3.244   6.234   8.403  0.4201  0.2765 -0.3650
  167SOPE  H17X18880   3.308   6.318   8.368 -1.5231  0.6502 -3.2048
  167SOPE  H17Y18881   3.311   6.146   8.409 -2.3912 -1.7998  1.6928
  167SOPE  C31818882   3.194   6.270   8.544  0.3683  0.2466 -0.3114
  167SOPE  H18X18883   3.140   6.185   8.590  1.6003  0.1715  1.0107
  167SOPE  H18Y18884   3.116   6.348   8.531 -0.0804 -0.1447  0.0073
  167SOPE  H18Z18885   3.274   6.298   8.616 -0.7488  2.3242  0.1830
  168SOPE     N18886   2.535   3.693   6.074  0.0715 -0.4075  0.0813
  168SOPE   HN118887   2.478   3.711   5.989 -0.8759 -0.5256  0.6833
  168SOPE   HN218888   2.481   3.663   6.157  0.0162  2.7412  1.2083
  168SOPE   HN318889   2.571   3.784   6.108 -1.6089  0.9485 -1.6493
  168SOPE   C1218890   2.655   3.604   6.073 -0.6054  0.0375 -0.1895
  168SOPE  H12A18891   2.726   3.640   5.995 -0.5548 -0.0793 -0.1974
  168SOPE  H12B18892   2.617   3.503   6.046 -0.6830  0.3520 -1.2834
  168SOPE   C1118893   2.728   3.601   6.204  0.3661  0.4791 -0.6098
  168SOPE  H11A18894   2.733   3.702   6.249  2.3895 -0.1111  0.5880
  168SOPE  H11B18895   2.836   3.577   6.193  0.4892  1.0329 -0.6017
  168SOPE     P18896   2.567   3.546   6.394  0.1856 -0.3085 -0.2406
  168SOPE   O1318897   2.445   3.593   6.315  0.5551 -0.2050 -0.1782
  168SOPE   O1418898   2.630   3.641   6.491 -0.1481  0.2925  0.2811
  168SOPE   O1218899   2.672   3.503   6.288 -0.3863  0.1359  0.0591
  168SOPE   O1118900   2.531   3.413   6.480  0.1595  0.0310 -0.2411
  168SOPE    C118901   2.644   3.332   6.522  0.6463  0.1313  0.6544
  168SOPE    HA18902   2.746   3.374   6.508  0.0530  1.4923  0.3310
  168SOPE    HB18903   2.649   3.235   6.468 -1.0573 -0.0440  0.7888
  168SOPE    C218904   2.637   3.318   6.675  0.5738  0.0916 -0.1430
  168SOPE    HS18905   2.722   3.254   6.707  0.3453 -0.8061 -1.2732
  168SOPE   O2118906   2.515   3.269   6.735  0.2674 -0.4206 -0.3766
  168SOPE   C2118907   2.460   3.163   6.687 -0.2083 -0.3875  0.0143
  168SOPE   O2218908   2.507   3.087   6.603  0.6914 -0.3028  0.3312
  168SOPE   C2218909   2.325   3.125   6.747  0.1555  1.0061  0.5053
  168SOPE   H2R18910   2.311   3.016   6.734 -1.8094  1.2709  0.2419
  168SOPE   H2S18911   2.248   3.170   6.682  0.0139  1.0600  0.7099
  168SOPE    C318912   2.671   3.454   6.743  0.0565  0.6052  1.0344
  168SOPE    HX18913   2.595   3.524   6.703 -0.0840 -0.3665 -0.4499
  168SOPE    HY18914   2.765   3.497   6.705 -3.0559  4.6343 -2.6547
  168SOPE   O3118915   2.675   3.453   6.886  0.3426  0.1338 -0.1209
  168SOPE   C3118916   2.568   3.505   6.941  0.6263 -0.2681  0.3081
  168SOPE   O3218917   2.469   3.545   6.884 -0.5997  0.1569 -1.2294
  168SOPE   C3218918   2.574   3.476   7.090  0.0130 -0.1626  0.5209
  168SOPE   H2X18919   2.641   3.550   7.139 -0.2667  0.2188  0.3326
  168SOPE   H2Y18920   2.612   3.372   7.095 -2.5425 -1.1260  1.0235
  168SOPE   C2318921   2.304   3.177   6.889 -0.6039  0.7266  0.1587
  168SOPE   H3R18922   2.196   3.169   6.914 -0.5614 -1.8502 -0.2780
  168SOPE   H3S18923   2.321   3.284   6.910  0.2877  0.5995  0.1066
  168SOPE   C2418924   2.378   3.091   6.993 -0.2375  0.4652 -0.5217
  168SOPE   H4R18925   2.370   2.986   6.956  0.9892 -0.4248  1.6156
  168SOPE   H4S18926   2.484   3.123   6.984 -0.7359  1.7008 -2.0676
  168SOPE   C2518927   2.317   3.104   7.135  0.0548  0.3126 -0.3085
  168SOPE   H5R18928   2.313   3.210   7.168 -0.6214 -0.0938  0.9619
  168SOPE   H5S18929   2.213   3.063   7.140 -0.0804  0.6397 -0.4540
  168SOPE   C2618930   2.414   3.046   7.237 -0.6769 -0.3880  1.1433
  168SOPE   H6R18931   2.432   2.938   7.215  0.3653  0.3003 -1.6372
  168SOPE   H6S18932   2.511   3.100   7.236 -0.6554 -0.3935  2.8467
  168SOPE   C2718933   2.353   3.043   7.371  0.5129  0.2581  0.2294
  168SOPE   H7R18934   2.314   3.145   7.393  1.3748  0.9795 -1.4748
  168SOPE   H7S18935   2.278   2.961   7.380  0.4678  0.3259  0.4851
  168SOPE   C2818936   2.463   3.016   7.474 -0.3961 -0.1441  0.1943
  168SOPE   H8R18937   2.513   2.922   7.442  1.2101  0.8364 -0.2335
  168SOPE   H8S18938   2.534   3.100   7.480 -1.5388  0.8658 -0.2396
  168SOPE   C2918939   2.412   3.014   7.615 -0.4959  0.2599  0.6644
  168SOPE   H9118940   2.304   3.035   7.620 -0.2483  1.3979  1.3987
  168SOPE  C21018941   2.481   3.003   7.728  0.1949  0.6075 -0.3818
  168SOPE  H10118942   2.432   2.987   7.825  1.4240 -1.4222 -0.0838
  168SOPE  C21118943   2.629   2.981   7.732  0.3824  0.3658  0.2637
  168SOPE  H11R18944   2.689   3.066   7.771 -0.4718  1.6823 -1.2177
  168SOPE  H11S18945   2.679   2.952   7.637  0.3166  2.0184 -0.2951
  168SOPE  C21218946   2.662   2.859   7.821  0.3467 -0.4406 -0.3660
  168SOPE  H12R18947   2.772   2.850   7.810  0.4363  1.4223 -1.1087
  168SOPE  H12S18948   2.599   2.770   7.798 -1.0172  0.7164 -1.1757
  168SOPE  C21318949   2.646   2.897   7.974  0.4519  0.7254 -0.0510
  168SOPE  H13R18950   2.694   2.819   8.036  3.4083  1.7899 -0.8928
  168SOPE  H13S18951   2.538   2.901   7.997  0.6362 -2.4566  1.5424
  168SOPE  C21418952   2.713   3.030   8.024 -0.0149  0.2434 -0.3854
  168SOPE  H14R18953   2.689   3.118   7.960 -2.0970 -0.8041 -1.0886
  168SOPE  H14S18954   2.821   3.008   8.014  0.3014  0.6968  1.6620
  168SOPE  C21518955   2.688   3.072   8.171  0.4684  0.3423 -0.1887
  168SOPE  H15R18956   2.580   3.089   8.193 -0.3707 -4.0063 -0.5161
  168SOPE  H15S18957   2.747   3.164   8.190  1.1619 -0.3001  0.8314
  168SOPE  C21618958   2.729   2.969   8.275  0.4613 -0.3832 -0.5767
  168SOPE  H16R18959   2.835   2.937   8.263  0.6653 -0.0295  0.2334
  168SOPE  H16S18960   2.667   2.877   8.260  0.4210 -1.2571  4.0803
  168SOPE  C21718961   2.732   3.020   8.425 -0.3448 -0.2831  0.0891
  168SOPE  H17R18962   2.627   3.050   8.449 -0.4140  1.5332 -2.3066
  168SOPE  H17S18963   2.791   3.114   8.415  1.8538 -1.6059  0.3982
  168SOPE  C21818964   2.805   2.930   8.532 -0.1988 -0.1073 -0.4824
  168SOPE  H18R18965   2.784   2.822   8.511  0.1150 -0.3751  0.5691
  168SOPE  H18S18966   2.761   2.939   8.634  0.0484  0.0463 -0.3905
  168SOPE  H18T18967   2.914   2.944   8.546  0.0726 -3.3333  1.3437
  168SOPE   C3318968   2.428   3.494   7.152 -0.0332 -0.4922  0.7380
  168SOPE   H3X18969   2.355   3.422   7.111 -0.8677  0.4183  0.6172
  168SOPE   H3Y18970   2.394   3.597   7.130  1.5370 -0.1123  0.0028
  168SOPE   C3418971   2.433   3.497   7.304 -0.0368  0.5239 -0.3561
  168SOPE   H4X18972   2.502   3.579   7.332  1.5440 -0.3481 -1.5554
  168SOPE   H4Y18973   2.480   3.401   7.335  1.2089  1.2983  0.1699
  168SOPE   C3518974   2.302   3.518   7.366  0.6761 -0.4136  0.1745
  168SOPE   H5X18975   2.225   3.454   7.319 -0.0202  1.0736 -0.7476
  168SOPE   H5Y18976   2.265   3.621   7.346 -1.2093 -0.5297  2.7643
  168SOPE   C3618977   2.303   3.493   7.519  0.5923  0.5805  0.2625
  168SOPE   H6X18978   2.326   3.386   7.536  1.8784  1.0064  1.2982
  168SOPE   H6Y18979   2.203   3.508   7.565  1.0940  0.2893  1.4831
  168SOPE   C3718980   2.423   3.573   7.590 -1.2327 -0.2527  0.5863
  168SOPE   H7X18981   2.404   3.680   7.571 -1.0091 -0.1651  0.8512
  168SOPE   H7Y18982   2.522   3.551   7.545 -1.8182  0.5990 -1.1734
  168SOPE   C3818983   2.433   3.539   7.736  0.4328 -0.5842  0.0116
  168SOPE   H8X18984   2.468   3.435   7.754  3.5392  0.0076 -2.2473
  168SOPE   H8Y18985   2.327   3.545   7.771  0.0987  3.2488 -1.4216
  168SOPE   C3918986   2.517   3.637   7.808 -0.0445 -0.2025  0.2033
  168SOPE   H9X18987   2.503   3.738   7.765 -1.0433  0.5332  2.1891
  168SOPE   H9Y18988   2.626   3.625   7.791 -0.0519  0.0084  0.0029
  168SOPE  C31018989   2.486   3.644   7.958 -0.5226  0.6822  0.2727
  168SOPE  H10X18990   2.379   3.673   7.969 -0.8770 -0.7425  0.7538
  168SOPE  H10Y18991   2.553   3.722   7.999 -1.4223  0.4856  2.1583
  168SOPE  C31118992   2.507   3.510   8.038  0.7245  0.1621  0.1607
  168SOPE  H11X18993   2.606   3.463   8.023  0.2590 -0.6658 -0.3632
  168SOPE  H11Y18994   2.433   3.441   7.991  0.2073  0.3801  0.6489
  168SOPE  C31218995   2.482   3.523   8.188 -0.0611  0.6485 -0.1468
  168SOPE  H12X18996   2.372   3.536   8.197  0.0533  1.6033 -0.0645
  168SOPE  H12Y18997   2.525   3.622   8.214 -0.2403  0.4392  0.9529
  168SOPE  C31318998   2.532   3.398   8.267 -0.3433  0.3024 -0.1859
  168SOPE  H13X18999   2.640   3.389   8.246 -1.0397  0.9009 -4.6775
  168SOPE  H13Y19000   2.486   3.305   8.228  0.1283 -0.0194  0.0252
  168SOPE  C31419001   2.520   3.411   8.416  1.2490  0.5534  0.8268
  168SOPE  H14X19002   2.558   3.320   8.467  4.2947 -0.2225 -2.6532
  168SOPE  H14Y19003   2.410   3.415   8.432  1.0489 -0.0967 -0.3886
  168SOPE  C31519004   2.593   3.530   8.475  0.4519  0.4839  0.1938
  168SOPE  H15X19005   2.574   3.628   8.426  0.0626  0.8153  0.9884
  168SOPE  H15Y19006   2.704   3.524   8.468  0.2432  0.4223 -3.9214
  168SOPE  C31619007   2.542   3.552   8.625 -0.1561  0.1354  0.1596
  168SOPE  H16X19008   2.550   3.456   8.681  2.5002  1.0027  1.3022
  168SOPE  H16Y19009   2.438   3.591   8.620 -1.0333 -2.2204 -1.3388
  168SOPE  C31719010   2.617   3.664   8.703 -0.7881 -0.1390 -0.1540
  168SOPE  H17X19011   2.607   3.766   8.661 -0.1594  0.9358  2.2138
  168SOPE  H17Y19012   2.727   3.657   8.689 -0.8014 -0.8371  0.0913
  168SOPE  C31819013   2.593   3.681   8.855 -0.3342  0.1798  0.3401
  168SOPE  H18X19014   2.487   3.712   8.871 -0.9103  0.1377 -3.0302
  168SOPE  H18Y19015   2.660   3.759   8.898 -1.6022  1.9686 -0.8627
  168SOPE  H18Z19016   2.611   3.588   8.913  0.2474 -0.3334 -0.6455
  169SOPE     N19017   4.802   5.643   6.554  0.0028 -0.6760  0.1439
  169SOPE   HN119018   4.730   5.606   6.489  0.7414  0.9985 -1.6648
  169SOPE   HN219019   4.764   5.733   6.590  0.5022 -1.6026  3.1711
  169SOPE   HN319020   4.892   5.651   6.503  1.2007  0.4766  2.3846
  169SOPE   C1219021   4.810   5.544   6.667 -0.0498  0.5769 -0.5176
  169SOPE  H12A19022   4.788   5.594   6.763 -2.4469  1.4186 -1.4687
  169SOPE  H12B19023   4.916   5.510   6.673 -1.2401 -3.1938  0.6719
  169SOPE   C1119024   4.710   5.422   6.644  0.0454 -0.3521 -0.2698
  169SOPE  H11A19025   4.608   5.466   6.634 -0.8186 -1.8116  1.8594
  169SOPE  H11B19026   4.699   5.358   6.734 -2.0804 -1.8747 -1.5342
  169SOPE     P19027   4.865   5.239   6.522 -0.4490 -0.1914 -0.5152
  169SOPE   O1319028   4.980   5.306   6.571 -0.4453  0.6345 -0.8084
  169SOPE   O1419029   4.868   5.188   6.383  0.6004  0.2478 -0.0082
  169SOPE   O1219030   4.746   5.350   6.528 -0.5211  0.3937  0.0590
  169SOPE   O1119031   4.816   5.123   6.615  0.2744  0.1256 -0.2746
  169SOPE    C119032   4.889   5.027   6.689  0.6035 -0.3576 -0.4501
  169SOPE    HA19033   4.994   5.021   6.654  1.6368 -3.6773  2.8452
  169SOPE    HB19034   4.837   4.929   6.688 -0.7823  0.3486  0.1086
  169SOPE    C219035   4.918   5.066   6.838  0.0813 -0.7099 -0.1741
  169SOPE    HS19036   4.969   5.165   6.842 -1.9073  0.3924 -1.1793
  169SOPE   O2119037   4.993   4.965   6.895  0.0131 -0.9767 -0.2807
  169SOPE   C2119038   5.075   4.992   7.002 -0.5788  0.7778 -0.6908
  169SOPE   O2219039   5.086   5.107   7.050  0.2168 -0.5225  0.1524
  169SOPE   C2219040   5.141   4.867   7.059  0.0209 -0.0572 -0.0407
  169SOPE   H2R19041   5.214   4.836   6.981 -0.4933  1.4784 -1.1577
  169SOPE   H2S19042   5.071   4.784   7.082  0.4423 -1.1314 -2.4731
  169SOPE    C319043   4.783   5.090   6.910 -0.0396  0.9233 -0.3152
  169SOPE    HX19044   4.719   5.003   6.885  2.0851 -1.1687  1.3568
  169SOPE    HY19045   4.736   5.172   6.851 -0.9657  1.7820  1.5685
  169SOPE   O3119046   4.784   5.101   7.058 -0.2585 -0.7530  1.1560
  169SOPE   C3119047   4.727   5.205   7.099  0.0777 -0.3296  0.0416
  169SOPE   O3219048   4.689   5.305   7.036  0.6586 -0.5206  0.4903
  169SOPE   C3219049   4.706   5.183   7.248 -0.0403 -0.3834  0.4783
  169SOPE   H2X19050   4.805   5.163   7.294  0.0688  0.9207  0.8184
  169SOPE   H2Y19051   4.648   5.089   7.263  3.1351 -2.5674 -0.2869
  169SOPE   C2319052   5.226   4.906   7.183  0.4323 -0.1039  0.2622
  169SOPE   H3R19053   5.277   5.005   7.184  0.6697 -0.1967 -1.3559
  169SOPE   H3S19054   5.309   4.832   7.184  2.8283  2.4617  0.4826
  169SOPE   C2419055   5.150   4.890   7.313 -0.4508 -0.2312  0.0798
  169SOPE   H4R19056   5.049   4.936   7.316 -0.5096 -0.2218 -1.6687
  169SOPE   H4S19057   5.133   4.782   7.328 -1.9937 -0.1028 -0.7246
  169SOPE   C2519058   5.247   4.929   7.430 -0.8501  0.1366 -0.4665
  169SOPE   H5R19059   5.344   4.875   7.428 -2.8666 -3.8451  1.9857
  169SOPE   H5S19060   5.267   5.037   7.418  0.5974 -0.2308 -1.4488
  169SOPE   C2619061   5.192   4.891   7.568  0.5495 -0.0251  0.4020
  169SOPE   H6R19062   5.087   4.925   7.571  0.7729  0.7010 -0.0400
  169SOPE   H6S19063   5.183   4.781   7.578 -0.3686  0.0850  0.8113
  169SOPE   C2719064   5.276   4.933   7.689 -0.0779 -0.6730  1.1497
  169SOPE   H7R19065   5.383   4.913   7.668  0.0391 -1.1446  2.1507
  169SOPE   H7S19066   5.264   5.044   7.696 -2.2918 -0.7078 -1.3455
  169SOPE   C2819067   5.238   4.856   7.824 -0.1871 -0.9132  0.4053
  169SOPE   H8R19068   5.247   4.749   7.793 -1.9548 -0.9171 -0.1560
  169SOPE   H8S19069   5.304   4.893   7.904 -1.8966  2.3153  0.4003
  169SOPE   C2919070   5.100   4.886   7.873  0.3035 -0.9379  0.2825
  169SOPE   H9119071   5.025   4.868   7.795 -0.5048 -0.2585  0.8848
  169SOPE  C21019072   5.064   4.935   7.989  1.0680  0.1229 -0.0821
  169SOPE  H10119073   4.955   4.949   7.992  0.9779 -0.9048  3.2412
  169SOPE  C21119074   5.139   4.979   8.117 -0.5295 -0.4954  0.1259
  169SOPE  H11R19075   5.075   5.056   8.166  0.0364  0.2852 -0.3570
  169SOPE  H11S19076   5.230   5.031   8.080 -1.3490  0.2212 -0.8960
  169SOPE  C21219077   5.162   4.865   8.224 -0.6810  0.1272  0.1909
  169SOPE  H12R19078   5.238   4.794   8.184 -0.8947 -0.6751  1.1903
  169SOPE  H12S19079   5.066   4.810   8.233 -0.4197 -0.5482 -0.9245
  169SOPE  C21319080   5.206   4.924   8.358 -0.3461  0.4295 -0.1399
  169SOPE  H13R19081   5.248   4.846   8.425 -1.2450  1.3014  1.4759
  169SOPE  H13S19082   5.126   4.975   8.416 -0.4775  1.0131 -0.8225
  169SOPE  C21419083   5.308   5.026   8.362  0.2401  0.6195  0.0940
  169SOPE  H14R19084   5.267   5.114   8.307  2.5615  0.3237 -2.1851
  169SOPE  H14S19085   5.390   4.988   8.298 -0.0931 -0.1795  0.1293
  169SOPE  C21519086   5.348   5.069   8.506 -0.8689  0.1959  0.5181
  169SOPE  H15R19087   5.264   5.089   8.574 -1.5697  1.2804 -0.6508
  169SOPE  H15S19088   5.405   5.164   8.496  0.0318 -0.1006  2.5606
  169SOPE  C21619089   5.445   4.975   8.573  0.3319 -0.8603 -0.1937
  169SOPE  H16R19090   5.519   4.952   8.493  0.7499  1.4328 -0.4934
  169SOPE  H16S19091   5.402   4.873   8.589  0.6908 -1.0326 -0.3117
  169SOPE  C21719092   5.509   5.034   8.698  0.4616  0.2112  0.2949
  169SOPE  H17R19093   5.578   5.111   8.657 -0.5471  1.1263  0.2967
  169SOPE  H17S19094   5.582   4.958   8.735  2.6731  2.0202 -0.2155
  169SOPE  C21819095   5.418   5.093   8.806 -0.1381  0.0317  0.7177
  169SOPE  H18R19096   5.357   5.016   8.858  0.2554 -2.1967 -1.9754
  169SOPE  H18S19097   5.345   5.165   8.763  0.6167  0.8353  0.7746
  169SOPE  H18T19098   5.474   5.138   8.890  0.0268 -0.0178  0.6349
  169SOPE   C3319099   4.654   5.313   7.314 -0.1699  0.2430  0.2200
  169SOPE   H3X19100   4.556   5.334   7.267  0.3093  0.3893 -0.7406
  169SOPE   H3Y19101   4.720   5.401   7.299 -1.8926  1.6148  0.6745
  169SOPE   C3419102   4.613   5.298   7.462  0.6871 -0.2078  0.7322
  169SOPE   H4X19103   4.704   5.258   7.512 -0.0996 -4.1098 -0.7685
  169SOPE   H4Y19104   4.530   5.225   7.472  1.6747 -1.3777  0.5508
  169SOPE   C3519105   4.561   5.427   7.521  0.6524 -0.4719  0.1605
  169SOPE   H5X19106   4.454   5.435   7.492  0.3126  1.6455  1.9211
  169SOPE   H5Y19107   4.613   5.516   7.478 -1.6709  0.7838 -0.1148
  169SOPE   C3619108   4.591   5.434   7.666 -0.2427  0.0838  0.9933
  169SOPE   H6X19109   4.618   5.537   7.699  0.4692 -0.1810  1.2497
  169SOPE   H6Y19110   4.686   5.377   7.681 -0.2174  0.4187  2.1535
  169SOPE   C3719111   4.476   5.371   7.746 -0.2367 -0.5720  0.3633
  169SOPE   H7X19112   4.463   5.267   7.711  0.1280 -0.3438 -0.4711
  169SOPE   H7Y19113   4.379   5.415   7.714  1.1345  0.7821 -2.0863
  169SOPE   C3819114   4.495   5.388   7.889 -0.4944 -0.9749 -0.3388
  169SOPE   H8X19115   4.601   5.376   7.921 -0.4807 -2.8870 -1.0097
  169SOPE   H8Y19116   4.467   5.490   7.923  0.8337 -0.2326 -1.4161
  169SOPE   C3919117   4.403   5.287   7.969 -0.0979  0.5106  0.0507
  169SOPE   H9X19118   4.449   5.186   7.977 -0.5822  0.2813  0.0001
  169SOPE   H9Y19119   4.303   5.264   7.926 -0.6152 -2.7687  2.7969
  169SOPE  C31019120   4.372   5.341   8.109  0.5965 -0.3982  0.5220
  169SOPE  H10X19121   4.310   5.433   8.101 -0.6369 -1.3815 -1.8340
  169SOPE  H10Y19122   4.461   5.370   8.168  0.4321 -0.6412  0.8938
  169SOPE  C31119123   4.291   5.235   8.193 -0.1098  0.2215  0.1526
  169SOPE  H11X19124   4.343   5.137   8.196 -2.0934 -0.8825 -0.5766
  169SOPE  H11Y19125   4.195   5.217   8.141 -0.8326  2.4601  0.6452
  169SOPE  C31219126   4.258   5.292   8.332 -0.1101 -0.1474  0.0961
  169SOPE  H12X19127   4.214   5.210   8.392  2.2388  0.9319  3.3841
  169SOPE  H12Y19128   4.186   5.377   8.333  1.6534  1.3642  0.2852
  169SOPE  C31319129   4.376   5.344   8.411  0.5760 -0.0720  0.9382
  169SOPE  H13X19130   4.398   5.437   8.355 -0.8406 -0.4777 -0.3077
  169SOPE  H13Y19131   4.456   5.269   8.397 -0.8288 -1.2062 -1.1676
  169SOPE  C31419132   4.330   5.383   8.549 -0.0503  0.4941  0.3909
  169SOPE  H14X19133   4.313   5.293   8.611  1.7480 -0.1733 -0.0411
  169SOPE  H14Y19134   4.240   5.448   8.540  1.2518  2.0617 -1.9643
  169SOPE  C31519135   4.438   5.461   8.618  0.4538  0.1026 -0.8058
  169SOPE  H15X19136   4.398   5.478   8.720  1.7862 -2.3195  0.1545
  169SOPE  H15Y19137   4.460   5.560   8.573 -0.2535  0.6578  0.0540
  169SOPE  C31619138   4.575   5.385   8.630 -0.7726 -0.5848 -0.0654
  169SOPE  H16X19139   4.609   5.343   8.532 -0.0937 -1.6239  0.5991
  169SOPE  H16Y19140   4.571   5.302   8.704 -0.2709 -0.3067  0.2682
  169SOPE  C31719141   4.695   5.467   8.677 -0.4494 -0.4199 -0.1563
  169SOPE  H17X19142   4.785   5.401   8.681 -0.0032  0.2310  0.6828
  169SOPE  H17Y19143   4.676   5.492   8.783 -0.5737 -0.6640 -0.1200
  169SOPE  C31819144   4.730   5.588   8.594 -0.2586 -0.2174  0.0408
  169SOPE  H18X19145   4.832   5.616   8.627 -0.6049  1.1624 -0.0209
  169SOPE  H18Y19146   4.662   5.665   8.635 -0.8265 -0.3539 -0.6349
  169SOPE  H18Z19147   4.717   5.567   8.485 -0.4261  1.0369 -0.1835
  170SOPE     N19148   5.947   3.972   6.041  0.2972 -0.3941 -0.0974
  170SOPE   HN119149   5.965   4.012   5.946 -2.2397  0.8693 -0.0946
  170SOPE   HN219150   6.000   4.034   6.105 -1.3149 -0.5685  1.4385
  170SOPE   HN319151   5.977   3.876   6.066 -2.1250 -1.0683  0.3848
  170SOPE   C1219152   5.804   3.963   6.070  0.0088  0.4285  0.0062
  170SOPE  H12A19153   5.756   3.868   6.039 -1.3872  0.5296  1.7735
  170SOPE  H12B19154   5.756   4.047   6.015  1.5365  0.1685 -1.7587
  170SOPE   C1119155   5.780   3.987   6.219  0.0457  0.5142  0.5870
  170SOPE  H11A19156   5.836   3.922   6.289  0.3385 -0.9321 -0.9644
  170SOPE  H11B19157   5.677   3.952   6.242  1.4801 -3.8277  0.8826
  170SOPE     P19158   5.690   4.215   6.325  0.1122 -0.2830 -0.0677
  170SOPE   O1319159   5.566   4.210   6.248  0.8796 -0.3428 -0.4736
  170SOPE   O1419160   5.752   4.350   6.342 -0.0729 -0.1861  0.3975
  170SOPE   O1219161   5.801   4.125   6.258  0.1630  0.1832 -0.4349
  170SOPE   O1119162   5.662   4.159   6.471 -0.7946 -0.2978 -1.3262
  170SOPE    C119163   5.774   4.142   6.562 -0.3033  0.4476  0.0024
  170SOPE    HA19164   5.854   4.216   6.541  0.7804 -1.2276 -1.9157
  170SOPE    HB19165   5.819   4.040   6.557  1.6455  1.2607  0.4481
  170SOPE    C219166   5.716   4.164   6.709  0.5380 -0.5330 -0.5005
  170SOPE    HS19167   5.798   4.159   6.784  0.5202 -2.2090 -0.5579
  170SOPE   O2119168   5.604   4.069   6.734  0.0289  0.1091 -0.0495
  170SOPE   C2119169   5.639   3.952   6.765  0.4706 -0.0004  0.5656
  170SOPE   O2219170   5.750   3.902   6.781 -0.5255 -0.5002 -0.1419
  170SOPE   C2219171   5.514   3.861   6.783 -1.3577  0.0410  0.0800
  170SOPE   H2R19172   5.528   3.769   6.721  0.9951 -0.0122  0.6412
  170SOPE   H2S19173   5.425   3.916   6.746 -0.9038  1.2914  0.8369
  170SOPE    C319174   5.645   4.302   6.711 -0.6457 -0.3292  0.4358
  170SOPE    HX19175   5.564   4.315   6.637 -0.9321 -0.9241  0.6416
  170SOPE    HY19176   5.718   4.377   6.674 -1.7443  0.3824 -0.3249
  170SOPE   O3119177   5.621   4.348   6.840  0.0206 -0.2386  0.4223
  170SOPE   C3119178   5.518   4.430   6.845 -0.1765 -0.0920  0.1237
  170SOPE   O3219179   5.478   4.496   6.748 -0.2282  0.0824  0.0271
  170SOPE   C3219180   5.456   4.446   6.987 -0.6452  0.1958 -0.1546
  170SOPE   H2X19181   5.390   4.358   6.998 -0.4499  0.1930  1.1337
  170SOPE   H2Y19182   5.397   4.540   6.980 -1.7361 -0.4836 -0.0738
  170SOPE   C2319183   5.487   3.827   6.935 -0.0808 -0.0876  0.0229
  170SOPE   H3R19184   5.436   3.912   6.985 -0.2684  0.0165 -0.3475
  170SOPE   H3S19185   5.583   3.806   6.988 -1.7219 -0.0290  3.1520
  170SOPE   C2419186   5.387   3.707   6.947 -0.2140 -0.4765  0.0672
  170SOPE   H4R19187   5.323   3.732   6.859  2.2276  1.3870 -1.2697
  170SOPE   H4S19188   5.436   3.609   6.927 -1.1703 -0.5317 -2.2496
  170SOPE   C2519189   5.317   3.706   7.083 -0.2420  0.2575  0.2035
  170SOPE   H5R19190   5.272   3.805   7.109 -0.7368 -0.2170  1.2263
  170SOPE   H5S19191   5.233   3.634   7.091 -0.2977  0.5627  3.0647
  170SOPE   C2619192   5.415   3.662   7.191  0.0022 -0.0222  0.3727
  170SOPE   H6R19193   5.473   3.579   7.144 -0.2813 -1.5276  2.6119
  170SOPE   H6S19194   5.483   3.748   7.204 -0.7043  0.5624  0.2263
  170SOPE   C2719195   5.347   3.613   7.317  0.6685 -0.0535 -0.4948
  170SOPE   H7R19196   5.269   3.537   7.294  1.0244 -0.6377  0.2332
  170SOPE   H7S19197   5.414   3.559   7.387 -1.9936 -1.7279  0.8402
  170SOPE   C2819198   5.272   3.723   7.385 -0.0833  0.0138 -1.1231
  170SOPE   H8R19199   5.180   3.749   7.328 -0.9133  2.3825  1.1815
  170SOPE   H8S19200   5.211   3.689   7.472 -0.8496  4.2862  0.1031
  170SOPE   C2919201   5.346   3.842   7.418  0.4923  0.0993  0.5979
  170SOPE   H9119202   5.397   3.880   7.328 -0.6063 -1.6110 -0.7844
  170SOPE  C21019203   5.357   3.906   7.534 -0.5604  0.3812 -0.6664
  170SOPE  H10119204   5.403   4.005   7.535 -3.3784  1.7809 -2.9444
  170SOPE  C21119205   5.290   3.862   7.654  0.0098 -0.9058  0.0185
  170SOPE  H11R19206   5.354   3.789   7.708  0.7168 -2.4024 -2.7289
  170SOPE  H11S19207   5.191   3.817   7.631  0.3954 -1.3816 -0.7504
  170SOPE  C21219208   5.283   3.968   7.757  0.6537  0.1243 -0.8411
  170SOPE  H12R19209   5.228   4.059   7.725  0.3110 -0.5376 -2.1741
  170SOPE  H12S19210   5.381   4.010   7.788  2.2366 -2.9813 -1.4480
  170SOPE  C21319211   5.201   3.931   7.884 -0.4975 -0.7017 -0.6170
  170SOPE  H13R19212   5.254   3.846   7.932  0.6591 -0.2212 -1.0124
  170SOPE  H13S19213   5.095   3.906   7.866 -0.6747  1.3951 -2.6029
  170SOPE  C21419214   5.206   4.038   7.989 -0.8547 -0.8238 -0.8559
  170SOPE  H14R19215   5.139   4.120   7.956  0.1524  0.0957 -0.6159
  170SOPE  H14S19216   5.309   4.078   7.998 -2.8554  4.3295  0.8736
  170SOPE  C21519217   5.161   3.992   8.126 -0.1643  0.7652 -0.4802
  170SOPE  H15R19218   5.070   3.930   8.115  1.6641 -1.8790 -1.1452
  170SOPE  H15S19219   5.146   4.081   8.192  2.5153  0.7435  0.2525
  170SOPE  C21619220   5.269   3.910   8.192 -0.2735 -0.1434 -0.9710
  170SOPE  H16R19221   5.313   3.967   8.277 -1.4130 -0.5768 -0.0687
  170SOPE  H16S19222   5.350   3.896   8.118 -0.4852  0.1131 -1.2536
  170SOPE  C21719223   5.228   3.775   8.254  0.6631  0.2987  0.4398
  170SOPE  H17R19224   5.308   3.697   8.261  0.5284  0.0774 -0.4085
  170SOPE  H17S19225   5.148   3.723   8.197  0.1522 -0.6175  1.9766
  170SOPE  C21819226   5.179   3.793   8.398 -0.4525 -0.8849  0.2886
  170SOPE  H18R19227   5.107   3.713   8.425 -0.5203 -0.7341  0.5576
  170SOPE  H18S19228   5.111   3.880   8.408  0.9925  0.3700 -0.6256
  170SOPE  H18T19229   5.262   3.806   8.471  0.0708  3.5256 -0.9869
  170SOPE   C3319230   5.562   4.447   7.097 -0.5232 -0.1100  0.3810
  170SOPE   H3X19231   5.616   4.542   7.076  0.9962 -0.7878  1.1686
  170SOPE   H3Y19232   5.635   4.364   7.090  1.3555  1.5271  0.0469
  170SOPE   C3419233   5.495   4.453   7.236 -0.3273  0.8647  0.2880
  170SOPE   H4X19234   5.443   4.358   7.262  3.3131 -1.7232 -1.5334
  170SOPE   H4Y19235   5.421   4.535   7.227 -1.7082 -0.2530  1.2449
  170SOPE   C3519236   5.600   4.490   7.337 -0.1804 -0.3587  0.6474
  170SOPE   H5X19237   5.635   4.591   7.311 -1.1208 -0.2152 -0.1255
  170SOPE   H5Y19238   5.686   4.420   7.332 -0.6730 -1.0217  1.3107
  170SOPE   C3619239   5.554   4.504   7.488 -0.4880 -0.8201  0.3116
  170SOPE   H6X19240   5.519   4.413   7.541 -2.6655  0.3340  0.8996
  170SOPE   H6Y19241   5.471   4.578   7.492 -0.5208 -0.7346 -1.4061
  170SOPE   C3719242   5.660   4.569   7.580 -0.5850 -0.4569 -0.7052
  170SOPE   H7X19243   5.681   4.669   7.537 -1.3457  0.1323  0.2898
  170SOPE   H7Y19244   5.748   4.502   7.569  0.8180  1.3515 -0.7619
  170SOPE   C3819245   5.609   4.578   7.725  0.7539  0.6496  0.0970
  170SOPE   H8X19246   5.580   4.480   7.769  0.0356  0.6457 -0.3768
  170SOPE   H8Y19247   5.513   4.633   7.730  0.2140 -0.3284  0.7146
  170SOPE   C3919248   5.699   4.654   7.825 -0.0130 -0.3955  0.2765
  170SOPE   H9X19249   5.729   4.751   7.779  2.4102 -0.8550  0.7902
  170SOPE   H9Y19250   5.797   4.602   7.833  0.4986  0.4897 -0.0626
  170SOPE  C31019251   5.647   4.694   7.967 -0.0934  0.4817  0.6087
  170SOPE  H10X19252   5.545   4.733   7.946  0.4365  1.0935 -0.8575
  170SOPE  H10Y19253   5.708   4.773   8.016 -0.9520  1.3747  0.2576
  170SOPE  C31119254   5.631   4.571   8.058  0.0988 -0.2007 -0.2238
  170SOPE  H11X19255   5.734   4.529   8.068  0.2260  0.4798  1.6234
  170SOPE  H11Y19256   5.568   4.493   8.011 -1.1228 -0.2943  1.5218
  170SOPE  C31219257   5.582   4.607   8.194  0.3639 -0.3435  0.3911
  170SOPE  H12X19258   5.478   4.644   8.185  1.3752  2.0803 -1.8241
  170SOPE  H12Y19259   5.633   4.699   8.229  1.6732 -0.8815 -0.0717
  170SOPE  C31319260   5.597   4.493   8.296  1.6827 -0.6378 -0.2965
  170SOPE  H13X19261   5.703   4.463   8.295  1.5657 -1.0203 -1.3273
  170SOPE  H13Y19262   5.550   4.397   8.267  2.8589 -1.0262 -0.9288
  170SOPE  C31419263   5.554   4.539   8.435 -0.1588  0.9160  0.0268
  170SOPE  H14X19264   5.446   4.565   8.437 -0.8392 -1.7698  1.8043
  170SOPE  H14Y19265   5.607   4.635   8.454  1.3928 -0.4202  2.8453
  170SOPE  C31519266   5.615   4.439   8.534  0.3209 -0.0049  1.0448
  170SOPE  H15X19267   5.717   4.404   8.504 -0.1126 -1.2131  0.9638
  170SOPE  H15Y19268   5.545   4.354   8.540 -2.0488  1.8606  0.4082
  170SOPE  C31619269   5.621   4.500   8.676  0.4740 -0.2588 -1.0275
  170SOPE  H16X19270   5.526   4.556   8.692 -0.0265 -1.2732 -0.4464
  170SOPE  H16Y19271   5.700   4.578   8.676  0.4353 -0.2125  0.2948
  170SOPE  C31719272   5.659   4.401   8.785  1.2573 -0.0711  0.7715
  170SOPE  H17X19273   5.699   4.309   8.739 -1.2680 -0.3800 -0.9021
  170SOPE  H17Y19274   5.563   4.370   8.830 -0.6845  0.4884 -2.8294
  170SOPE  C31819275   5.759   4.467   8.888  0.0710  0.2985 -0.0430
  170SOPE  H18X19276   5.857   4.487   8.840 -0.0041  0.9685  0.0765
  170SOPE  H18Y19277   5.779   4.391   8.967 -0.7724 -0.9709 -1.0207
  170SOPE  H18Z19278   5.722   4.562   8.932 -0.3438  0.3075 -0.4127
  171SOPE     N19279   5.252   0.628   6.172 -0.3203 -0.0792 -0.1827
  171SOPE   HN119280   5.171   0.569   6.145 -0.4054  1.0051 -2.4368
  171SOPE   HN219281   5.241   0.728   6.144  3.5451  0.1697 -1.0046
  171SOPE   HN319282   5.332   0.594   6.115 -1.6006  0.7032 -2.4806
  171SOPE   C1219283   5.276   0.598   6.318 -0.6993  0.3168  0.1264
  171SOPE  H12A19284   5.195   0.643   6.379 -1.3962  0.3283 -0.7852
  171SOPE  H12B19285   5.367   0.658   6.336 -0.2815 -0.8598  2.0638
  171SOPE   C1119286   5.289   0.454   6.354  0.6750  1.0178  0.7641
  171SOPE  H11A19287   5.189   0.408   6.337  0.5143  1.9672 -0.9855
  171SOPE  H11B19288   5.302   0.436   6.463 -3.4847  0.8170  1.3147
  171SOPE     P19289   5.545   0.390   6.302 -0.3142  0.1653  0.2198
  171SOPE   O1319290   5.609   0.517   6.275  0.0737  0.7240 -0.1425
  171SOPE   O1419291   5.590   0.278   6.221 -0.3265  0.6746  0.5536
  171SOPE   O1219292   5.386   0.397   6.275 -0.2576  0.5275 -0.0958
  171SOPE   O1119293   5.559   0.354   6.455  0.4273  0.3195 -0.0930
  171SOPE    C119294   5.550   0.220   6.492  0.1547  0.3931  0.6440
  171SOPE    HA19295   5.542   0.156   6.401  2.0923 -0.8115  1.2936
  171SOPE    HB19296   5.463   0.198   6.559  0.1990 -0.3508  0.4673
  171SOPE    C219297   5.677   0.168   6.570 -0.0498  0.4375 -0.3703
  171SOPE    HS19298   5.665   0.060   6.593 -0.3786  0.4387 -0.5344
  171SOPE   O2119299   5.686   0.249   6.691 -0.0866 -0.1617 -0.0753
  171SOPE   C2119300   5.622   0.194   6.790  0.0188 -0.6053  0.0217
  171SOPE   O2219301   5.566   0.086   6.781 -0.2531 -0.5977 -0.3314
  171SOPE   C2219302   5.635   0.283   6.915 -0.3230  0.1540 -0.2538
  171SOPE   H2R19303   5.572   0.374   6.904 -1.7999 -0.3780  3.1663
  171SOPE   H2S19304   5.743   0.302   6.931 -0.5208  0.7946  0.3273
  171SOPE    C319305   5.804   0.179   6.480 -0.4659  0.2090 -0.5067
  171SOPE    HX19306   5.818   0.271   6.419  2.2921 -0.3749 -0.8062
  171SOPE    HY19307   5.809   0.090   6.414 -1.4473 -0.6947  0.6065
  171SOPE   O3119308   5.908   0.164   6.578  0.6089 -0.1872 -0.0633
  171SOPE   C3119309   5.964   0.278   6.624 -0.5400 -0.7557 -0.0778
  171SOPE   O3219310   5.964   0.389   6.573 -0.1731 -0.4995 -0.3237
  171SOPE   C3219311   6.040   0.252   6.753  0.7388  0.2604  0.0008
  171SOPE   H2X19312   6.144   0.228   6.720  0.8388  0.2139  0.3421
  171SOPE   H2Y19313   5.999   0.167   6.812 -0.2336  0.2043 -0.7504
  171SOPE   C2319314   5.587   0.217   7.047 -0.5847 -0.1418 -0.4453
  171SOPE   H3R19315   5.626   0.114   7.063 -0.8169 -0.2981 -0.8718
  171SOPE   H3S19316   5.477   0.200   7.042 -0.9692  1.1602  2.5416
  171SOPE   C2419317   5.616   0.306   7.181 -0.0479  0.5922  0.8516
  171SOPE   H4R19318   5.725   0.322   7.197 -0.0334  0.2086  1.1540
  171SOPE   H4S19319   5.571   0.405   7.163 -0.3876  0.2165 -0.4298
  171SOPE   C2519320   5.569   0.224   7.304 -0.4622 -0.8492  0.2029
  171SOPE   H5R19321   5.460   0.209   7.292 -0.9882 -0.1467  3.5708
  171SOPE   H5S19322   5.615   0.123   7.307  2.2192  0.3595  0.9993
  171SOPE   C2619323   5.600   0.294   7.437  1.0345 -0.1685 -0.2244
  171SOPE   H6R19324   5.710   0.310   7.443  1.1024 -1.5432  2.9062
  171SOPE   H6S19325   5.554   0.394   7.437  1.5182  0.0564  0.0273
  171SOPE   C2719326   5.563   0.214   7.559 -0.2830  0.4651  0.1013
  171SOPE   H7R19327   5.455   0.215   7.583 -0.5161 -2.5849 -0.7230
  171SOPE   H7S19328   5.601   0.111   7.542  0.3468  0.7611 -0.2950
  171SOPE   C2819329   5.644   0.268   7.684 -0.2935 -0.4400 -0.0847
  171SOPE   H8R19330   5.649   0.186   7.758  0.5860 -1.0014 -0.7542
  171SOPE   H8S19331   5.750   0.284   7.655 -0.7722  0.7667 -1.2386
  171SOPE   C2919332   5.596   0.400   7.740 -0.8268 -0.5414  0.0649
  171SOPE   H9119333   5.629   0.490   7.686  1.2682 -0.0909  2.0496
  171SOPE  C21019334   5.544   0.421   7.860  0.0717  0.0167  0.7883
  171SOPE  H10119335   5.519   0.525   7.887 -0.5663 -0.4129  1.9206
  171SOPE  C21119336   5.510   0.320   7.971 -0.0497 -0.2153 -0.0638
  171SOPE  H11R19337   5.560   0.222   7.960  1.5045  0.3583  1.6564
  171SOPE  H11S19338   5.403   0.311   7.998 -0.3950 -0.2791 -1.3928
  171SOPE  C21219339   5.577   0.376   8.099  0.5906 -0.5831 -0.3900
  171SOPE  H12R19340   5.509   0.414   8.178  1.7542 -1.1698  0.9034
  171SOPE  H12S19341   5.641   0.460   8.065  0.4515  1.2519  3.6421
  171SOPE  C21319342   5.673   0.274   8.159 -0.4069 -0.1909  1.2649
  171SOPE  H13R19343   5.769   0.273   8.103 -2.4204  0.9100 -2.3386
  171SOPE  H13S19344   5.634   0.171   8.148  1.7812 -0.8755 -0.4680
  171SOPE  C21419345   5.699   0.301   8.304  0.9867 -0.2952  0.1959
  171SOPE  H14R19346   5.712   0.408   8.329  0.4983 -0.9203  3.2847
  171SOPE  H14S19347   5.781   0.242   8.352  0.9169  0.1470  0.8538
  171SOPE  C21519348   5.576   0.268   8.394  0.4582  1.0719  0.3781
  171SOPE  H15R19349   5.541   0.167   8.364  2.4993  1.1667 -2.5098
  171SOPE  H15S19350   5.489   0.334   8.373  0.7590  0.8062 -1.7376
  171SOPE  C21619351   5.589   0.256   8.549  0.7153 -0.4610 -1.1238
  171SOPE  H16R19352   5.687   0.204   8.560  1.1242  0.5991  0.2891
  171SOPE  H16S19353   5.500   0.201   8.587  1.7671 -0.1381  1.9083
  171SOPE  C21719354   5.592   0.394   8.624 -0.5927  0.5771  0.0968
  171SOPE  H17R19355   5.665   0.464   8.579 -1.2950  1.8582  0.8995
  171SOPE  H17S19356   5.620   0.384   8.731 -0.7422 -1.8123 -0.0713
  171SOPE  C21819357   5.456   0.456   8.620 -0.5724 -0.9177 -0.0531
  171SOPE  H18R19358   5.459   0.559   8.661  0.7965  0.6102 -3.7235
  171SOPE  H18S19359   5.378   0.401   8.677 -1.1666  2.8012  2.9101
  171SOPE  H18T19360   5.415   0.471   8.518  0.0414  0.8018 -0.0714
  171SOPE   C3319361   6.039   0.367   6.851 -0.1853  0.3136  0.2562
  171SOPE   H3X19362   5.934   0.395   6.873 -1.4566 -2.6364 -1.7652
  171SOPE   H3Y19363   6.086   0.455   6.802  0.3116 -0.5863 -0.9008
  171SOPE   C3419364   6.108   0.330   6.983  0.6769 -0.2126 -0.0353
  171SOPE   H4X19365   6.214   0.307   6.957  0.7504  1.0981 -0.9716
  171SOPE   H4Y19366   6.065   0.241   7.034 -0.1546 -0.2376 -0.7582
  171SOPE   C3519367   6.104   0.457   7.078  0.2564 -0.3958  0.5035
  171SOPE   H5X19368   5.995   0.480   7.086  0.3743  0.1393  0.5945
  171SOPE   H5Y19369   6.157   0.531   7.015  2.2527 -2.3875 -0.1896
  171SOPE   C3619370   6.166   0.447   7.214 -0.4158 -0.2512 -0.0099
  171SOPE   H6X19371   6.157   0.542   7.270  3.4236 -0.6735  1.4440
  171SOPE   H6Y19372   6.277   0.448   7.208 -0.4480  4.0859 -1.5472
  171SOPE   C3719373   6.118   0.331   7.295 -0.6994 -0.3016  0.4354
  171SOPE   H7X19374   6.171   0.242   7.255 -0.8551 -0.3680  0.3770
  171SOPE   H7Y19375   6.009   0.310   7.283 -1.1114  1.5838  0.5740
  171SOPE   C3819376   6.141   0.348   7.443 -0.0855 -0.5367 -0.4799
  171SOPE   H8X19377   6.223   0.421   7.458 -1.0525  0.8997 -2.0479
  171SOPE   H8Y19378   6.178   0.251   7.484  0.9274 -0.0912 -0.3220
  171SOPE   C3919379   6.014   0.388   7.524 -0.2049  0.1966  0.0611
  171SOPE   H9X19380   5.922   0.328   7.507 -0.4714  1.0952 -1.7240
  171SOPE   H9Y19381   5.989   0.493   7.498  2.5319  0.6738 -0.8046
  171SOPE  C31019382   6.039   0.396   7.675  0.4775 -0.2675 -0.9583
  171SOPE  H10X19383   6.057   0.296   7.719 -0.3387  0.4568  1.0752
  171SOPE  H10Y19384   5.937   0.417   7.714 -0.0581 -1.0175 -1.9138
  171SOPE  C31119385   6.136   0.504   7.720 -0.2709  0.3422  0.0260
  171SOPE  H11X19386   6.096   0.599   7.680 -0.6415 -0.3686 -1.3316
  171SOPE  H11Y19387   6.237   0.483   7.677 -0.3256 -1.7947  0.8761
  171SOPE  C31219388   6.143   0.519   7.877 -0.0681 -0.1556  0.6423
  171SOPE  H12X19389   6.039   0.548   7.904 -0.5329 -1.9968  0.9076
  171SOPE  H12Y19390   6.202   0.603   7.919 -0.7735  0.9184 -0.4605
  171SOPE  C31319391   6.198   0.392   7.937 -0.4884 -0.0353 -0.7998
  171SOPE  H13X19392   6.297   0.363   7.894  0.3907 -0.7500  1.6411
  171SOPE  H13Y19393   6.128   0.310   7.911 -1.8335  2.0530 -4.1506
  171SOPE  C31419394   6.190   0.388   8.086 -0.4442 -0.2403  0.9552
  171SOPE  H14X19395   6.086   0.416   8.115 -0.4397  1.1654 -0.3406
  171SOPE  H14Y19396   6.248   0.473   8.129 -2.5210  1.2430  0.9097
  171SOPE  C31519397   6.221   0.250   8.145  0.1469  0.6339 -0.2816
  171SOPE  H15X19398   6.322   0.215   8.113 -0.5154 -1.7889  0.2116
  171SOPE  H15Y19399   6.146   0.177   8.107 -1.9561  1.6287  1.8195
  171SOPE  C31619400   6.214   0.231   8.302 -0.3897  0.1509  0.1673
  171SOPE  H16X19401   6.278   0.316   8.333 -2.4353  1.4461  0.9445
  171SOPE  H16Y19402   6.262   0.137   8.335 -0.6429 -0.5226 -1.3452
  171SOPE  C31719403   6.069   0.234   8.350  0.0146 -0.2454  0.2334
  171SOPE  H17X19404   6.008   0.161   8.293 -0.3352 -0.4224  0.8253
  171SOPE  H17Y19405   6.017   0.329   8.323 -1.0101 -0.5397  1.1380
  171SOPE  C31819406   6.062   0.215   8.503  0.1584  0.1656 -0.0553
  171SOPE  H18X19407   5.963   0.170   8.523  0.1655  0.3003  0.2802
  171SOPE  H18Y19408   6.063   0.313   8.556 -1.2457 -0.2068  0.6678
  171SOPE  H18Z19409   6.137   0.140   8.537  0.0873 -0.7790 -1.8909
  172SOPE     N19410   6.758   1.800   6.369  0.3867  0.2215 -0.5485
  172SOPE   HN119411   6.691   1.854   6.311 -0.8879 -2.6241 -1.8174
  172SOPE   HN219412   6.855   1.829   6.347  0.9327 -0.9702  0.2656
  172SOPE   HN319413   6.756   1.697   6.360  1.1320  0.0564  1.0084
  172SOPE   C1219414   6.736   1.835   6.514 -0.3975 -0.5915 -0.6127
  172SOPE  H12A19415   6.726   1.945   6.527  0.4248 -0.3486 -1.9364
  172SOPE  H12B19416   6.817   1.794   6.578 -0.2364 -0.6266 -0.8423
  172SOPE   C1119417   6.613   1.757   6.550  0.4882  1.0067  0.0634
  172SOPE  H11A19418   6.598   1.784   6.657  1.0764  0.7390  0.2138
  172SOPE  H11B19419   6.627   1.648   6.535 -2.3883  0.5996  0.0678
  172SOPE     P19420   6.364   1.738   6.472 -0.1369 -0.0659 -0.3173
  172SOPE   O1319421   6.394   1.601   6.420  0.2594 -0.4782 -0.3304
  172SOPE   O1419422   6.284   1.834   6.390 -0.0984  0.6414 -1.0200
  172SOPE   O1219423   6.504   1.815   6.494  1.0794 -0.4930  0.1771
  172SOPE   O1119424   6.311   1.720   6.622  0.0505  0.0477  0.3119
  172SOPE    C119425   6.287   1.857   6.678 -0.0349  0.2826 -0.1960
  172SOPE    HA19426   6.216   1.918   6.617  0.3470 -0.5992 -1.5492
  172SOPE    HB19427   6.380   1.916   6.691 -1.3904  2.4454  0.0072
  172SOPE    C219428   6.221   1.841   6.823  0.5217  0.3241 -0.5768
  172SOPE    HS19429   6.198   1.943   6.860 -2.5912 -0.0559 -1.2974
  172SOPE   O2119430   6.315   1.779   6.916 -0.0504  0.0756 -0.5762
  172SOPE   C2119431   6.407   1.853   6.959 -1.0932  0.4486 -0.2401
  172SOPE   O2219432   6.418   1.973   6.941 -0.4042 -0.0152  0.5597
  172SOPE   C2219433   6.508   1.765   7.030 -0.0653 -0.1354 -0.3049
  172SOPE   H2R19434   6.607   1.817   7.035  0.7533 -1.4078 -2.4263
  172SOPE   H2S19435   6.515   1.670   6.973 -0.8258 -1.3091  1.5336
  172SOPE    C319436   6.088   1.758   6.826  0.3589 -0.5542 -0.7445
  172SOPE    HX19437   6.115   1.661   6.779 -0.3389 -1.8410  1.4376
  172SOPE    HY19438   6.024   1.813   6.753  0.2045  0.8047  0.4034
  172SOPE   O3119439   6.029   1.723   6.952 -0.3296 -0.3159  0.1136
  172SOPE   C3119440   5.994   1.826   7.028  0.0436 -0.0923 -0.0374
  172SOPE   O3219441   5.970   1.936   6.986 -0.2975 -0.5784  0.5038
  172SOPE   C3219442   5.983   1.776   7.172 -0.4199  0.4728  0.1786
  172SOPE   H2X19443   6.086   1.751   7.208 -0.8007 -0.3961  0.6878
  172SOPE   H2Y19444   5.925   1.681   7.175  0.1230  0.1116 -0.5119
  172SOPE   C2319445   6.455   1.741   7.166  0.4358  0.2990 -0.1806
  172SOPE   H3R19446   6.507   1.658   7.220 -2.0022  0.9263  3.3592
  172SOPE   H3S19447   6.350   1.707   7.152  1.1504 -2.1618  0.1118
  172SOPE   C2419448   6.475   1.861   7.260  0.1743  0.2864  0.5698
  172SOPE   H4R19449   6.582   1.862   7.291  0.0669  2.3659  0.9182
  172SOPE   H4S19450   6.461   1.957   7.206 -0.7329 -1.1587 -1.8394
  172SOPE   C2519451   6.376   1.861   7.380  0.2675 -0.3601 -0.4957
  172SOPE   H5R19452   6.270   1.855   7.347  0.3994  1.5769 -1.3432
  172SOPE   H5S19453   6.410   1.768   7.429 -0.0282 -0.0713  0.2717
  172SOPE   C2619454   6.391   1.983   7.467  0.3046 -0.0895 -0.6739
  172SOPE   H6R19455   6.497   2.004   7.491  0.0002  2.6956 -1.6953
  172SOPE   H6S19456   6.362   2.069   7.403 -0.3396 -2.0565 -3.0894
  172SOPE   C2719457   6.311   1.983   7.605  0.6267 -0.0821 -0.1681
  172SOPE   H7R19458   6.209   1.952   7.573  0.1539  0.4034  0.8360
  172SOPE   H7S19459   6.351   1.906   7.674 -3.8651 -1.1787  1.3880
  172SOPE   C2819460   6.300   2.123   7.664  0.6522  0.2212 -0.2115
  172SOPE   H8R19461   6.402   2.137   7.706  0.0976 -1.2697  1.7012
  172SOPE   H8S19462   6.276   2.192   7.580  0.5032 -1.1531 -1.3309
  172SOPE   C2919463   6.194   2.118   7.762  0.8013  0.0219 -0.0580
  172SOPE   H9119464   6.091   2.104   7.727  1.0644 -1.5034 -0.2625
  172SOPE  C21019465   6.207   2.106   7.895  0.4127  0.7309 -0.0946
  172SOPE  H10119466   6.120   2.095   7.961 -1.2256  1.7840 -2.0684
  172SOPE  C21119467   6.346   2.102   7.958 -0.4199 -0.5318  0.4178
  172SOPE  H11R19468   6.382   2.208   7.955 -1.1665 -0.1872  2.7387
  172SOPE  H11S19469   6.422   2.050   7.896  0.3021  1.1831 -0.1889
  172SOPE  C21219470   6.343   2.042   8.101 -0.2581  0.2074  0.3251
  172SOPE  H12R19471   6.447   2.005   8.107 -1.5953 -3.7811  0.9153
  172SOPE  H12S19472   6.288   1.945   8.094  1.1082 -0.4112 -1.9844
  172SOPE  C21319473   6.300   2.138   8.210  0.5792 -0.2099  0.0302
  172SOPE  H13R19474   6.189   2.133   8.206  0.6766 -2.2634 -0.7222
  172SOPE  H13S19475   6.345   2.238   8.194 -0.0598 -0.2819 -2.4137
  172SOPE  C21419476   6.342   2.086   8.345  0.0002 -0.0861 -0.6347
  172SOPE  H14R19477   6.453   2.090   8.354 -0.1790 -0.1976  1.8261
  172SOPE  H14S19478   6.301   1.984   8.362  2.7856 -0.8196  2.1418
  172SOPE  C21519479   6.278   2.163   8.459  0.1442  0.2252 -0.2749
  172SOPE  H15R19480   6.293   2.097   8.547  1.2471  1.5318  0.5411
  172SOPE  H15S19481   6.167   2.170   8.445  0.3413  2.0494 -1.1612
  172SOPE  C21619482   6.335   2.300   8.470  0.1819 -0.1015  0.1223
  172SOPE  H16R19483   6.311   2.363   8.382 -3.1626  0.3561  1.3045
  172SOPE  H16S19484   6.442   2.271   8.478 -0.0654 -0.5278  2.2589
  172SOPE  C21719485   6.284   2.388   8.583  0.7285  0.1222  0.7549
  172SOPE  H17R19486   6.341   2.483   8.587 -1.4819  1.6150 -1.4818
  172SOPE  H17S19487   6.306   2.336   8.679  2.1712 -0.8192 -0.0765
  172SOPE  C21819488   6.137   2.414   8.574  0.2724 -0.4675  0.0550
  172SOPE  H18R19489   6.108   2.471   8.483  1.3960  0.5868  0.3464
  172SOPE  H18S19490   6.110   2.476   8.662 -0.2225  0.2961 -0.6304
  172SOPE  H18T19491   6.071   2.326   8.588  0.7843 -0.7727  0.5586
  172SOPE   C3319492   5.920   1.877   7.275  0.3335  0.0390 -0.1295
  172SOPE   H3X19493   5.827   1.927   7.241 -0.1659 -2.4272 -2.5455
  172SOPE   H3Y19494   5.986   1.965   7.288  1.9825 -1.2322  0.3032
  172SOPE   C3419495   5.892   1.804   7.415 -0.7046 -0.0183  0.1231
  172SOPE   H4X19496   5.991   1.780   7.458 -0.3074  0.4921 -0.4947
  172SOPE   H4Y19497   5.833   1.714   7.386  1.0205 -1.0993 -0.0816
  172SOPE   C3519498   5.823   1.890   7.515  0.3263 -0.5241  0.1141
  172SOPE   H5X19499   5.716   1.897   7.489  0.7808 -3.0203 -2.5923
  172SOPE   H5Y19500   5.872   1.990   7.505 -0.3465 -0.2325 -0.3290
  172SOPE   C3619501   5.853   1.837   7.650  0.8593  0.7663  0.1224
  172SOPE   H6X19502   5.962   1.821   7.652  0.7200 -0.0769  1.8045
  172SOPE   H6Y19503   5.798   1.741   7.656  2.4526 -0.2073 -0.6649
  172SOPE   C3719504   5.805   1.922   7.762 -0.5847  0.5595  0.0495
  172SOPE   H7X19505   5.697   1.950   7.757 -0.0277  2.3970 -3.7036
  172SOPE   H7Y19506   5.867   2.014   7.771  3.0333 -1.6989 -0.6677
  172SOPE   C3819507   5.833   1.860   7.899  0.2549  0.0807 -0.0189
  172SOPE   H8X19508   5.940   1.856   7.929  1.0660 -1.3227 -2.8437
  172SOPE   H8Y19509   5.804   1.753   7.890 -3.1045  1.0289 -1.2950
  172SOPE   C3919510   5.763   1.933   8.019  0.2678 -0.3312  0.4333
  172SOPE   H9X19511   5.653   1.937   8.009  0.2757 -0.1490  0.4146
  172SOPE   H9Y19512   5.787   2.042   8.013  0.3292 -0.3411  0.5055
  172SOPE  C31019513   5.815   1.884   8.152  0.3839  0.0768 -0.1252
  172SOPE  H10X19514   5.924   1.867   8.138  0.3285 -0.2261 -0.1778
  172SOPE  H10Y19515   5.771   1.786   8.176 -0.5274  1.1769  2.8994
  172SOPE  C31119516   5.781   1.975   8.268 -0.2154  0.5208 -0.6721
  172SOPE  H11X19517   5.671   1.984   8.281 -0.2751  0.5180 -1.1828
  172SOPE  H11Y19518   5.818   2.077   8.243 -0.6283  0.9583  0.4317
  172SOPE  C31219519   5.856   1.923   8.395  0.0573 -0.0288  0.2577
  172SOPE  H12X19520   5.963   1.947   8.381  0.4062 -1.4762  0.2985
  172SOPE  H12Y19521   5.851   1.812   8.404 -3.9103 -0.2277 -2.8634
  172SOPE  C31319522   5.817   1.988   8.524  0.5764 -0.0751 -0.2114
  172SOPE  H13X19523   5.712   1.960   8.549  0.6696 -0.8417 -0.6707
  172SOPE  H13Y19524   5.833   2.096   8.504  3.8818 -0.1541  1.6378
  172SOPE  C31419525   5.912   1.964   8.639  0.7175 -0.1368  0.1368
  172SOPE  H14X19526   6.018   1.971   8.606  0.4226 -1.3512 -1.1370
  172SOPE  H14Y19527   5.901   1.857   8.666  1.3479 -0.7404 -1.8880
  172SOPE  C31519528   5.880   2.048   8.757  0.0141  0.1259  0.5449
  172SOPE  H15X19529   5.780   2.022   8.796 -0.3136 -2.0865 -1.5967
  172SOPE  H15Y19530   5.878   2.155   8.729  2.3369 -0.0508 -0.3967
  172SOPE  C31619531   5.989   2.021   8.864 -0.7774  0.2758 -0.4968
  172SOPE  H16X19532   6.000   1.914   8.892 -0.7505  0.5116  0.4082
  172SOPE  H16Y19533   5.955   2.069   8.959  1.1906 -0.6396  0.6951
  172SOPE  C31719534   6.124   2.092   8.840 -0.2826  0.4562  0.2851
  172SOPE  H17X19535   6.150   2.164   8.921  0.6094  1.1158 -0.5641
  172SOPE  H17Y19536   6.110   2.159   8.752 -0.7759 -1.5572 -1.1999
  172SOPE  C31819537   6.237   1.992   8.823 -0.4788 -0.0510 -0.2110
  172SOPE  H18X19538   6.336   2.041   8.829  0.7171 -2.5781  1.8631
  172SOPE  H18Y19539   6.228   1.937   8.727  1.2709  0.8267 -0.8932
  172SOPE  H18Z19540   6.242   1.935   8.919 -0.7877 -0.1286 -0.2389
  173SAPI   C1219541   1.073   5.805  10.802  0.1220  0.4862  0.1288
  173SAPI    H219542   1.066   5.771  10.696 -0.4693 -1.1729  0.6813
  173SAPI    O219543   0.986   5.917  10.813  0.4175  0.6674 -0.5033
  173SAPI   HO219544   0.927   5.911  10.738  2.0714  1.6627 -1.9072
  173SAPI   C1319545   1.020   5.692  10.893  0.8089 -0.1054 -0.0041
  173SAPI    H319546   1.093   5.611  10.872 -0.8615 -1.4782 -0.7238
  173SAPI    O319547   0.887   5.656  10.850 -0.6723 -0.1835  0.0118
  173SAPI   HO319548   0.878   5.561  10.858 -2.6187  0.0742  1.0342
  173SAPI   C1419549   1.026   5.736  11.029 -0.6178 -0.1026 -0.2762
  173SAPI    H419550   0.966   5.828  11.043  1.2709  1.1221 -0.0110
  173SAPI    O419551   0.964   5.638  11.116 -0.4374 -0.3279 -0.0036
  173SAPI   HO419552   0.870   5.634  11.098 -0.2227  0.3931 -1.3182
  173SAPI   C1519553   1.170   5.770  11.066  0.5332  0.7395  0.8863
  173SAPI    H519554   1.228   5.676  11.051 -0.5586  0.2490 -0.3394
  173SAPI    O519555   1.182   5.799  11.201 -0.5352  0.4450 -0.6107
  173SAPI   HO519556   1.173   5.716  11.250 -2.0832  0.9800  0.0455
  173SAPI   C1619557   1.236   5.876  10.980 -0.5669  0.0676 -0.0353
  173SAPI    H619558   1.179   5.971  10.988  1.8340  1.6995 -1.4968
  173SAPI    O619559   1.371   5.910  11.008  0.3080  0.2419 -0.5210
  173SAPI   HO619560   1.423   5.830  11.012  1.4024  0.9277 -0.9178
  173SAPI   C1119561   1.220   5.830  10.834  0.3515 -0.3449  0.2365
  173SAPI    H119562   1.287   5.744  10.816  0.4652  0.1639 -1.9558
  173SAPI     P19563   1.345   5.916  10.617  0.4913  0.0655  0.2581
  173SAPI   O1319564   1.291   5.786  10.562  0.4313 -0.0674  0.3096
  173SAPI   O1419565   1.488   5.917  10.642  0.5745 -0.2374 -0.2951
  173SAPI   O1219566   1.263   5.937  10.760  0.0737 -0.2488  0.3828
  173SAPI   O1119567   1.291   6.032  10.521  0.0507  0.3759 -0.1990
  173SAPI    C119568   1.145   6.021  10.489  0.1753  0.3328  0.2360
  173SAPI    HA19569   1.087   5.974  10.571  0.5974 -0.0189  0.3360
  173SAPI    HB19570   1.108   6.125  10.477  1.4452  0.7379 -0.2893
  173SAPI    C219571   1.115   5.957  10.347 -0.2957  0.1352  0.2837
  173SAPI    HS19572   1.129   5.850  10.375 -1.1920  0.2263  1.0918
  173SAPI   O2119573   1.212   6.009  10.251  0.4979  0.5545 -0.0400
  173SAPI   C2119574   1.283   5.918  10.185 -0.2250  0.9229  0.0014
  173SAPI   O2219575   1.272   5.800  10.198  0.1883  0.2831  0.6395
  173SAPI   C2219576   1.385   5.983  10.099  0.4763  0.1705 -0.4153
  173SAPI   H2R19577   1.343   6.075  10.053 -1.1934 -1.0367 -1.3533
  173SAPI   H2S19578   1.466   6.004  10.172  0.9635  1.6056 -1.3403
  173SAPI    C319579   0.973   5.965  10.287 -0.2225  0.8580 -0.3631
  173SAPI    HX19580   0.963   6.075  10.276 -4.0304  0.3194 -2.9134
  173SAPI    HY19581   0.905   5.930  10.367  1.2413 -0.9410  0.1305
  173SAPI   O3119582   0.955   5.909  10.156 -0.4031  0.0430 -0.4437
  173SAPI   C3119583   0.956   5.775  10.147 -0.2905 -0.1577  0.4931
  173SAPI   O3219584   0.952   5.692  10.239  0.2849 -0.1227 -0.1171
  173SAPI   C3219585   0.936   5.738   9.995 -0.3494  0.2891 -0.3365
  173SAPI   H2X19586   0.952   5.628   9.990  1.3064  0.3351  2.5177
  173SAPI   H2Y19587   1.025   5.787   9.951  0.0827  0.7183  0.9863
  173SAPI   C2319588   1.441   5.898   9.987 -0.8741  0.0692 -0.7010
  173SAPI   H3R19589   1.471   5.798  10.026 -0.6151  0.8347  1.1019
  173SAPI   H3S19590   1.536   5.942   9.951 -0.8928 -1.6824 -3.0508
  173SAPI   C2419591   1.349   5.887   9.861  0.8196  0.3149 -0.1234
  173SAPI   H4R19592   1.262   5.821   9.881  0.5994 -0.2847 -2.9199
  173SAPI   H4S19593   1.414   5.835   9.788 -0.1125  0.6363 -1.1910
  173SAPI   C2519594   1.304   6.012   9.795  0.1944 -1.0504  0.3664
  173SAPI   H5R19595   1.258   6.092   9.855  0.3440 -0.6112 -0.1005
  173SAPI   C2619596   1.306   6.046   9.663 -0.9685 -0.2078  0.6879
  173SAPI   H6R19597   1.261   6.141   9.633  1.3281  0.7685  0.1994
  173SAPI   C2719598   1.350   5.957   9.553 -0.7118 -0.1640  0.1963
  173SAPI   H7R19599   1.264   5.890   9.529  0.4826 -1.7347  0.2203
  173SAPI   H7S19600   1.442   5.909   9.593  0.5412  3.0710  1.2979
  173SAPI   C2819601   1.401   6.030   9.427  0.2448 -0.3579 -0.4452
  173SAPI   H8R19602   1.432   6.135   9.444 -1.8246  0.0019  1.3375
  173SAPI   C2919603   1.399   5.988   9.299  0.7785 -0.3048  0.9745
  173SAPI   H9R19604   1.430   6.056   9.219  1.8734 -0.5002  1.2257
  173SAPI  C21019605   1.350   5.847   9.271 -0.0738 -0.2702  0.3863
  173SAPI  H10R19606   1.333   5.777   9.355  0.4600 -1.7402 -0.7045
  173SAPI  H10S19607   1.432   5.801   9.211 -0.2148 -0.5755  0.4271
  173SAPI  C21119608   1.229   5.856   9.175 -0.5684  0.5714 -0.2460
  173SAPI  H11R19609   1.130   5.823   9.209 -0.0881 -1.0108 -0.3528
  173SAPI  C21219610   1.235   5.891   9.046 -0.1127 -0.5872 -0.5604
  173SAPI  H12R19611   1.138   5.900   8.995 -0.1500 -2.5612 -0.8937
  173SAPI  C21319612   1.348   5.933   8.959  0.0916 -0.4797  0.2235
  173SAPI  H13R19613   1.360   5.858   8.877 -2.4515 -0.3212 -0.3124
  173SAPI  H13S19614   1.445   5.924   9.013  0.7801 -2.6423 -1.2930
  173SAPI  C21419615   1.345   6.080   8.910  0.0971  0.1070 -0.2581
  173SAPI  H14R19616   1.383   6.154   8.982  0.7305 -1.2269  0.8038
  173SAPI  C21519617   1.310   6.118   8.786  0.0752  0.0103 -0.3958
  173SAPI  H15R19618   1.317   6.225   8.762  1.9139 -0.1780 -0.7706
  173SAPI  C21619619   1.264   6.029   8.670  0.5956  0.1039 -0.2551
  173SAPI  H16R19620   1.226   5.934   8.713  1.9276  0.2787  1.3779
  173SAPI  H16S19621   1.342   6.007   8.595  0.0983  0.5737 -0.9114
  173SAPI  C21719622   1.139   6.092   8.592 -0.1920 -0.4311  0.3848
  173SAPI  H17R19623   1.063   6.089   8.673  1.7475  1.2634  2.3655
  173SAPI  H17S19624   1.120   6.036   8.499  2.2642 -2.1426  0.8593
  173SAPI  C21819625   1.143   6.243   8.557  0.0236  0.3904  0.8966
  173SAPI  H18R19626   1.128   6.314   8.641 -1.8603  2.3726 -1.0375
  173SAPI  H18S19627   1.055   6.245   8.490  2.0530 -0.6682 -1.9403
  173SAPI  C21919628   1.255   6.292   8.468 -0.6813  0.5917  0.2210
  173SAPI  H19R19629   1.264   6.230   8.377 -1.1304  1.5279 -0.4776
  173SAPI  H19S19630   1.358   6.286   8.508 -0.4833 -0.9481 -0.4922
  173SAPI  C22019631   1.241   6.438   8.427  0.4796  1.0637  0.1234
  173SAPI  H20R19632   1.255   6.500   8.518 -2.0366 -0.8104  1.8571
  173SAPI  H20S19633   1.143   6.460   8.381 -0.3625 -1.9196  0.3615
  173SAPI  H20T19634   1.322   6.454   8.353 -0.5010 -3.4196 -2.0890
  173SAPI   C3319635   0.795   5.763   9.924 -0.2701 -0.1665  0.6445
  173SAPI   H3X19636   0.712   5.748   9.997 -0.8693 -0.6305 -0.1336
  173SAPI   H3Y19637   0.792   5.685   9.846  0.9179  0.1830  0.2464
  173SAPI   C3419638   0.780   5.896   9.851  0.0993  0.0888  0.4847
  173SAPI   H4X19639   0.794   5.986   9.915 -0.4855  1.0551 -0.7223
  173SAPI   H4Y19640   0.674   5.913   9.825  0.7527  1.6236 -1.2971
  173SAPI   C3519641   0.875   5.898   9.720 -0.6068  0.9417  0.5328
  173SAPI   H5X19642   0.860   5.819   9.644 -0.4145  0.8540  0.5861
  173SAPI   H5Y19643   0.981   5.907   9.752 -0.6034  4.1502 -0.1697
  173SAPI   C3619644   0.841   6.024   9.646 -0.2355 -0.4339 -0.4006
  173SAPI   H6X19645   0.865   6.103   9.722 -0.3929  0.4903 -1.3002
  173SAPI   H6Y19646   0.732   6.030   9.625 -0.2681 -1.6360 -0.5593
  173SAPI   C3719647   0.915   6.057   9.518 -1.0179 -0.1472 -0.1593
  173SAPI   H7X19648   1.024   6.052   9.537 -0.8107 -0.9008 -1.4924
  173SAPI   H7Y19649   0.893   6.164   9.495  0.1020  0.1791  0.2418
  173SAPI   C3819650   0.870   5.969   9.399 -0.6573 -0.6346 -0.5013
  173SAPI   H8X19651   0.760   5.974   9.416 -0.5797  4.0301 -0.7344
  173SAPI   H8Y19652   0.916   5.870   9.418 -1.6934 -1.0416 -0.1114
  173SAPI   C3919653   0.908   6.022   9.258 -0.3415 -0.0741 -0.4295
  173SAPI   H9X19654   0.881   5.956   9.173  1.1517 -0.0569 -0.9366
  173SAPI   H9Y19655   1.016   6.046   9.269 -0.5744 -0.0193  1.8548
  173SAPI  C31019656   0.828   6.147   9.227  0.3684  0.0462  0.2130
  173SAPI  H10X19657   0.842   6.221   9.310  1.5956 -1.8439  1.7394
  173SAPI  H10Y19658   0.720   6.124   9.217  0.8812 -0.8092 -4.6836
  173SAPI  C31119659   0.859   6.203   9.088  0.2869  0.3746  0.8115
  173SAPI  H11X19660   0.785   6.283   9.065 -1.1747 -1.2105 -0.0911
  173SAPI  H11Y19661   0.835   6.129   9.008 -0.7864  1.4316  0.1350
  173SAPI  C31219662   1.001   6.240   9.063 -0.3211  0.4297 -0.1607
  173SAPI  H12X19663   1.070   6.153   9.069  0.9386  1.4082 -0.3791
  173SAPI  H12Y19664   1.030   6.323   9.130 -2.3532  2.2682 -1.4850
  173SAPI  C31319665   1.012   6.296   8.917  0.6390 -0.3207  0.0513
  173SAPI  H13X19666   0.927   6.243   8.869  0.5892 -0.6624  0.5186
  173SAPI  H13Y19667   1.103   6.257   8.867  0.5171 -1.4492  0.7072
  173SAPI  C31419668   1.014   6.445   8.906  0.7011  0.4199 -0.8641
  173SAPI  H14X19669   1.111   6.484   8.944  0.2742 -0.0761  0.7473
  173SAPI  H14Y19670   0.937   6.475   8.980  1.8414 -2.2170  1.5012
  173SAPI  C31519671   0.967   6.497   8.769  1.0311  0.9055  0.4301
  173SAPI  H15X19672   0.884   6.432   8.735 -0.1716  2.6815 -0.1425
  173SAPI  H15Y19673   1.052   6.486   8.698 -0.5224 -1.8893 -1.0565
  173SAPI  C31619674   0.901   6.629   8.772  0.0592 -0.3657  0.3659
  173SAPI  H16X19675   0.978   6.707   8.792 -1.2826  0.9952  0.3346
  173SAPI  H16Y19676   0.825   6.628   8.853 -2.0489  1.2318 -1.5412
  173SAPI  C31719677   0.822   6.677   8.644  0.5647  0.2627 -0.3318
  173SAPI  H17X19678   0.744   6.743   8.688  1.0282 -1.3801  3.1057
  173SAPI  H17Y19679   0.779   6.593   8.586  2.1388 -0.0271 -1.1004
  173SAPI  C31819680   0.907   6.758   8.547 -0.2099  0.1518  0.3203
  173SAPI  H18X19681   0.992   6.699   8.508  1.7411  2.5848  0.7556
  173SAPI  H18Y19682   0.947   6.856   8.579 -1.4688  1.3468 -1.6353
  173SAPI  H18Z19683   0.848   6.792   8.459  0.1375 -0.7832 -0.2810
  174SAPI   C1219684   4.212   0.470  11.002  0.1281  0.2272  0.0806
  174SAPI    H219685   4.102   0.463  11.021 -0.2962  0.3743 -2.1997
  174SAPI    O219686   4.269   0.540  11.112 -1.0180  0.5676 -0.4562
  174SAPI   HO219687   4.206   0.566  11.180  1.8245  0.2562  2.4263
  174SAPI   C1319688   4.273   0.331  10.996 -1.1388  0.1144  0.1548
  174SAPI    H319689   4.223   0.274  10.914  2.7891 -1.7497 -1.0818
  174SAPI    O319690   4.264   0.256  11.114  0.5309  0.0176  0.5492
  174SAPI   HO319691   4.270   0.320  11.185 -0.7170 -0.5555  1.1750
  174SAPI   C1419692   4.423   0.338  10.964  0.0157 -1.0454  0.4536
  174SAPI    H419693   4.489   0.384  11.041  1.5512  1.6704 -2.3671
  174SAPI    O419694   4.467   0.203  10.929  0.0885  0.0756  0.5641
  174SAPI   HO419695   4.535   0.188  10.996  0.3080 -3.2803 -0.3418
  174SAPI   C1519696   4.443   0.429  10.840 -0.3121  0.1851 -0.4575
  174SAPI    H519697   4.397   0.381  10.751  0.8754 -0.0182 -0.9785
  174SAPI    O519698   4.589   0.446  10.818 -0.5610 -0.0608  0.1101
  174SAPI   HO519699   4.639   0.365  10.824 -0.3790 -0.0504 -1.1379
  174SAPI   C1619700   4.379   0.568  10.852  0.0920 -0.2066 -0.5283
  174SAPI    H619701   4.413   0.624  10.942  1.1172 -3.2654  1.0506
  174SAPI    O619702   4.396   0.642  10.734 -0.4271  0.1112  0.1007
  174SAPI   HO619703   4.338   0.603  10.668 -0.6450  0.7135 -0.0629
  174SAPI   C1119704   4.233   0.547  10.872 -0.1673  0.7249  0.1960
  174SAPI    H119705   4.186   0.498  10.784 -0.9347  2.7023 -0.5248
  174SAPI     P19706   4.011   0.705  10.836  0.4326 -0.4646  0.2169
  174SAPI   O1319707   3.947   0.814  10.916  0.3306  0.9077  0.3215
  174SAPI   O1419708   3.931   0.581  10.827  0.3833 -0.3269 -0.3723
  174SAPI   O1219709   4.163   0.674  10.887  0.3193  0.3305  0.0770
  174SAPI   O1119710   4.037   0.757  10.686 -0.6666 -0.0554 -0.9000
  174SAPI    C119711   3.999   0.692  10.567 -0.1342 -0.2624 -0.8089
  174SAPI    HA19712   4.067   0.610  10.536 -0.6143 -0.0426 -2.5046
  174SAPI    HB19713   3.900   0.645  10.584 -0.2689  0.3921  0.2499
  174SAPI    C219714   3.964   0.791  10.452  0.1294  1.0336  0.2251
  174SAPI    HS19715   3.921   0.737  10.365  1.8170 -1.5098  0.9420
  174SAPI   O2119716   4.078   0.871  10.409  0.4285 -0.0980 -0.4621
  174SAPI   C2119717   4.167   0.812  10.328  0.2120 -0.2207  0.2431
  174SAPI   O2219718   4.158   0.701  10.280 -0.0290  0.4074  0.0798
  174SAPI   C2219719   4.283   0.902  10.297  0.0272 -0.7149 -0.7823
  174SAPI   H2R19720   4.256   0.999  10.249  0.8790  1.1106  2.3327
  174SAPI   H2S19721   4.323   0.934  10.395 -1.6963  1.1514 -0.6744
  174SAPI    C319722   3.848   0.875  10.506  0.3967 -0.4613  0.8412
  174SAPI    HX19723   3.884   0.953  10.577 -0.6940  1.6061 -0.8191
  174SAPI    HY19724   3.771   0.820  10.564 -0.4219  1.7937  1.9657
  174SAPI   O3119725   3.781   0.937  10.400 -0.1876 -0.2059  0.8207
  174SAPI   C3119726   3.696   1.030  10.430 -0.1067  0.2904 -0.4647
  174SAPI   O3219727   3.663   1.060  10.547  0.8042 -0.0025 -0.3515
  174SAPI   C3219728   3.640   1.103  10.303  0.1566  0.5319 -0.1730
  174SAPI   H2X19729   3.711   1.075  10.222  1.9751 -2.3441  2.3348
  174SAPI   H2Y19730   3.643   1.213  10.318 -0.1813  0.2653  2.0284
  174SAPI   C2319731   4.381   0.819  10.214  0.5335 -0.1105  0.4455
  174SAPI   H3R19732   4.338   0.794  10.114  2.3152  3.4410 -1.3290
  174SAPI   H3S19733   4.418   0.724  10.258 -1.8169 -1.3668 -0.1645
  174SAPI   C2419734   4.506   0.894  10.188 -0.5926 -0.0016 -0.4116
  174SAPI   H4R19735   4.566   0.913  10.280  0.3084 -2.1778 -0.5211
  174SAPI   H4S19736   4.478   0.998  10.162  1.0468  0.1874 -1.5272
  174SAPI   C2519737   4.589   0.829  10.086 -0.3254 -0.2936 -0.2030
  174SAPI   H5R19738   4.642   0.737  10.116  0.7817  0.2711 -0.4231
  174SAPI   C2619739   4.595   0.861   9.952 -0.7393 -0.1819  0.4969
  174SAPI   H6R19740   4.646   0.795   9.881 -0.8182  0.2446  0.0428
  174SAPI   C2719741   4.513   0.971   9.890 -0.2403 -0.5443  0.0081
  174SAPI   H7R19742   4.484   1.046   9.967  2.2520  1.9510 -1.3644
  174SAPI   H7S19743   4.419   0.930   9.847 -1.2912  1.1009  0.6510
  174SAPI   C2819744   4.586   1.065   9.795 -0.1068 -0.0118  0.1777
  174SAPI   H8R19745   4.681   1.097   9.839  0.0681 -1.5782  0.9654
  174SAPI   C2919746   4.555   1.119   9.673 -0.0554  0.0033  0.0825
  174SAPI   H9R19747   4.639   1.175   9.632 -0.7296  1.5820  0.8140
  174SAPI  C21019748   4.439   1.099   9.581 -0.2495  0.1987 -0.9407
  174SAPI  H10R19749   4.358   1.157   9.631 -1.7272 -0.9709 -1.9269
  174SAPI  H10S19750   4.413   0.991   9.591  0.4614  0.1189  0.0946
  174SAPI  C21119751   4.447   1.151   9.439 -0.0915 -0.2230  0.3996
  174SAPI  H11R19752   4.353   1.191   9.397  0.8583  0.7388 -0.8280
  174SAPI  C21219753   4.542   1.141   9.344 -0.1016  0.6256  0.4620
  174SAPI  H12R19754   4.525   1.185   9.244 -0.6613 -0.9040 -0.1266
  174SAPI  C21319755   4.677   1.071   9.357  0.1492  0.9973 -0.1757
  174SAPI  H13R19756   4.680   0.966   9.320  1.3045  0.0821  2.3888
  174SAPI  H13S19757   4.694   1.034   9.460  0.3409 -0.3621 -0.6902
  174SAPI  C21419758   4.797   1.148   9.308 -0.6124  0.0816 -0.8730
  174SAPI  H14R19759   4.814   1.241   9.363 -2.4276 -0.8436  1.3433
  174SAPI  C21519760   4.880   1.110   9.209  0.4434 -0.1550  0.0265
  174SAPI  H15R19761   4.957   1.184   9.182  1.8301 -1.1875  1.0672
  174SAPI  C21619762   4.867   1.004   9.113  0.5177 -0.1613 -1.0191
  174SAPI  H16R19763   4.769   0.957   9.138  1.5774 -1.6032  0.5452
  174SAPI  H16S19764   4.943   0.924   9.125 -0.5374 -1.0853 -0.3448
  174SAPI  C21719765   4.862   1.064   8.972 -0.2863  0.2419 -0.0999
  174SAPI  H17R19766   4.962   1.104   8.944 -0.4519  0.0454 -0.9810
  174SAPI  H17S19767   4.790   1.148   8.966  1.0479  1.2646 -2.3304
  174SAPI  C21819768   4.828   0.965   8.866 -0.1698 -0.1853 -0.2419
  174SAPI  H18R19769   4.748   0.899   8.906  0.4806  0.3668  2.0258
  174SAPI  H18S19770   4.919   0.908   8.837  1.6010  1.9929  0.9373
  174SAPI  C21919771   4.782   1.032   8.735 -0.1097 -0.3571 -0.5531
  174SAPI  H19R19772   4.678   1.070   8.747 -0.1679 -0.4765 -0.6867
  174SAPI  H19S19773   4.780   0.945   8.667 -0.3867 -0.3764 -0.5210
  174SAPI  C22019774   4.861   1.148   8.679  0.2411  0.7350 -0.4175
  174SAPI  H20R19775   4.804   1.204   8.602 -0.0233 -0.5415 -1.1579
  174SAPI  H20S19776   4.953   1.104   8.636  0.7766  1.1565  0.2835
  174SAPI  H20T19777   4.886   1.222   8.759  0.8110  0.2837 -0.1782
  174SAPI   C3319778   3.491   1.077  10.263 -0.6689  0.2792 -0.1277
  174SAPI   H3X19779   3.433   1.086  10.357 -0.9530 -1.5198 -0.1130
  174SAPI   H3Y19780   3.473   0.974  10.227 -0.5722 -0.4884  1.9763
  174SAPI   C3419781   3.440   1.190  10.168 -0.0756 -0.1888 -0.2243
  174SAPI   H4X19782   3.439   1.280  10.234 -2.1577 -1.6187  1.7521
  174SAPI   H4Y19783   3.333   1.191  10.140  0.6019 -0.9184 -3.0041
  174SAPI   C3519784   3.517   1.220  10.037  0.0747  0.5389 -0.8169
  174SAPI   H5X19785   3.519   1.121   9.986 -0.0609  0.1610 -0.0914
  174SAPI   H5Y19786   3.620   1.254  10.063 -0.0002  0.3273 -0.2433
  174SAPI   C3619787   3.451   1.332   9.957  0.4306  0.0771  0.2899
  174SAPI   H6X19788   3.434   1.423  10.018  2.4081  1.0665 -0.5738
  174SAPI   H6Y19789   3.348   1.305   9.926 -0.2055  0.9414  1.6286
  174SAPI   C3719790   3.508   1.374   9.821 -0.5234  0.2673  0.3268
  174SAPI   H7X19791   3.608   1.422   9.827  0.2235 -0.9904 -1.5478
  174SAPI   H7Y19792   3.436   1.438   9.767 -2.4548 -0.8098  1.5728
  174SAPI   C3819793   3.539   1.259   9.728  0.0586 -0.0976  0.5095
  174SAPI   H8X19794   3.443   1.211   9.700 -0.1974  1.6042 -1.6487
  174SAPI   H8Y19795   3.606   1.179   9.766  1.3820  1.3067  1.2037
  174SAPI   C3919796   3.595   1.303   9.591 -0.1443 -0.0191 -0.1380
  174SAPI   H9X19797   3.696   1.348   9.603  0.0572 -0.9852  2.0864
  174SAPI   H9Y19798   3.524   1.377   9.549  1.3222  0.3731 -1.9945
  174SAPI  C31019799   3.596   1.196   9.478  0.4903 -0.5452 -0.1301
  174SAPI  H10X19800   3.490   1.174   9.453  0.1772  1.4945 -0.6710
  174SAPI  H10Y19801   3.635   1.101   9.520  2.0115 -0.0602 -0.3962
  174SAPI  C31119802   3.664   1.228   9.343 -0.3549  0.1875 -0.2437
  174SAPI  H11X19803   3.771   1.246   9.365 -0.2452 -0.3237 -0.3517
  174SAPI  H11Y19804   3.632   1.328   9.305 -0.4681  0.4060  0.4223
  174SAPI  C31219805   3.639   1.118   9.241  0.6038  0.6814 -0.1488
  174SAPI  H12X19806   3.529   1.100   9.243  0.4943  1.3995  0.3424
  174SAPI  H12Y19807   3.679   1.016   9.262 -1.2384 -0.3562 -1.4681
  174SAPI  C31319808   3.673   1.156   9.096  0.1617  0.3120 -0.3572
  174SAPI  H13X19809   3.779   1.123   9.083  0.4564 -0.0417  2.4937
  174SAPI  H13Y19810   3.664   1.264   9.073 -1.8913 -0.5891 -4.0660
  174SAPI  C31419811   3.591   1.072   8.995  0.6115 -0.2914  0.0943
  174SAPI  H14X19812   3.485   1.107   8.996 -0.0616 -2.2049 -1.3069
  174SAPI  H14Y19813   3.595   0.969   9.034  0.4431 -0.3747 -0.1064
  174SAPI  C31519814   3.630   1.067   8.840  0.8141  0.0069 -0.1877
  174SAPI  H15X19815   3.611   1.164   8.789 -0.9235 -0.8348 -1.1995
  174SAPI  H15Y19816   3.565   0.993   8.788  2.6285 -1.4534 -0.4417
  174SAPI  C31619817   3.767   1.012   8.807 -0.6547  0.7958 -0.0624
  174SAPI  H16X19818   3.769   0.905   8.836 -1.4421  1.0401  0.9351
  174SAPI  H16Y19819   3.843   1.062   8.871  0.8836 -1.6044  0.0614
  174SAPI  C31719820   3.816   1.041   8.659  0.5174 -0.1509 -0.7048
  174SAPI  H17X19821   3.922   1.010   8.655  0.2081 -1.8986  2.8190
  174SAPI  H17Y19822   3.808   1.150   8.636 -0.5986 -0.9545 -4.5456
  174SAPI  C31819823   3.724   0.952   8.564 -0.3648 -0.0402  0.1259
  174SAPI  H18X19824   3.726   0.994   8.461  0.8542  1.5219  0.7576
  174SAPI  H18Y19825   3.618   0.971   8.591 -0.6731 -1.8348  0.2260
  174SAPI  H18Z19826   3.759   0.848   8.579  0.3159 -0.0084 -1.1797
  175SAPI   C1219827   0.523   5.743   6.071  0.4197 -0.1410 -0.6560
  175SAPI    H219828   0.417   5.736   6.105  1.0052 -0.6838  1.1285
  175SAPI    O219829   0.602   5.635   6.123  0.5449 -0.3057 -0.4097
  175SAPI   HO219830   0.650   5.677   6.195  0.8544 -1.7386  0.2375
  175SAPI   C1319831   0.514   5.737   5.915 -0.2288  0.3608 -0.2422
  175SAPI    H319832   0.456   5.819   5.868 -1.1774 -0.6763 -0.9172
  175SAPI    O319833   0.461   5.612   5.872  0.0713 -0.2160 -0.0427
  175SAPI   HO319834   0.527   5.547   5.895 -1.8187 -0.9625  3.5868
  175SAPI   C1419835   0.653   5.755   5.854  0.7058 -0.0754  0.4369
  175SAPI    H419836   0.717   5.670   5.887  0.8696  0.2275  0.9088
  175SAPI    O419837   0.657   5.772   5.711 -0.2189  0.1961 -0.1101
  175SAPI   HO419838   0.618   5.697   5.667 -3.4604  0.4695  2.1021
  175SAPI   C1519839   0.709   5.891   5.902 -0.1761 -0.9697 -0.3158
  175SAPI    H519840   0.641   5.971   5.866  1.4804  1.0112  0.7948
  175SAPI    O519841   0.842   5.912   5.855 -0.0190 -0.6454  0.5650
  175SAPI   HO519842   0.833   5.893   5.761 -0.5387 -3.0695  1.0688
  175SAPI   C1619843   0.709   5.899   6.056 -0.0690 -0.3300 -1.0039
  175SAPI    H619844   0.775   5.816   6.087  0.1513 -0.2366 -1.2191
  175SAPI    O619845   0.759   6.029   6.105 -0.0231  0.3495 -0.6926
  175SAPI   HO619846   0.852   6.009   6.092 -0.6318 -0.4021 -4.6614
  175SAPI   C1119847   0.574   5.874   6.117 -0.3735  0.1066 -0.7382
  175SAPI    H119848   0.507   5.955   6.081 -0.8108  0.5952  1.1235
  175SAPI     P19849   0.443   5.902   6.346  0.1049 -0.7169  0.2676
  175SAPI   O1319850   0.348   5.957   6.247  0.2904  0.6660  0.4808
  175SAPI   O1419851   0.470   5.983   6.468  0.3537  0.3232  0.2875
  175SAPI   O1219852   0.582   5.885   6.260 -0.4452  0.1355 -0.8926
  175SAPI   O1119853   0.395   5.753   6.388 -0.2174  0.2230  0.3433
  175SAPI    C119854   0.491   5.668   6.448  0.0384  0.0370  0.0833
  175SAPI    HA19855   0.543   5.607   6.370  1.8828  2.5600 -0.7230
  175SAPI    HB19856   0.554   5.714   6.527  1.6126 -0.7507 -0.6829
  175SAPI    C219857   0.429   5.559   6.536 -0.0785 -0.1409 -0.2853
  175SAPI    HS19858   0.353   5.502   6.479 -1.7299 -0.6852  2.4163
  175SAPI   O2119859   0.359   5.625   6.641  0.2184  0.0738 -0.1557
  175SAPI   C2119860   0.264   5.549   6.707 -0.2376 -0.4686  0.3219
  175SAPI   O2219861   0.206   5.451   6.654  0.2616 -0.1576  0.0027
  175SAPI   C2219862   0.253   5.587   6.855 -0.1759  0.1233  0.2239
  175SAPI   H2R19863   0.262   5.698   6.854 -1.4168  0.2235  0.0403
  175SAPI   H2S19864   0.151   5.558   6.887  0.8783 -3.0008  0.9287
  175SAPI    C319865   0.535   5.452   6.587 -0.6049  0.4039  0.4240
  175SAPI    HX19866   0.578   5.402   6.498 -0.8455  0.2287  0.4042
  175SAPI    HY19867   0.472   5.373   6.634 -1.2128  0.3141 -0.5347
  175SAPI   O3119868   0.629   5.519   6.675 -0.0027 -0.4368 -0.0899
  175SAPI   C3119869   0.699   5.439   6.759  0.0962 -0.1778  0.0937
  175SAPI   O3219870   0.678   5.317   6.771  0.6358 -0.0555 -0.3414
  175SAPI   C3219871   0.814   5.514   6.818  0.3375  0.5736  0.4410
  175SAPI   H2X19872   0.775   5.613   6.852  0.7295  1.5306 -1.8071
  175SAPI   H2Y19873   0.882   5.534   6.732 -2.6960  3.2000 -1.4814
  175SAPI   C2319874   0.354   5.516   6.940 -0.7111 -0.0019  0.0636
  175SAPI   H3R19875   0.350   5.569   7.037  0.8021  2.3005 -1.0919
  175SAPI   H3S19876   0.458   5.522   6.902 -0.5178 -2.4554  0.1445
  175SAPI   C2419877   0.320   5.367   6.963  0.0644 -0.3285  0.1165
  175SAPI   H4R19878   0.303   5.324   6.862 -1.2058 -2.9779  1.3867
  175SAPI   H4S19879   0.224   5.374   7.020  0.5409  1.6424  0.7043
  175SAPI   C2519880   0.415   5.275   7.018  0.0187 -0.0888 -0.4930
  175SAPI   H5R19881   0.467   5.210   6.947  2.1118  2.7680 -1.6886
  175SAPI   C2619882   0.461   5.273   7.145 -0.4341 -0.5352  0.1934
  175SAPI   H6R19883   0.537   5.197   7.168  0.4423  0.5359  0.9240
  175SAPI   C2719884   0.427   5.354   7.268  0.2009  0.5015 -0.2234
  175SAPI   H7R19885   0.377   5.450   7.241 -0.0545  0.6935  0.9009
  175SAPI   H7S19886   0.522   5.390   7.314  0.3749 -2.7264  2.0847
  175SAPI   C2819887   0.352   5.274   7.369 -0.6019 -0.5032 -0.3803
  175SAPI   H8R19888   0.329   5.171   7.336  0.5853 -0.1070 -2.5960
  175SAPI   C2919889   0.293   5.320   7.482  0.4629 -0.4325  0.7294
  175SAPI   H9R19890   0.240   5.251   7.548  1.4864 -2.8561 -0.9362
  175SAPI  C21019891   0.303   5.457   7.530  0.6499  0.5637 -0.1376
  175SAPI  H10R19892   0.221   5.514   7.481 -0.1453  0.5497  1.1457
  175SAPI  H10S19893   0.391   5.513   7.491  1.6192 -2.7224 -2.8697
  175SAPI  C21119894   0.289   5.458   7.682 -0.3033 -0.8745  0.6854
  175SAPI  H11R19895   0.313   5.362   7.730 -0.8350  0.1859  3.1508
  175SAPI  C21219896   0.227   5.548   7.768  0.2894 -1.1738  0.0516
  175SAPI  H12R19897   0.237   5.537   7.877 -0.5614 -0.3834  0.2089
  175SAPI  C21319898   0.162   5.681   7.727 -0.4471 -0.3501 -0.7866
  175SAPI  H13R19899   0.148   5.665   7.617 -2.6251 -1.1299 -0.4373
  175SAPI  H13S19900   0.235   5.760   7.753  0.7878 -0.6895 -3.0252
  175SAPI  C21419901   0.029   5.699   7.795  0.0887  0.2162 -0.1269
  175SAPI  H14R19902   0.008   5.644   7.888  1.6298 -2.1544 -1.1367
  175SAPI  C21519903  -0.061   5.789   7.750 -0.1817  0.2317 -0.4104
  175SAPI  H15R19904  -0.163   5.793   7.790  0.9130 -0.8508  2.6307
  175SAPI  C21619905  -0.042   5.887   7.639 -0.5250  0.5642 -0.3936
  175SAPI  H16R19906   0.066   5.909   7.635 -0.1066 -1.4472 -0.5470
  175SAPI  H16S19907  -0.106   5.975   7.665  0.9827  1.3180  0.8333
  175SAPI  C21719908  -0.090   5.818   7.505  0.7656  0.3300  0.0994
  175SAPI  H17R19909  -0.201   5.813   7.499  0.8123 -2.2753  0.7982
  175SAPI  H17S19910  -0.048   5.716   7.510  1.5974  0.6288 -0.7376
  175SAPI  C21819911  -0.051   5.887   7.368  0.5291  0.6721  0.4083
  175SAPI  H18R19912   0.056   5.899   7.397  0.4137  0.0543  1.0924
  175SAPI  H18S19913  -0.110   5.980   7.354 -1.3238 -0.5275  0.0832
  175SAPI  C21919914  -0.055   5.809   7.239 -0.7410  0.4103 -0.9273
  175SAPI  H19R19915  -0.153   5.772   7.201  0.2458  0.5469 -3.7025
  175SAPI  H19S19916   0.002   5.715   7.255 -1.5026 -0.0866 -1.1320
  175SAPI  C22019917   0.000   5.885   7.121 -0.0053  0.2988  0.1409
  175SAPI  H20R19918  -0.025   5.991   7.103  0.9892  0.3559 -0.9662
  175SAPI  H20S19919  -0.047   5.846   7.028  1.0947 -1.0067  0.1072
  175SAPI  H20T19920   0.111   5.887   7.121 -0.0121  1.3821  1.2891
  175SAPI   C3319921   0.895   5.430   6.920  0.3232  0.4860 -0.0093
  175SAPI   H3X19922   0.996   5.475   6.929  0.1921  0.4686  1.7832
  175SAPI   H3Y19923   0.911   5.326   6.883  0.4970  0.7037 -0.5492
  175SAPI   C3419924   0.825   5.430   7.057  0.3356 -0.3341  0.2258
  175SAPI   H4X19925   0.733   5.369   7.062  0.1517 -0.1042 -0.2990
  175SAPI   H4Y19926   0.791   5.533   7.081  0.1448 -0.5394  0.8555
  175SAPI   C3519927   0.909   5.385   7.173 -0.4272  0.4604  0.1232
  175SAPI   H5X19928   0.991   5.455   7.201  0.8661 -1.4366  1.1750
  175SAPI   H5Y19929   0.957   5.290   7.139  0.3007  0.9197 -0.1486
  175SAPI   C3619930   0.819   5.371   7.295  0.3254  0.2743  0.3825
  175SAPI   H6X19931   0.743   5.296   7.265 -0.4750  1.1981  0.0918
  175SAPI   H6Y19932   0.773   5.468   7.322 -0.4431 -0.7373  2.8823
  175SAPI   C3719933   0.887   5.318   7.420  0.1765  0.4566 -0.4309
  175SAPI   H7X19934   0.975   5.386   7.420 -0.3370  1.2354  2.6005
  175SAPI   H7Y19935   0.909   5.210   7.410 -0.1874  0.4942 -1.6725
  175SAPI   C3819936   0.807   5.348   7.550  0.1093  0.4853 -0.3377
  175SAPI   H8X19937   0.762   5.449   7.550 -1.7320 -0.3056 -1.6274
  175SAPI   H8Y19938   0.876   5.357   7.636 -1.1619  2.7283  0.4889
  175SAPI   C3919939   0.691   5.244   7.589  0.4526 -0.2267  0.2562
  175SAPI   H9X19940   0.731   5.141   7.600  1.0099  0.1562  1.9158
  175SAPI   H9Y19941   0.620   5.249   7.504  1.7479  0.5950 -0.7844
  175SAPI  C31019942   0.623   5.288   7.728 -0.0096  1.3272 -0.1426
  175SAPI  H10X19943   0.562   5.378   7.702 -1.3181  0.8947  1.3752
  175SAPI  H10Y19944   0.711   5.324   7.785  0.3961  2.1581 -1.2728
  175SAPI  C31119945   0.539   5.167   7.785  0.0421 -0.2459 -0.1092
  175SAPI  H11X19946   0.608   5.080   7.779 -0.7547 -0.9259  0.3608
  175SAPI  H11Y19947   0.454   5.146   7.717 -0.8272 -0.8378  1.1308
  175SAPI  C31219948   0.490   5.200   7.927  0.0089  0.1444  0.0419
  175SAPI  H12X19949   0.407   5.274   7.921  0.0229  0.4163  2.6595
  175SAPI  H12Y19950   0.564   5.252   7.992 -1.3206 -0.0148  1.7080
  175SAPI  C31319951   0.431   5.083   7.998  0.8561 -0.2615  0.4099
  175SAPI  H13X19952   0.513   5.011   8.022  1.5898  0.6017  0.4998
  175SAPI  H13Y19953   0.361   5.028   7.931  0.0955  0.8219  0.2974
  175SAPI  C31419954   0.356   5.139   8.116 -0.2582  0.1847  0.1166
  175SAPI  H14X19955   0.283   5.208   8.069  0.5913  0.9074 -0.1467
  175SAPI  H14Y19956   0.421   5.209   8.173  1.5811 -0.5384 -1.0510
  175SAPI  C31519957   0.274   5.037   8.195  0.2132  0.0761  0.0309
  175SAPI  H15X19958   0.204   4.988   8.125 -0.0447 -1.9887  1.6595
  175SAPI  H15Y19959   0.207   5.079   8.273  0.2120  0.0059  0.0679
  175SAPI  C31619960   0.374   4.941   8.259 -0.3038 -0.4277 -0.3402
  175SAPI  H16X19961   0.446   4.998   8.322  0.4060  0.7857 -2.1986
  175SAPI  H16Y19962   0.439   4.888   8.186  2.9621  1.4817  1.0737
  175SAPI  C31719963   0.304   4.849   8.364 -0.9748  0.3155 -0.4040
  175SAPI  H17X19964   0.226   4.896   8.428 -0.7831 -1.2455  1.0119
  175SAPI  H17Y19965   0.386   4.810   8.428 -0.2925  1.8981 -0.2792
  175SAPI  C31819966   0.239   4.728   8.302  0.7594 -0.4868 -0.2067
  175SAPI  H18X19967   0.313   4.682   8.232 -0.4063  1.5105 -2.8308
  175SAPI  H18Y19968   0.144   4.756   8.252  2.1233  3.1964 -0.8812
  175SAPI  H18Z19969   0.219   4.648   8.376  2.1895 -0.2115  0.4952
  176SAPI   C1219970   0.262   3.458   6.241 -0.3870  0.4314 -0.1334
  176SAPI    H219971   0.310   3.555   6.264  0.0871 -0.0684  1.0214
  176SAPI    O219972   0.149   3.511   6.171 -0.9369  0.0401 -0.4956
  176SAPI   HO219973   0.121   3.575   6.237 -0.6544 -1.5180  1.1886
  176SAPI   C1319974   0.348   3.361   6.155  0.5336 -0.0771 -0.3352
  176SAPI    H319975   0.438   3.336   6.215  0.0354  0.2350  0.5598
  176SAPI    O319976   0.399   3.421   6.036  0.2346 -0.1273  0.2671
  176SAPI   HO319977   0.326   3.456   5.984  0.4499 -1.0299 -0.6619
  176SAPI   C1419978   0.272   3.228   6.126  0.1064 -0.3166  0.4843
  176SAPI    H419979   0.176   3.255   6.076 -0.4767 -1.1674  1.1439
  176SAPI    O419980   0.349   3.143   6.034  0.9264  0.2556 -0.9628
  176SAPI   HO419981   0.396   3.077   6.085 -0.8304 -0.0105  0.3285
  176SAPI   C1519982   0.231   3.164   6.243 -0.7000 -0.3509 -0.4927
  176SAPI    H519983   0.321   3.133   6.300  1.1671  2.8575 -1.5741
  176SAPI    O519984   0.160   3.039   6.215  0.3616 -0.1865  0.1782
  176SAPI   HO519985   0.113   3.012   6.294 -0.0166  1.7188  0.6411
  176SAPI   C1619986   0.148   3.251   6.345 -0.0975 -0.0883  0.0876
  176SAPI    H619987   0.052   3.278   6.295 -0.8451 -0.7854  1.1443
  176SAPI    O619988   0.118   3.177   6.466 -0.1927 -0.2698  0.8098
  176SAPI   HO619989   0.023   3.178   6.474 -0.1513  1.9263  1.3035
  176SAPI   C1119990   0.219   3.381   6.375  0.1494  0.2875 -1.0664
  176SAPI    H119991   0.311   3.355   6.432 -1.5753 -3.7138  0.0926
  176SAPI     P19992   0.193   3.582   6.559 -0.0463 -0.7761 -0.0296
  176SAPI   O1319993   0.115   3.708   6.548 -0.4458  0.4167  0.8061
  176SAPI   O1419994   0.338   3.602   6.532  0.2894  0.0515 -0.0390
  176SAPI   O1219995   0.133   3.468   6.459  0.4512 -0.8244  0.3640
  176SAPI   O1119996   0.163   3.530   6.704  0.4433  0.4457  0.5169
  176SAPI    C119997   0.042   3.459   6.723  0.4113  0.6439 -1.3149
  176SAPI    HA19998  -0.046   3.515   6.685 -1.1801 -0.1279  1.1019
  176SAPI    HB19999   0.047   3.359   6.676  1.5849 -0.2663  0.6802
  176SAPI    C220000  -0.007   3.454   6.871 -0.2677 -0.3377  0.6774
  176SAPI    HS20001  -0.101   3.396   6.865  0.7137 -1.9126  0.2200
  176SAPI   O2120002  -0.025   3.585   6.920  0.0081 -0.2892  0.5808
  176SAPI   C2120003  -0.134   3.641   6.891 -0.0376  0.8595  0.4195
  176SAPI   O2220004  -0.228   3.587   6.835  0.3394  0.3490  0.0237
  176SAPI   C2220005  -0.136   3.778   6.962  0.1419 -0.2675  0.1643
  176SAPI   H2R20006  -0.185   3.764   7.060  0.6959 -1.1942  0.3060
  176SAPI   H2S20007  -0.031   3.807   6.983 -0.3691  0.9096  1.1852
  176SAPI    C320008   0.091   3.381   6.966  0.0708 -0.6483 -0.2040
  176SAPI    HX20009   0.191   3.421   6.941 -0.9778  0.5107 -2.6725
  176SAPI    HY20010   0.092   3.275   6.932  2.1767 -0.7983  0.2771
  176SAPI   O3120011   0.054   3.384   7.106  0.5545 -0.3014  0.3940
  176SAPI   C3120012   0.107   3.498   7.164 -0.2187 -0.1117  0.4416
  176SAPI   O3220013   0.188   3.574   7.117  0.0426 -0.8061 -0.4409
  176SAPI   C3220014   0.045   3.532   7.306  0.0580 -0.2343 -0.1751
  176SAPI   H2X20015  -0.066   3.536   7.302  0.1442  1.4860 -1.5192
  176SAPI   H2Y20016   0.079   3.636   7.324  0.7859 -0.4157 -0.4600
  176SAPI   C2320017  -0.192   3.894   6.875  0.6746 -0.8517  0.0018
  176SAPI   H3R20018  -0.197   3.859   6.770 -1.0542 -2.4366  0.5940
  176SAPI   H3S20019  -0.128   3.984   6.881 -0.8659  0.1924  1.2395
  176SAPI   C2420020  -0.331   3.934   6.924 -0.0138 -0.2921  0.2104
  176SAPI   H4R20021  -0.357   4.023   6.863  0.2866  1.0648  2.0049
  176SAPI   H4S20022  -0.312   3.971   7.027  2.0630 -1.2925  0.2268
  176SAPI   C2520023  -0.436   3.827   6.912  0.3747 -0.3850  0.1765
  176SAPI   H5R20024  -0.486   3.817   6.815 -1.2084 -0.7783  1.0237
  176SAPI   C2620025  -0.485   3.749   7.011  0.4000  0.0415 -0.3453
  176SAPI   H6R20026  -0.573   3.688   6.987 -0.7271  2.2691 -2.0248
  176SAPI   C2720027  -0.440   3.745   7.151  0.2684  0.2738 -0.7146
  176SAPI   H7R20028  -0.363   3.821   7.172 -0.0080  0.0819  1.1134
  176SAPI   H7S20029  -0.382   3.657   7.185  0.7244  0.1910 -1.7053
  176SAPI   C2820030  -0.563   3.729   7.242  1.2417 -0.4941 -0.7227
  176SAPI   H8R20031  -0.630   3.647   7.213  0.6322 -1.8378  4.0001
  176SAPI   C2920032  -0.603   3.813   7.338  0.3790  0.1714  0.2291
  176SAPI   H9R20033  -0.692   3.790   7.398  0.4098  1.7675  0.9229
  176SAPI  C21020034  -0.543   3.933   7.399 -0.4132  0.3520  0.0406
  176SAPI  H10R20035  -0.603   4.013   7.352  0.0970  0.9043  0.3227
  176SAPI  H10S20036  -0.444   3.954   7.353 -1.7197  3.6568 -1.3932
  176SAPI  C21120037  -0.549   3.948   7.556 -0.6969  0.0534  0.3321
  176SAPI  H11R20038  -0.509   3.865   7.616 -0.2474  1.3505  1.8954
  176SAPI  C21220039  -0.588   4.057   7.624 -0.8332 -0.4499  0.9719
  176SAPI  H12R20040  -0.571   4.069   7.732 -2.9386  1.0767  1.1725
  176SAPI  C21320041  -0.636   4.187   7.571  0.5255  0.3395  0.3232
  176SAPI  H13R20042  -0.745   4.178   7.550  0.0640  3.4009  1.2265
  176SAPI  H13S20043  -0.586   4.206   7.474  1.8102  0.9242  1.0842
  176SAPI  C21420044  -0.600   4.302   7.661  0.1416  0.4378  0.0147
  176SAPI  H14R20045  -0.497   4.337   7.645  0.2571  0.5837  1.0452
  176SAPI  C21520046  -0.679   4.340   7.767  0.5600  0.0997  0.1727
  176SAPI  H15R20047  -0.643   4.421   7.832  0.8051  0.4836 -0.4348
  176SAPI  C21620048  -0.806   4.284   7.824  0.0752 -0.6960 -0.0622
  176SAPI  H16R20049  -0.828   4.181   7.785 -2.0885  0.2355 -1.4116
  176SAPI  H16S20050  -0.886   4.352   7.788  0.3254 -0.9065 -1.0393
  176SAPI  C21720051  -0.815   4.279   7.980 -0.1697  0.0864 -0.2676
  176SAPI  H17R20052  -0.920   4.250   8.002  0.1273 -1.5698 -0.9357
  176SAPI  H17S20053  -0.799   4.379   8.026  0.1280 -0.5498  1.0191
  176SAPI  C21820054  -0.728   4.166   8.040 -0.2451  0.6294 -0.7052
  176SAPI  H18R20055  -0.737   4.074   7.979  0.9092  2.1477 -3.2404
  176SAPI  H18S20056  -0.768   4.145   8.142  2.6296 -3.6067 -0.2952
  176SAPI  C21920057  -0.594   4.222   8.071  0.8469 -0.0048 -0.2371
  176SAPI  H19R20058  -0.542   4.264   7.982  0.8082  2.2667  0.7930
  176SAPI  H19S20059  -0.527   4.138   8.099  2.8078  1.1298 -1.3692
  176SAPI  C22020060  -0.583   4.326   8.189  0.4279  0.7400 -0.7598
  176SAPI  H20R20061  -0.479   4.338   8.224 -0.9190  1.8302  3.1805
  176SAPI  H20S20062  -0.645   4.294   8.276 -0.5089 -2.8170 -2.6487
  176SAPI  H20T20063  -0.616   4.427   8.156  0.8469  1.0792 -0.1333
  176SAPI   C3320064   0.100   3.437   7.418 -0.0090 -0.7574 -0.8379
  176SAPI   H3X20065   0.210   3.422   7.408 -0.0441  0.1391 -2.8197
  176SAPI   H3Y20066   0.048   3.340   7.407  0.6333 -1.2752  0.4581
  176SAPI   C3420067   0.071   3.488   7.559  0.0711 -0.4884  0.6079
  176SAPI   H4X20068  -0.034   3.521   7.572  0.0128  1.4579 -3.9494
  176SAPI   H4Y20069   0.130   3.581   7.575 -1.1855  0.1202  1.7818
  176SAPI   C3520070   0.106   3.391   7.673 -0.1095 -0.1812  0.1810
  176SAPI   H5X20071   0.206   3.356   7.638 -0.5558  0.3008 -1.6281
  176SAPI   H5Y20072   0.045   3.298   7.670 -0.6897  0.1536  1.3722
  176SAPI   C3620073   0.112   3.451   7.818  0.2552 -0.0576 -0.0887
  176SAPI   H6X20074   0.162   3.550   7.820 -0.9793  0.5855 -0.0838
  176SAPI   H6Y20075   0.173   3.377   7.875 -1.7588  0.3654  2.7680
  176SAPI   C3720076  -0.031   3.465   7.889  0.4793 -0.0015 -0.5693
  176SAPI   H7X20077  -0.079   3.368   7.916  0.5070 -0.4255 -1.9768
  176SAPI   H7Y20078  -0.107   3.526   7.836 -0.0156 -0.2112 -0.1043
  176SAPI   C3820079  -0.028   3.542   8.024 -0.4250 -0.9434 -0.4727
  176SAPI   H8X20080  -0.129   3.548   8.069  0.3847 -3.9097  1.9952
  176SAPI   H8Y20081   0.013   3.644   8.006 -1.7167 -0.7031 -2.0889
  176SAPI   C3920082   0.056   3.480   8.133  0.3103 -0.3643  0.4993
  176SAPI   H9X20083   0.160   3.464   8.096 -0.6952 -1.2652 -2.0268
  176SAPI   H9Y20084   0.021   3.381   8.167 -1.1668 -0.5803 -1.5683
  176SAPI  C31020085   0.078   3.573   8.255 -0.4502 -0.6332  0.5900
  176SAPI  H10X20086   0.058   3.671   8.206  0.0117 -1.4064 -1.1981
  176SAPI  H10Y20087   0.180   3.576   8.299 -1.0579  2.9040  1.9271
  176SAPI  C31120088  -0.019   3.557   8.371 -0.0423  0.4685 -0.2674
  176SAPI  H11X20089  -0.005   3.454   8.412  0.6387  0.4471 -0.5410
  176SAPI  H11Y20090  -0.123   3.553   8.332  0.5660 -0.8057 -1.8386
  176SAPI  C31220091  -0.004   3.654   8.487  0.7692 -0.2210  0.0553
  176SAPI  H12X20092  -0.007   3.757   8.445  0.5504 -0.4241 -0.4311
  176SAPI  H12Y20093   0.096   3.636   8.532  0.7208  0.6719  0.5293
  176SAPI  C31320094  -0.113   3.631   8.601  0.5554 -0.4903 -0.0757
  176SAPI  H13X20095  -0.091   3.538   8.657  2.0408  0.4433  0.8873
  176SAPI  H13Y20096  -0.207   3.618   8.542 -0.3198 -3.0693  1.8010
  176SAPI  C31420097  -0.112   3.754   8.688 -0.1840  0.9433  0.1118
  176SAPI  H14X20098  -0.127   3.851   8.635  0.0946  0.7486 -0.3183
  176SAPI  H14Y20099  -0.019   3.763   8.748 -0.8309 -0.6889  1.4083
  176SAPI  C31520100  -0.230   3.733   8.787  0.7502  0.8176  0.9090
  176SAPI  H15X20101  -0.230   3.803   8.873  0.2465  2.0739 -0.0990
  176SAPI  H15Y20102  -0.225   3.632   8.833  0.9418 -1.2416 -3.3320
  176SAPI  C31620103  -0.367   3.753   8.716  0.5630  0.2390 -0.4062
  176SAPI  H16X20104  -0.394   3.675   8.642 -0.7006 -1.4722  1.8055
  176SAPI  H16Y20105  -0.358   3.848   8.659 -0.6252  0.3271 -0.4514
  176SAPI  C31720106  -0.488   3.763   8.811 -1.0377 -1.0290 -0.2106
  176SAPI  H17X20107  -0.474   3.856   8.871  0.8059 -1.3599 -0.1081
  176SAPI  H17Y20108  -0.473   3.681   8.885  1.2798  0.2728  0.8193
  176SAPI  C31820109  -0.619   3.758   8.740  0.3346  0.1017  0.0293
  176SAPI  H18X20110  -0.710   3.759   8.805 -0.8703  0.9937 -1.6159
  176SAPI  H18Y20111  -0.634   3.674   8.669 -0.0353  1.2416 -1.2635
  176SAPI  H18Z20112  -0.625   3.846   8.672  0.8258 -1.0512 -1.5191
  177SLPC     N20113   5.872   0.781  11.288  0.3053  0.5188 -0.3844
  177SLPC   C1320114   5.925   0.788  11.429  0.6258 -0.2096  0.1301
  177SLPC  H13A20115   5.905   0.880  11.482  0.8477  1.6811 -2.9388
  177SLPC  H13B20116   5.890   0.702  11.485  2.0654 -1.3525 -0.6878
  177SLPC  H13C20117   6.031   0.776  11.419  0.4364 -1.2705 -0.7284
  177SLPC   C1420118   5.717   0.810  11.286  0.9697 -0.7381 -0.3199
  177SLPC  H14A20119   5.664   0.741  11.350 -0.9247  0.8841 -0.1003
  177SLPC  H14B20120   5.704   0.911  11.322 -0.3797 -0.8604 -0.4609
  177SLPC  H14C20121   5.665   0.797  11.192  0.0030 -1.9286  0.3762
  177SLPC   C1520122   5.889   0.643  11.219 -0.0240  0.0059  0.3216
  177SLPC  H15A20123   5.851   0.564  11.282  2.3799 -0.0267  1.7763
  177SLPC  H15B20124   5.831   0.639  11.129  1.0597  0.8371 -0.4295
  177SLPC  H15C20125   5.994   0.636  11.195  0.4929  0.6972  2.2407
  177SLPC   C1220126   5.942   0.884  11.197  0.3459  0.1432  0.4815
  177SLPC  H12A20127   5.925   0.977  11.250 -2.3746  0.2977 -0.5685
  177SLPC  H12B20128   5.897   0.893  11.099 -0.5053  2.3978  1.0499
  177SLPC   C1120129   6.097   0.866  11.181  0.3857 -0.1805  0.0707
  177SLPC  H11A20130   6.134   0.882  11.285  0.2517  1.2843 -0.0857
  177SLPC  H11B20131   6.147   0.944  11.119  0.1943 -0.5496 -0.5549
  177SLPC     P20132   6.165   0.686  10.993  0.1646 -0.0524 -0.1586
  177SLPC   O1320133   6.216   0.550  11.010 -0.4407  0.4878  0.5774
  177SLPC   O1420134   6.034   0.693  10.922  0.1892 -0.2218 -0.3057
  177SLPC   O1220135   6.141   0.738  11.138 -0.0409 -0.1934  0.1460
  177SLPC   O1120136   6.270   0.785  10.931 -0.1312 -0.4287  0.4193
  177SLPC    C120137   6.221   0.887  10.845  0.0196  0.5089  0.3657
  177SLPC    HA20138   6.129   0.937  10.883  0.2495  0.1374  1.4505
  177SLPC    HB20139   6.295   0.970  10.839  1.5284 -0.9011 -0.6708
  177SLPC    C220140   6.186   0.858  10.699 -0.3159  0.6039  0.4558
  177SLPC    HS20141   6.099   0.790  10.692  0.5264 -0.5465  0.9563
  177SLPC   O2120142   6.303   0.789  10.636 -0.2599  0.6088 -0.2563
  177SLPC   C2120143   6.281   0.712  10.528  0.2492  0.4143 -0.4709
  177SLPC   O2220144   6.167   0.682  10.495  0.0926  0.1178 -0.1250
  177SLPC   C2220145   6.405   0.685  10.457  0.0400 -0.0863  0.3368
  177SLPC   H2R20146   6.469   0.776  10.460  0.4236 -0.3552  0.3361
  177SLPC   H2S20147   6.460   0.613  10.522 -0.0209  0.0019  0.4852
  177SLPC    C320148   6.154   0.993  10.623  0.2450  0.2092 -0.0660
  177SLPC    HX20149   6.243   1.060  10.626 -1.0241  1.9900 -1.1360
  177SLPC    HY20150   6.080   1.044  10.687  1.8796  3.3093 -0.5420
  177SLPC   O3120151   6.125   0.961  10.483  0.1906  0.1399  0.4071
  177SLPC   C3120152   5.992   0.942  10.468 -0.0550 -0.2297  0.6318
  177SLPC   O3220153   5.916   0.938  10.562  0.5661 -0.1809 -0.0626
  177SLPC   C3220154   5.954   0.931  10.324  0.0723  0.7969  0.1728
  177SLPC   H2X20155   5.855   0.881  10.325  0.5818 -0.2724 -1.0552
  177SLPC   H2Y20156   6.024   0.865  10.269 -1.9415 -1.3469  0.1398
  177SLPC   C2320157   6.411   0.634  10.310 -0.0368 -0.4066  0.2360
  177SLPC   H3R20158   6.342   0.550  10.286 -1.8625  1.1226 -0.0367
  177SLPC   H3S20159   6.510   0.590  10.286 -1.4346 -2.0195 -2.9368
  177SLPC   C2420160   6.368   0.746  10.210 -0.0984 -0.0863 -0.2442
  177SLPC   H4R20161   6.443   0.827  10.225  0.2706 -1.0411  3.7686
  177SLPC   H4S20162   6.264   0.784  10.215  0.4267  1.3199  0.4138
  177SLPC   C2520163   6.381   0.682  10.068  0.0493  0.0419 -0.6011
  177SLPC   H5R20164   6.309   0.600  10.046 -0.1373 -0.3195  1.2279
  177SLPC   H5S20165   6.481   0.636  10.062  0.6748  1.2649  0.2524
  177SLPC   C2620166   6.383   0.782   9.951 -0.4662  0.7310  0.2469
  177SLPC   H6R20167   6.429   0.879   9.980 -0.4472  0.4870  1.0397
  177SLPC   H6S20168   6.281   0.811   9.918 -0.6894  0.6266  0.8482
  177SLPC   C2720169   6.461   0.720   9.828  0.2951 -0.0006  0.1564
  177SLPC   H7R20170   6.417   0.624   9.794  1.2355 -0.3582 -0.0714
  177SLPC   H7S20171   6.567   0.704   9.856  1.1572  0.6723 -2.5465
  177SLPC   C2820172   6.466   0.810   9.701  0.4079  0.3109 -0.0546
  177SLPC   H8R20173   6.507   0.910   9.723 -0.6295  0.5539  0.7930
  177SLPC   H8S20174   6.364   0.821   9.660  0.4172  0.2924 -0.0828
  177SLPC   C2920175   6.546   0.740   9.599 -0.3589 -0.0721 -0.1182
  177SLPC   H9R20176   6.588   0.642   9.626 -0.7191 -0.4145 -0.7937
  177SLPC  C21020177   6.593   0.798   9.486 -0.3651 -0.0920 -0.1826
  177SLPC  H10R20178   6.645   0.738   9.410  0.9057 -0.7278  1.1494
  177SLPC  C21120179   6.574   0.935   9.440 -0.0242 -0.4611 -0.3527
  177SLPC  H11R20180   6.508   0.934   9.350  3.1489 -0.1055 -2.7871
  177SLPC  H11S20181   6.521   0.999   9.513 -0.3587 -0.2728 -0.7587
  177SLPC  C21220182   6.713   0.986   9.402 -0.2588  0.6536  0.1648
  177SLPC  H12R20183   6.785   0.982   9.485 -0.2976  0.2424  0.1781
  177SLPC  C21320184   6.760   1.050   9.292 -0.4472 -0.1851 -0.0003
  177SLPC  H13R20185   6.864   1.081   9.306 -0.4143 -0.9478  1.5671
  177SLPC  C21420186   6.687   1.082   9.164  0.1350 -0.0830 -0.0615
  177SLPC  H14R20187   6.717   1.179   9.119 -2.9139 -1.0205 -4.4966
  177SLPC  H14S20188   6.580   1.101   9.187  0.2801  1.1222 -0.3304
  177SLPC  C21520189   6.703   0.988   9.043 -0.0046  0.4509  0.1801
  177SLPC  H15R20190   6.675   0.882   9.063  1.4457 -0.1001 -0.5928
  177SLPC  H15S20191   6.812   0.975   9.021 -0.0804 -1.1670  0.7229
  177SLPC  C21620192   6.628   1.025   8.916 -0.1912 -0.0220 -0.1850
  177SLPC  H16R20193   6.677   0.988   8.823  1.3126  0.3947  0.4131
  177SLPC  H16S20194   6.636   1.133   8.894 -2.4058  0.3868  0.9123
  177SLPC  C21720195   6.479   0.978   8.917  0.3434 -0.1955  0.5938
  177SLPC  H17R20196   6.408   1.056   8.953 -0.9090 -0.3714 -1.4155
  177SLPC  H17S20197   6.487   0.902   8.998  1.6526 -0.0448  0.6260
  177SLPC  C21820198   6.438   0.913   8.784  0.0088  0.2842  0.6338
  177SLPC  H18R20199   6.518   0.837   8.770  0.8252  1.4901 -1.4900
  177SLPC  H18S20200   6.432   0.992   8.706  2.8721 -0.9392 -0.9020
  177SLPC  H18T20201   6.348   0.848   8.777  0.3752 -0.1236 -0.4891
  177SLPC   C3320202   5.924   1.068  10.250 -0.5769  0.4122  0.3704
  177SLPC   H3X20203   6.024   1.115  10.261  0.0692 -0.7204 -0.4613
  177SLPC   H3Y20204   5.840   1.123  10.297  0.3946 -0.0219  2.6612
  177SLPC   C3420205   5.889   1.049  10.105 -0.0286 -0.2275  0.6646
  177SLPC   H4X20206   5.792   0.997  10.115 -1.0382  0.7001 -3.5541
  177SLPC   H4Y20207   5.961   0.990  10.044 -0.6366  0.8412 -1.1381
  177SLPC   C3520208   5.857   1.187  10.032 -0.7760 -0.1078 -0.2206
  177SLPC   H5X20209   5.942   1.253  10.058  0.1830 -0.7078 -1.7616
  177SLPC   H5Y20210   5.763   1.222  10.079 -1.2782 -1.3476 -0.2876
  177SLPC   C3620211   5.837   1.170   9.880 -0.3813  0.0985 -0.0377
  177SLPC   H6X20212   5.747   1.106   9.865 -1.2592  1.5204 -0.9715
  177SLPC   H6Y20213   5.922   1.116   9.833  1.0516  2.6494 -0.4651
  177SLPC   C3720214   5.811   1.294   9.798 -0.1766  0.0913 -1.1705
  177SLPC   H7X20215   5.876   1.380   9.823 -0.1623 -0.0941 -0.5699
  177SLPC   H7Y20216   5.707   1.329   9.815  0.0294 -0.6557  1.9533
  177SLPC   C3820217   5.822   1.264   9.653  0.2650 -0.0790  0.6048
  177SLPC   H8X20218   5.758   1.180   9.618  1.0261 -0.3886 -0.0559
  177SLPC   H8Y20219   5.925   1.245   9.617  0.8433 -0.8509  2.6180
  177SLPC   C3920220   5.771   1.385   9.574  0.4125 -0.2199  0.0719
  177SLPC   H9X20221   5.832   1.472   9.606  1.9031 -1.2704  0.1220
  177SLPC   H9Y20222   5.665   1.413   9.593  0.4213  0.6974 -1.1614
  177SLPC  C31020223   5.800   1.378   9.422  0.6980  0.3264  1.2307
  177SLPC  H10X20224   5.768   1.280   9.379  2.5178  0.1199  0.3142
  177SLPC  H10Y20225   5.910   1.372   9.409  0.6534 -0.6834  1.2901
  177SLPC  C31120226   5.740   1.490   9.347  0.3447  0.0113  0.2496
  177SLPC  H11X20227   5.755   1.583   9.408 -0.4547 -0.9564  1.9550
  177SLPC  H11Y20228   5.631   1.474   9.332  0.7187 -0.9305 -1.5519
  177SLPC  C31220229   5.792   1.515   9.201  0.0260  0.0689 -0.6022
  177SLPC  H12X20230   5.801   1.416   9.151  0.7862  0.6696 -1.6862
  177SLPC  H12Y20231   5.899   1.543   9.213 -0.1511  1.1555 -1.4346
  177SLPC  C31320232   5.703   1.611   9.124 -0.6303 -0.5640  0.2057
  177SLPC  H13X20233   5.597   1.577   9.126 -0.7359 -0.2262  0.2508
  177SLPC  H13Y20234   5.731   1.606   9.017  2.3781  2.7680  0.7471
  177SLPC  C31420235   5.706   1.762   9.161 -0.1488  0.5456 -0.1181
  177SLPC  H14X20236   5.799   1.792   9.110 -0.2040  2.0020  0.6144
  177SLPC  H14Y20237   5.708   1.776   9.271 -0.5087  0.7301 -0.1343
  177SLPC  C31520238   5.585   1.846   9.107  0.3170  0.3237 -0.3272
  177SLPC  H15X20239   5.492   1.809   9.156  0.9406  2.1228  2.3261
  177SLPC  H15Y20240   5.574   1.826   8.998 -0.3957 -1.9833  0.1596
  177SLPC  C31620241   5.601   1.995   9.139  0.4107  0.1695 -0.2942
  177SLPC  H16X20242   5.552   2.051   9.056 -0.3926 -0.5989 -0.3539
  177SLPC  H16Y20243   5.707   2.025   9.132  1.1166 -1.3779  2.8029
  177SLPC  C31720244   5.540   2.031   9.277 -0.4878 -0.0677  0.5316
  177SLPC  H17X20245   5.578   1.964   9.357 -0.6222  0.9067  1.4241
  177SLPC  H17Y20246   5.429   2.027   9.279 -0.4441 -1.6224  1.1944
  177SLPC  C31820247   5.584   2.169   9.322 -0.3133 -0.1386 -0.2075
  177SLPC  H18X20248   5.557   2.186   9.428 -1.1790  0.2208 -0.4763
  177SLPC  H18Y20249   5.526   2.246   9.266 -2.9879 -0.0036  2.5922
  177SLPC  H18Z20250   5.694   2.174   9.310 -0.2734  1.2318  0.6568
  178SLPC     N20251   1.615   2.999  10.884 -0.4519  0.8414  0.3611
  178SLPC   C1320252   1.690   3.039  11.008 -0.0874 -0.5456  0.4394
  178SLPC  H13A20253   1.688   3.146  11.020 -1.7031 -0.4455 -0.4614
  178SLPC  H13B20254   1.634   2.998  11.091 -0.4870 -1.1067 -0.0942
  178SLPC  H13C20255   1.786   2.991  11.017  0.1595  0.0075  0.7167
  178SLPC   C1420256   1.479   3.052  10.881 -0.1982 -0.1967 -0.1961
  178SLPC  H14A20257   1.426   3.042  10.974  0.6571 -0.0651  0.3030
  178SLPC  H14B20258   1.494   3.156  10.855 -0.4161 -0.0404  0.3080
  178SLPC  H14C20259   1.422   3.006  10.801 -4.1521  0.0030  2.3775
  178SLPC   C1520260   1.597   2.855  10.876 -0.0903  0.0578 -0.5711
  178SLPC  H15A20261   1.570   2.825  10.776  1.4642  0.7807 -1.2187
  178SLPC  H15B20262   1.685   2.795  10.893 -0.7724 -0.1098  2.7859
  178SLPC  H15C20263   1.519   2.822  10.943  0.5877 -1.2541 -0.4165
  178SLPC   C1220264   1.698   3.055  10.775  0.0030  0.0442  0.6489
  178SLPC  H12A20265   1.641   3.034  10.686  2.0064 -0.8981 -0.4405
  178SLPC  H12B20266   1.785   2.992  10.776 -1.6629 -2.3312  0.0075
  178SLPC   C1120267   1.750   3.202  10.775 -0.7716  0.1539  0.4609
  178SLPC  H11A20268   1.806   3.216  10.680  1.0359 -0.4264  1.4126
  178SLPC  H11B20269   1.833   3.194  10.848  1.0098  2.4361 -1.2636
  178SLPC     P20270   1.667   3.405  10.904 -0.2403  0.0640 -0.2800
  178SLPC   O1320271   1.548   3.490  10.919  0.5781 -0.2512  0.0226
  178SLPC   O1420272   1.726   3.344  11.021 -0.2723  0.0841  0.5235
  178SLPC   O1220273   1.642   3.296  10.794  0.8902 -0.0818  0.0343
  178SLPC   O1120274   1.787   3.495  10.841 -0.2773 -0.2984 -0.4863
  178SLPC    C120275   1.751   3.603  10.758  0.5809  0.5137  0.0494
  178SLPC    HA20276   1.661   3.654  10.800  1.5541  0.7110  1.9718
  178SLPC    HB20277   1.835   3.675  10.749  1.5750 -0.7779 -1.2323
  178SLPC    C220278   1.711   3.557  10.617  0.9081  0.7001  0.4130
  178SLPC    HS20279   1.636   3.475  10.614  0.2311  1.3716 -2.2073
  178SLPC   O2120280   1.832   3.510  10.555 -0.1367 -0.9830 -0.0029
  178SLPC   C2120281   1.801   3.438  10.445  0.2808 -0.2340  0.6198
  178SLPC   O2220282   1.687   3.394  10.418 -0.4675  0.1625  0.5409
  178SLPC   C2220283   1.927   3.403  10.367 -0.4682 -0.0285  0.3749
  178SLPC   H2R20284   2.007   3.393  10.444  0.0997 -1.2058 -0.3588
  178SLPC   H2S20285   1.916   3.304  10.318 -0.2313  1.5694 -3.0604
  178SLPC    C320286   1.641   3.676  10.531 -0.4029  0.3960 -0.0195
  178SLPC    HX20287   1.719   3.744  10.491 -1.0973  2.4388  1.9840
  178SLPC    HY20288   1.568   3.720  10.602  1.3309  0.0797  2.0285
  178SLPC   O3120289   1.563   3.629  10.417  0.1164 -0.0440  0.3689
  178SLPC   C3120290   1.455   3.541  10.446  0.2847 -0.3222  0.5400
  178SLPC   O3220291   1.411   3.511  10.553 -0.6014 -0.4162 -0.2696
  178SLPC   C3220292   1.399   3.488  10.316 -0.1226  0.1075 -1.1474
  178SLPC   H2X20293   1.289   3.479  10.330  0.2859 -3.1448  0.6600
  178SLPC   H2Y20294   1.444   3.386  10.304 -2.3322 -0.8860 -1.2119
  178SLPC   C2320295   1.968   3.516  10.270  0.1750  0.3285  0.4724
  178SLPC   H3R20296   2.078   3.507  10.257  0.3205 -0.9291  2.4112
  178SLPC   H3S20297   1.950   3.617  10.310  1.6399  0.2417  1.4181
  178SLPC   C2420298   1.917   3.506  10.125  0.5548 -0.4340 -0.2110
  178SLPC   H4R20299   1.820   3.453  10.130 -0.1276  0.7865 -0.5043
  178SLPC   H4S20300   1.990   3.451  10.061 -0.6409 -0.3063 -1.7056
  178SLPC   C2520301   1.892   3.638  10.057  0.3101  0.0734  0.6201
  178SLPC   H5R20302   1.988   3.691  10.037  0.7088 -0.9237 -0.1501
  178SLPC   H5S20303   1.837   3.699  10.131 -0.2643  2.3306 -1.5753
  178SLPC   C2620304   1.814   3.606   9.926 -0.0881  0.4950 -0.7435
  178SLPC   H6R20305   1.723   3.547   9.948  0.8770 -0.6163  0.3377
  178SLPC   H6S20306   1.876   3.540   9.862 -0.5750 -1.6685  0.9586
  178SLPC   C2720307   1.771   3.725   9.843  0.4079 -0.0695 -1.1825
  178SLPC   H7R20308   1.861   3.771   9.797  1.6899 -3.0077 -1.6833
  178SLPC   H7S20309   1.715   3.793   9.911 -1.0156 -2.4316  0.0537
  178SLPC   C2820310   1.668   3.697   9.735  0.2325 -1.0498  0.0517
  178SLPC   H8R20311   1.627   3.794   9.702  0.7233 -1.2720 -1.2115
  178SLPC   H8S20312   1.586   3.634   9.775 -0.3392  1.1441  2.4632
  178SLPC   C2920313   1.725   3.618   9.623  0.0325 -0.0603 -0.1371
  178SLPC   H9R20314   1.754   3.518   9.657  0.3930 -0.5957 -1.9911
  178SLPC  C21020315   1.736   3.653   9.494 -0.0171  0.1565 -0.2526
  178SLPC  H10R20316   1.780   3.580   9.425 -2.8648 -0.3500 -1.5801
  178SLPC  C21120317   1.699   3.777   9.421 -0.3560 -0.1780 -0.7480
  178SLPC  H11R20318   1.794   3.831   9.401 -0.0327 -0.0827  0.9310
  178SLPC  H11S20319   1.634   3.845   9.481  0.6065  0.2542 -0.1698
  178SLPC  C21220320   1.613   3.743   9.305 -0.6303  0.8127 -0.2681
  178SLPC  H12R20321   1.555   3.650   9.301 -1.1509  1.1762 -1.1384
  178SLPC  C21320322   1.599   3.819   9.193 -0.0333 -0.6550 -0.1384
  178SLPC  H13R20323   1.528   3.773   9.123 -0.0888 -1.3152  0.3490
  178SLPC  C21420324   1.654   3.953   9.165 -0.4206  0.0997  0.0287
  178SLPC  H14R20325   1.750   3.986   9.212  0.5903 -1.7823 -0.6657
  178SLPC  H14S20326   1.576   4.027   9.193 -1.7020 -0.5503 -1.7420
  178SLPC  C21520327   1.684   3.977   9.017  0.2914 -0.2744  0.9549
  178SLPC  H15R20328   1.681   4.082   8.981 -1.2773 -0.4283  0.6161
  178SLPC  H15S20329   1.603   3.925   8.962  0.1106  1.1089 -0.1051
  178SLPC  C21620330   1.816   3.914   8.979 -0.0608  0.0318 -0.1009
  178SLPC  H16R20331   1.815   3.897   8.869  2.3900 -0.2372 -0.1106
  178SLPC  H16S20332   1.824   3.818   9.035 -1.2559 -0.5238 -0.8735
  178SLPC  C21720333   1.938   4.002   9.020  0.8502 -0.4172  0.0127
  178SLPC  H17R20334   1.947   3.995   9.131  3.1029  0.5175 -0.0881
  178SLPC  H17S20335   1.913   4.105   8.988  0.2114 -1.3024 -2.4143
  178SLPC  C21820336   2.071   3.952   8.964 -0.4565  0.6963 -0.0265
  178SLPC  H18R20337   2.088   3.845   8.986 -0.4734  0.9881  1.4484
  178SLPC  H18S20338   2.166   3.992   9.005 -0.5207 -0.2321  1.0390
  178SLPC  H18T20339   2.088   3.965   8.855  2.5733 -0.9558  0.1907
  178SLPC   C3320340   1.441   3.566  10.190 -0.1432 -0.1754 -0.0088
  178SLPC   H3X20341   1.550   3.547  10.192 -0.3595 -2.0782 -2.6155
  178SLPC   H3Y20342   1.404   3.671  10.189 -0.7413 -0.3814 -0.3293
  178SLPC   C3420343   1.381   3.497  10.064  0.0200  0.2463  1.0713
  178SLPC   H4X20344   1.288   3.440  10.088 -0.7962  1.6952  1.3896
  178SLPC   H4Y20345   1.456   3.423  10.028 -1.1225 -0.8717  0.9579
  178SLPC   C3520346   1.348   3.595   9.952 -0.0683 -0.1121 -0.7314
  178SLPC   H5X20347   1.413   3.682   9.931 -0.2538 -0.6988 -4.0780
  178SLPC   H5Y20348   1.242   3.624   9.972 -0.1864 -1.5247  0.7825
  178SLPC   C3620349   1.344   3.522   9.819  0.3959 -0.1834  0.3468
  178SLPC   H6X20350   1.270   3.439   9.827  1.9298 -1.5767  0.2212
  178SLPC   H6Y20351   1.441   3.470   9.805 -0.2048 -0.9494 -1.0032
  178SLPC   C3720352   1.307   3.609   9.697 -0.5682  0.1545  0.3642
  178SLPC   H7X20353   1.385   3.683   9.670  1.2598 -1.6765  0.4552
  178SLPC   H7Y20354   1.212   3.665   9.706 -1.1085 -0.6856  0.0287
  178SLPC   C3820355   1.311   3.513   9.572 -0.4416  0.2217  0.6177
  178SLPC   H8X20356   1.232   3.436   9.585  1.0390 -1.6610 -1.2869
  178SLPC   H8Y20357   1.408   3.459   9.570 -1.6475 -2.0610  2.1958
  178SLPC   C3920358   1.280   3.587   9.438 -0.0055  0.6796  0.8525
  178SLPC   H9X20359   1.345   3.676   9.426 -1.3718  1.4853 -0.7818
  178SLPC   H9Y20360   1.172   3.616   9.443 -0.8559 -2.0816 -0.5390
  178SLPC  C31020361   1.296   3.478   9.327  0.0001  0.4601 -0.6496
  178SLPC  H10X20362   1.235   3.385   9.337  1.4489 -0.3394  0.8783
  178SLPC  H10Y20363   1.401   3.443   9.327 -0.0371  0.3375 -1.5277
  178SLPC  C31120364   1.255   3.525   9.184 -0.1967  0.3584  0.5580
  178SLPC  H11X20365   1.311   3.618   9.160 -0.2564  0.3388  0.3451
  178SLPC  H11Y20366   1.146   3.543   9.173 -0.1232 -0.6800 -2.2133
  178SLPC  C31220367   1.303   3.415   9.078  0.4043 -0.4093  0.3457
  178SLPC  H12X20368   1.258   3.314   9.085 -1.3468  0.2860 -0.5977
  178SLPC  H12Y20369   1.410   3.391   9.096 -0.0773 -1.4825  1.8032
  178SLPC  C31320370   1.294   3.461   8.928 -0.3408 -0.0385  0.1292
  178SLPC  H13X20371   1.191   3.445   8.890  0.8701 -1.9393 -2.5339
  178SLPC  H13Y20372   1.355   3.384   8.876  2.4296  2.1292  0.0152
  178SLPC  C31420373   1.342   3.607   8.894 -0.7267 -0.0539 -0.1675
  178SLPC  H14X20374   1.448   3.607   8.928  0.2060  0.5140 -2.9203
  178SLPC  H14Y20375   1.287   3.670   8.967 -1.4628  0.2460 -0.9748
  178SLPC  C31520376   1.295   3.665   8.757 -0.0443  0.0563  0.2945
  178SLPC  H15X20377   1.184   3.662   8.760 -0.1254 -0.8679 -2.3778
  178SLPC  H15Y20378   1.339   3.762   8.728  0.7515 -0.6564 -0.9432
  178SLPC  C31620379   1.326   3.575   8.636 -0.6534 -0.1781  0.3690
  178SLPC  H16X20380   1.310   3.468   8.657 -1.8610 -0.0233  0.2614
  178SLPC  H16Y20381   1.430   3.593   8.602 -0.3744  1.3449  1.9472
  178SLPC  C31720382   1.241   3.623   8.517 -0.3973 -0.0818  0.7184
  178SLPC  H17X20383   1.256   3.733   8.508 -3.5083  0.5155  2.2086
  178SLPC  H17Y20384   1.131   3.609   8.525 -0.3340 -1.3092 -0.3391
  178SLPC  C31820385   1.289   3.574   8.382  0.0113 -0.4926 -0.3453
  178SLPC  H18X20386   1.279   3.661   8.313  1.1157 -1.2086 -1.4338
  178SLPC  H18Y20387   1.241   3.482   8.344  3.6862 -2.5167 -0.3428
  178SLPC  H18Z20388   1.400   3.565   8.381  0.2604  1.7763  1.8381
  179SLPC     N20389   3.333   6.156  10.290 -0.1785  0.3357  1.0471
  179SLPC   C1320390   3.339   6.265  10.194  0.3135 -0.5673 -0.1186
  179SLPC  H13A20391   3.419   6.335  10.215  1.5018 -1.9874  0.1039
  179SLPC  H13B20392   3.364   6.218  10.100 -0.3507 -1.0250 -0.0618
  179SLPC  H13C20393   3.246   6.319  10.196  0.2666 -0.6702  0.9876
  179SLPC   C1420394   3.454   6.073  10.269 -0.4205 -0.2943  0.0839
  179SLPC  H14A20395   3.541   6.121  10.312 -0.3015 -1.7288  1.4917
  179SLPC  H14B20396   3.441   5.981  10.325 -0.1246  0.4301  1.3702
  179SLPC  H14C20397   3.474   6.051  10.165  0.6308  0.0983  0.1932
  179SLPC   C1520398   3.211   6.087  10.234 -0.0646 -0.3906 -0.9884
  179SLPC  H15A20399   3.204   5.987  10.272  2.0452 -1.0973 -2.3948
  179SLPC  H15B20400   3.123   6.144  10.262 -0.4904 -0.3427 -2.3744
  179SLPC  H15C20401   3.226   6.082  10.127  0.1925  1.2222 -1.0418
  179SLPC   C1220402   3.328   6.209  10.425 -0.4110  0.5222 -0.1057
  179SLPC  H12A20403   3.409   6.276  10.447 -1.0421  2.4536 -3.2974
  179SLPC  H12B20404   3.338   6.130  10.498 -1.2105 -0.9306 -1.5172
  179SLPC   C1120405   3.200   6.293  10.468  0.8139  1.0794  0.5444
  179SLPC  H11A20406   3.132   6.222  10.520  1.0010 -0.7453 -1.6074
  179SLPC  H11B20407   3.141   6.326  10.380 -1.5179  0.4847  1.8528
  179SLPC     P20408   3.287   6.530  10.478 -0.1153 -0.0330  0.2096
  179SLPC   O1320409   3.270   6.633  10.584  0.4102 -0.2434  0.1649
  179SLPC   O1420410   3.417   6.505  10.425  0.0835  0.3328  0.1335
  179SLPC   O1220411   3.233   6.401  10.554 -0.1356 -0.4335  0.0366
  179SLPC   O1120412   3.188   6.562  10.365 -1.0026  0.3332 -0.3830
  179SLPC    C120413   3.060   6.629  10.376 -0.3852 -0.1812 -0.9008
  179SLPC    HA20414   2.990   6.577  10.445 -0.0847  1.4458  0.6787
  179SLPC    HB20415   3.067   6.735  10.407  0.3950 -0.2778 -0.7574
  179SLPC    C220416   2.993   6.616  10.240 -0.7008  0.0800  0.0628
  179SLPC    HS20417   2.962   6.511  10.223  0.7741 -0.4143  0.3109
  179SLPC   O2120418   3.072   6.673  10.131  0.2042  0.1463 -0.0106
  179SLPC   C2120419   3.145   6.589  10.056  0.4826 -1.0198 -0.3644
  179SLPC   O2220420   3.132   6.467  10.058 -0.2193  0.7045  0.5115
  179SLPC   C2220421   3.246   6.664   9.985 -0.0467  0.4069  0.7028
  179SLPC   H2R20422   3.219   6.771   9.969  2.6074  0.8839 -0.8964
  179SLPC   H2S20423   3.338   6.664  10.047  2.9032  1.0588 -3.4299
  179SLPC    C320424   2.861   6.709  10.248  0.2172  0.1431 -1.3820
  179SLPC    HX20425   2.885   6.808  10.292  2.7315 -0.6570 -0.9152
  179SLPC    HY20426   2.799   6.663  10.328  1.2537  0.2372 -0.5106
  179SLPC   O3120427   2.802   6.721  10.117  0.4627  0.2989 -0.1781
  179SLPC   C3120428   2.770   6.836  10.067 -0.7824 -0.1932 -0.0850
  179SLPC   O3220429   2.779   6.944  10.124  0.2715  0.5246  0.5606
  179SLPC   C3220430   2.714   6.818   9.924  0.0114  0.7539 -0.2116
  179SLPC   H2X20431   2.607   6.797   9.944  0.1894  1.4009  1.4968
  179SLPC   H2Y20432   2.754   6.722   9.886 -1.4226 -1.5427  3.8274
  179SLPC   C2320433   3.261   6.618   9.836  0.8170 -0.1871 -0.1184
  179SLPC   H3R20434   3.161   6.614   9.788  0.8917  0.1984 -0.3073
  179SLPC   H3S20435   3.295   6.512   9.833 -0.1276 -0.4832 -0.8353
  179SLPC   C2420436   3.356   6.697   9.750  0.3194 -0.5349  0.0735
  179SLPC   H4R20437   3.459   6.664   9.776  0.6015 -0.1492 -0.5437
  179SLPC   H4S20438   3.341   6.799   9.792 -0.5774  0.3022 -2.1447
  179SLPC   C2520439   3.312   6.687   9.603 -0.4077 -0.3135  0.1010
  179SLPC   H5R20440   3.220   6.749   9.592  0.3852  1.3405  2.4924
  179SLPC   H5S20441   3.300   6.580   9.577 -0.7618  0.0529 -1.3115
  179SLPC   C2620442   3.419   6.748   9.517  0.5514  0.3050 -0.2637
  179SLPC   H6R20443   3.443   6.852   9.546  3.0872 -0.3679  0.1687
  179SLPC   H6S20444   3.371   6.754   9.417  0.0079 -1.2351 -0.1155
  179SLPC   C2720445   3.549   6.666   9.522 -0.0504  0.3236 -0.0963
  179SLPC   H7R20446   3.523   6.558   9.516  0.6204  0.2226 -1.2914
  179SLPC   H7S20447   3.597   6.679   9.622  1.4732  0.6092 -0.8573
  179SLPC   C2820448   3.649   6.710   9.407 -0.3650  0.7737 -0.0560
  179SLPC   H8R20449   3.731   6.635   9.412  0.1942  1.3512 -0.6050
  179SLPC   H8S20450   3.695   6.807   9.433 -1.0839  0.7588  1.2998
  179SLPC   C2920451   3.586   6.696   9.271  0.4576 -0.4096  0.7631
  179SLPC   H9R20452   3.503   6.625   9.264  0.1269  0.1277 -1.0230
  179SLPC  C21020453   3.625   6.754   9.154  0.3499  0.0615  0.8529
  179SLPC  H10R20454   3.570   6.731   9.061  1.4304 -0.7632  0.4168
  179SLPC  C21120455   3.736   6.852   9.135  1.0252 -0.0080 -0.7378
  179SLPC  H11R20456   3.802   6.839   9.223 -0.2681 -0.8052  0.1262
  179SLPC  H11S20457   3.698   6.956   9.142  1.0484 -0.1057  1.0062
  179SLPC  C21220458   3.809   6.822   9.010  0.2858  0.0463 -0.0176
  179SLPC  H12R20459   3.844   6.718   9.009 -0.4415 -0.2726  3.3149
  179SLPC  C21320460   3.806   6.896   8.893  0.5701  0.1807  0.7647
  179SLPC  H13R20461   3.861   6.858   8.805 -1.7207  0.6421 -0.9159
  179SLPC  C21420462   3.732   7.023   8.862  0.6429 -0.1237 -1.0292
  179SLPC  H14R20463   3.748   7.094   8.946  3.8147 -0.7427 -1.0788
  179SLPC  H14S20464   3.622   7.008   8.867  0.6098  0.6018  0.9519
  179SLPC  C21520465   3.776   7.103   8.739  0.1064 -0.3506  0.5424
  179SLPC  H15R20466   3.718   7.197   8.726 -0.0427 -0.3244  1.3302
  179SLPC  H15S20467   3.761   7.040   8.649 -0.4284  1.9745 -1.0547
  179SLPC  C21620468   3.927   7.136   8.743 -0.1715 -0.3669 -0.8828
  179SLPC  H16R20469   3.982   7.039   8.738 -1.3126 -1.0474 -0.2800
  179SLPC  H16S20470   3.948   7.193   8.836  2.2473 -1.0749 -0.9486
  179SLPC  C21720471   3.954   7.237   8.627  0.8219 -0.1140  0.3684
  179SLPC  H17R20472   3.901   7.329   8.657  1.7556  0.2959  0.7709
  179SLPC  H17S20473   3.917   7.202   8.528 -3.4790  0.7666  1.6093
  179SLPC  C21820474   4.101   7.284   8.614 -0.1036 -0.6871  0.4726
  179SLPC  H18R20475   4.107   7.383   8.565  1.0060 -1.8238 -1.7597
  179SLPC  H18S20476   4.159   7.224   8.540  0.9052  0.5363  0.2529
  179SLPC  H18T20477   4.149   7.295   8.714 -0.4958 -1.3139  0.7356
  179SLPC   C3320478   2.733   6.942   9.829  0.2315  1.0333  0.3619
  179SLPC   H3X20479   2.840   6.964   9.806  0.2254  1.2547  0.5453
  179SLPC   H3Y20480   2.688   7.033   9.874 -4.0659 -0.4406 -0.7488
  179SLPC   C3420481   2.676   6.913   9.690 -0.0253  0.0977 -0.5892
  179SLPC   H4X20482   2.565   6.922   9.697  0.2159  2.5283  0.9860
  179SLPC   H4Y20483   2.704   6.810   9.661 -1.2254  0.0223 -1.5200
  179SLPC   C3520484   2.720   7.013   9.580  0.1015 -0.1707 -0.5058
  179SLPC   H5X20485   2.644   7.008   9.498 -1.0127 -1.3627  0.5876
  179SLPC   H5Y20486   2.823   6.985   9.549 -0.0682 -0.9477 -0.3671
  179SLPC   C3620487   2.748   7.165   9.623 -0.2570 -0.4458  0.3472
  179SLPC   H6X20488   2.841   7.176   9.683 -0.9336 -1.5008  1.6194
  179SLPC   H6Y20489   2.666   7.197   9.691 -0.2677 -0.2713  0.2518
  179SLPC   C3720490   2.752   7.259   9.504 -0.1023  0.2672  0.4344
  179SLPC   H7X20491   2.738   7.362   9.544  0.7837  0.1123  1.1496
  179SLPC   H7Y20492   2.670   7.229   9.435  1.0218 -0.9316 -0.4023
  179SLPC   C3820493   2.893   7.250   9.438 -0.3453 -0.3089  0.3366
  179SLPC   H8X20494   2.929   7.145   9.428 -0.8902 -0.5788  1.1581
  179SLPC   H8Y20495   2.959   7.304   9.509 -0.6891 -2.1140  2.0798
  179SLPC   C3920496   2.917   7.312   9.298  0.5824 -0.9522  0.1369
  179SLPC   H9X20497   2.855   7.403   9.305  0.3251 -1.1650  0.6972
  179SLPC   H9Y20498   2.881   7.237   9.225  0.1985  0.3612 -1.0355
  179SLPC  C31020499   3.055   7.354   9.256  0.1731 -0.5087  0.0582
  179SLPC  H10X20500   3.127   7.271   9.242 -1.5239 -1.7456 -1.6552
  179SLPC  H10Y20501   3.090   7.416   9.341 -2.5309  0.9894  0.1394
  179SLPC  C31120502   3.061   7.410   9.117 -0.9314  0.2415  0.0567
  179SLPC  H11X20503   3.143   7.484   9.126 -0.0733 -0.4903 -1.5696
  179SLPC  H11Y20504   2.973   7.475   9.094 -0.1576  0.3740 -2.6991
  179SLPC  C31220505   3.096   7.297   9.021  0.3301 -0.3149 -0.0086
  179SLPC  H12X20506   3.032   7.209   9.043 -1.3786  0.7686 -0.5153
  179SLPC  H12Y20507   3.203   7.268   9.032  0.8804  0.9378 -1.8743
  179SLPC  C31320508   3.083   7.343   8.872  1.1590 -0.1327  0.5955
  179SLPC  H13X20509   3.161   7.420   8.853  3.5670 -1.9685  2.7062
  179SLPC  H13Y20510   2.985   7.392   8.854  0.4689 -1.1301  1.5875
  179SLPC  C31420511   3.094   7.225   8.774  0.1444 -0.8487 -0.4733
  179SLPC  H14X20512   3.004   7.162   8.791 -0.6930  1.0089  2.0892
  179SLPC  H14Y20513   3.185   7.166   8.800 -0.4180 -1.5238 -0.0551
  179SLPC  C31520514   3.089   7.279   8.627  0.1043  0.2263  0.1810
  179SLPC  H15X20515   3.098   7.188   8.563 -2.8937 -0.0310  0.0789
  179SLPC  H15Y20516   3.170   7.351   8.605 -1.1458  1.4463 -0.4602
  179SLPC  C31620517   2.950   7.345   8.587 -0.4643 -0.3973  0.1628
  179SLPC  H16X20518   2.963   7.371   8.480  1.8619 -0.8809  0.2993
  179SLPC  H16Y20519   2.946   7.437   8.648  2.4376  0.0649 -0.2797
  179SLPC  C31720520   2.819   7.270   8.613 -0.2092  0.0949  0.4550
  179SLPC  H17X20521   2.737   7.325   8.563  0.4304  0.7112  0.0825
  179SLPC  H17Y20522   2.797   7.250   8.720 -0.8610 -0.6248  0.1929
  179SLPC  C31820523   2.827   7.132   8.538 -0.5922 -0.5647 -0.1889
  179SLPC  H18X20524   2.854   7.144   8.431  1.0968 -2.1263  0.0493
  179SLPC  H18Y20525   2.732   7.076   8.550 -0.2599 -1.2074 -0.5242
  179SLPC  H18Z20526   2.909   7.071   8.581  1.2958  0.8635 -1.6460
  180SLPC     N20527   4.187   3.989  11.104 -0.7382 -0.3162 -1.0124
  180SLPC   C1320528   4.185   4.116  11.179 -0.5838 -0.2836  0.6400
  180SLPC  H13A20529   4.269   4.181  11.158 -0.6884 -0.9550 -2.0163
  180SLPC  H13B20530   4.101   4.182  11.167  1.1308  2.1970  1.7289
  180SLPC  H13C20531   4.191   4.086  11.283 -0.2283 -1.8831  0.1748
  180SLPC   C1420532   4.078   3.908  11.164 -0.0161 -0.2530 -0.4404
  180SLPC  H14A20533   4.096   3.887  11.269 -2.4366 -4.2070 -0.7379
  180SLPC  H14B20534   3.988   3.962  11.139  0.1385 -0.2268 -0.9364
  180SLPC  H14C20535   4.089   3.812  11.117 -2.1062 -0.9509  0.4621
  180SLPC   C1520536   4.316   3.926  11.138  0.0021  0.5860 -0.2201
  180SLPC  H15A20537   4.350   3.924  11.241  1.1550 -0.4080 -0.6010
  180SLPC  H15B20538   4.324   3.825  11.100 -1.0102 -0.8257  3.1160
  180SLPC  H15C20539   4.391   3.982  11.084 -0.7658  1.6093 -0.2392
  180SLPC   C1220540   4.163   4.014  10.961  0.2010 -0.1388 -0.2633
  180SLPC  H12A20541   4.072   4.070  10.945  0.8944  0.3865 -2.4884
  180SLPC  H12B20542   4.151   3.924  10.903  0.9207 -0.0191 -0.6045
  180SLPC   C1120543   4.269   4.089  10.879 -0.5430  0.2743 -0.4299
  180SLPC  H11A20544   4.304   4.185  10.921  1.3229 -0.9959  0.9963
  180SLPC  H11B20545   4.221   4.131  10.788 -3.0621  0.9972  1.1767
  180SLPC     P20546   4.397   3.918  10.726  0.3498 -0.2336  0.0233
  180SLPC   O1320547   4.535   3.863  10.745  0.1998 -0.4095  0.1252
  180SLPC   O1420548   4.287   3.816  10.731 -0.3586  0.0961  0.5245
  180SLPC   O1220549   4.383   4.008  10.858 -0.6415 -0.6578  0.4521
  180SLPC   O1120550   4.393   4.001  10.592 -0.1750 -0.2813 -0.0905
  180SLPC    C120551   4.514   4.059  10.535 -0.0959 -0.6415 -0.0065
  180SLPC    HA20552   4.603   3.992  10.540 -0.8479 -1.4673  3.5406
  180SLPC    HB20553   4.503   4.081  10.427 -1.0456 -0.6137  0.0940
  180SLPC    C220554   4.537   4.192  10.604  0.0215 -0.3498  0.3063
  180SLPC    HS20555   4.561   4.177  10.711 -0.2889  0.8518  0.5512
  180SLPC   O2120556   4.418   4.271  10.578 -0.6344 -0.4355  0.0027
  180SLPC   C2120557   4.393   4.359  10.664  0.3422 -0.2564 -0.6414
  180SLPC   O2220558   4.459   4.385  10.764  0.5624 -0.1722 -0.1304
  180SLPC   C2220559   4.249   4.410  10.642 -0.7993  0.3241  0.8556
  180SLPC   H2R20560   4.196   4.369  10.553  0.4644  0.9468 -0.1918
  180SLPC   H2S20561   4.191   4.380  10.732 -3.7172  1.5696 -0.5353
  180SLPC    C320562   4.662   4.262  10.545  0.0534 -0.3530 -0.3426
  180SLPC    HX20563   4.759   4.220  10.579  0.2702  0.1362 -0.3470
  180SLPC    HY20564   4.664   4.358  10.601 -0.8516 -0.6130  0.1294
  180SLPC   O3120565   4.664   4.285  10.402 -0.0192  0.1989 -0.0619
  180SLPC   C3120566   4.603   4.390  10.351 -0.9261  0.1787  0.4272
  180SLPC   O3220567   4.546   4.481  10.403  0.7408 -0.1584  0.2292
  180SLPC   C3220568   4.622   4.384  10.196 -1.1522 -0.2863  0.3608
  180SLPC   H2X20569   4.732   4.395  10.187 -1.3133  1.0481 -0.1257
  180SLPC   H2Y20570   4.575   4.469  10.141  0.5402  0.8500  0.6460
  180SLPC   C2320571   4.258   4.565  10.633 -0.4171  0.2942  0.1575
  180SLPC   H3R20572   4.344   4.609  10.579 -0.3958  1.1625  0.8780
  180SLPC   H3S20573   4.272   4.619  10.729 -1.2737  0.1290  0.3782
  180SLPC   C2420574   4.124   4.614  10.575 -0.4774  0.1099  0.1742
  180SLPC   H4R20575   4.110   4.721  10.599 -1.7229  0.3413 -1.5296
  180SLPC   H4S20576   4.044   4.557  10.627 -1.8850  1.4383 -0.4990
  180SLPC   C2520577   4.107   4.591  10.426  0.2797  0.1466 -0.3166
  180SLPC   H5R20578   4.026   4.656  10.386 -0.0235  1.5583  2.4610
  180SLPC   H5S20579   4.088   4.483  10.410 -3.9362  0.1609  3.5602
  180SLPC   C2620580   4.224   4.618  10.332  0.0316 -0.3222  0.0114
  180SLPC   H6R20581   4.307   4.547  10.356  2.1267  1.3356 -2.0913
  180SLPC   H6S20582   4.257   4.724  10.335  0.0984 -0.3737  1.4280
  180SLPC   C2720583   4.180   4.584  10.181 -0.1089  0.2570 -0.7553
  180SLPC   H7R20584   4.113   4.666  10.147 -0.1933  0.7687  0.6271
  180SLPC   H7S20585   4.127   4.487  10.190  3.3209 -1.7398 -0.9406
  180SLPC   C2820586   4.290   4.556  10.082  0.4146  0.6091 -0.2078
  180SLPC   H8R20587   4.247   4.487  10.006 -0.7713  1.3063 -0.1757
  180SLPC   H8S20588   4.366   4.493  10.132  0.3686  2.2781  2.0383
  180SLPC   C2920589   4.349   4.684  10.020 -0.5622 -0.4110 -0.1166
  180SLPC   H9R20590   4.440   4.726  10.066 -1.4343  1.1842  0.1956
  180SLPC  C21020591   4.315   4.743   9.904  0.0505  0.3710 -0.4681
  180SLPC  H10R20592   4.374   4.834   9.885 -1.6195  1.1585 -1.9845
  180SLPC  C21120593   4.209   4.707   9.808  0.2377 -0.6680 -0.6395
  180SLPC  H11R20594   4.112   4.753   9.835 -0.0379 -2.1991  1.0551
  180SLPC  H11S20595   4.188   4.598   9.795  0.4325 -0.7941  0.0978
  180SLPC  C21220596   4.253   4.756   9.668  0.6076 -0.3623 -0.2261
  180SLPC  H12R20597   4.355   4.726   9.639  0.9991  0.0906  0.6575
  180SLPC  C21320598   4.173   4.813   9.576 -0.6193 -0.8219 -0.1348
  180SLPC  H13R20599   4.230   4.840   9.486  3.4638  0.4587  2.6828
  180SLPC  C21420600   4.027   4.827   9.594  0.2195  0.7242 -0.2089
  180SLPC  H14R20601   3.989   4.728   9.625 -2.4097  1.5946 -0.5334
  180SLPC  H14S20602   3.987   4.836   9.490 -0.0868 -0.0302 -0.1506
  180SLPC  C21520603   3.977   4.952   9.671 -1.0660 -0.5100  0.5000
  180SLPC  H15R20604   4.013   4.939   9.775  2.8025 -0.6420 -0.7664
  180SLPC  H15S20605   3.866   4.949   9.677 -1.1082 -2.7240 -0.8143
  180SLPC  C21620606   4.017   5.087   9.611  0.4173  0.3060  0.3302
  180SLPC  H16R20607   3.983   5.119   9.510  0.8089 -0.3965 -0.0273
  180SLPC  H16S20608   4.125   5.080   9.586  0.6337  1.9162  0.7708
  180SLPC  C21720609   3.995   5.205   9.705 -0.2487 -0.1260 -0.5499
  180SLPC  H17R20610   4.044   5.190   9.804 -0.3935  1.1645 -0.2734
  180SLPC  H17S20611   3.886   5.216   9.723 -0.2152  0.6501 -0.8091
  180SLPC  C21820612   4.046   5.343   9.652 -0.4446 -0.0591 -0.1367
  180SLPC  H18R20613   4.054   5.419   9.732 -0.1436 -1.7249  1.4615
  180SLPC  H18S20614   3.978   5.390   9.578 -0.8601  0.4961  0.5899
  180SLPC  H18T20615   4.146   5.342   9.602 -0.6005  2.5303 -0.5585
  180SLPC   C3320616   4.572   4.243  10.127  0.8214  0.5885 -0.1677
  180SLPC   H3X20617   4.473   4.207  10.163  1.9703 -0.2833  2.2977
  180SLPC   H3Y20618   4.653   4.169  10.148 -2.7288 -2.8543  2.1473
  180SLPC   C3420619   4.559   4.263   9.978 -0.5413  0.4988  0.1123
  180SLPC   H4X20620   4.489   4.348   9.959  0.3401  1.1820 -0.1518
  180SLPC   H4Y20621   4.511   4.184   9.916 -1.3200  0.4927  0.7164
  180SLPC   C3520622   4.697   4.287   9.914 -0.6054  0.6879  0.5105
  180SLPC   H5X20623   4.778   4.237   9.971 -0.6877 -4.1585 -3.3385
  180SLPC   H5Y20624   4.718   4.396   9.914 -4.2155  1.4726 -2.7371
  180SLPC   C3620625   4.716   4.222   9.776 -0.0622 -0.0753  0.3200
  180SLPC   H6X20626   4.725   4.111   9.785 -1.8726 -0.1523  1.1670
  180SLPC   H6Y20627   4.814   4.265   9.746 -0.6037 -0.6566 -2.4742
  180SLPC   C3720628   4.605   4.263   9.670 -0.5857  0.0405 -0.1466
  180SLPC   H7X20629   4.562   4.362   9.696 -0.5055 -0.2405  1.0883
  180SLPC   H7Y20630   4.523   4.192   9.695 -1.4621  1.2795  0.5546
  180SLPC   C3820631   4.653   4.271   9.526  0.1550  0.2554 -0.2694
  180SLPC   H8X20632   4.734   4.196   9.513 -1.9162 -2.6487  2.8826
  180SLPC   H8Y20633   4.703   4.367   9.503 -0.5106  0.5296 -0.5825
  180SLPC   C3920634   4.536   4.242   9.433 -0.4595  0.4808 -0.2453
  180SLPC   H9X20635   4.462   4.321   9.457  0.7620  1.6307 -0.1461
  180SLPC   H9Y20636   4.486   4.145   9.451 -1.8416  1.1140 -0.6369
  180SLPC  C31020637   4.590   4.256   9.293  0.5079  0.5938 -0.2917
  180SLPC  H10X20638   4.676   4.188   9.275  0.6200  0.9945 -1.2861
  180SLPC  H10Y20639   4.639   4.356   9.288  0.1375  0.7600 -0.5626
  180SLPC  C31120640   4.483   4.253   9.190 -0.5829 -0.4638  0.5426
  180SLPC  H11X20641   4.421   4.345   9.197  0.2441  0.2464 -1.0863
  180SLPC  H11Y20642   4.409   4.176   9.221 -0.6636 -1.2184 -1.4462
  180SLPC  C31220643   4.546   4.241   9.055  0.1658  0.0257 -0.8937
  180SLPC  H12X20644   4.615   4.154   9.061 -0.5695 -0.5152 -0.1129
  180SLPC  H12Y20645   4.605   4.331   9.031 -2.1569  1.7437 -0.3154
  180SLPC  C31320646   4.455   4.209   8.936  0.0684  0.3836 -0.2947
  180SLPC  H13X20647   4.365   4.273   8.945  1.5724  2.5063 -0.1791
  180SLPC  H13Y20648   4.427   4.101   8.932  1.1320  0.1275 -1.0450
  180SLPC  C31420649   4.517   4.250   8.798 -0.3192  0.0519  0.4953
  180SLPC  H14X20650   4.616   4.202   8.781 -1.6511 -2.2687 -1.0543
  180SLPC  H14Y20651   4.538   4.358   8.790  1.9645 -0.4318 -0.4408
  180SLPC  C31520652   4.426   4.212   8.680  0.5911  0.4621  1.0481
  180SLPC  H15X20653   4.350   4.293   8.675  1.9732  1.6793 -0.3297
  180SLPC  H15Y20654   4.365   4.121   8.701 -1.9846  1.8627 -0.1626
  180SLPC  C31620655   4.511   4.202   8.553 -1.3034 -0.5359  0.2918
  180SLPC  H16X20656   4.445   4.167   8.469 -0.7026  1.8212 -1.1960
  180SLPC  H16Y20657   4.588   4.125   8.576 -1.0969 -0.6231 -0.6666
  180SLPC  C31720658   4.580   4.334   8.501 -0.8677 -0.8648  0.2065
  180SLPC  H17X20659   4.650   4.373   8.578  0.4728 -3.1329  0.1697
  180SLPC  H17Y20660   4.499   4.407   8.483 -0.5798  0.0040  2.2353
  180SLPC  C31820661   4.662   4.319   8.368  0.3614 -0.1100 -0.5422
  180SLPC  H18X20662   4.740   4.241   8.372 -1.2128 -1.7574 -1.1079
  180SLPC  H18Y20663   4.705   4.420   8.350 -0.8376  0.8944  1.9133
  180SLPC  H18Z20664   4.584   4.303   8.290  0.1078 -0.0599 -0.3017
  181SLPC     N20665   6.762   0.815  11.199 -0.1287 -0.9239 -0.3493
  181SLPC   C1320666   6.777   0.667  11.167 -0.6512  0.6449  0.4037
  181SLPC  H13A20667   6.863   0.613  11.203 -0.3155  1.4677  0.8495
  181SLPC  H13B20668   6.688   0.607  11.184  1.2414 -1.9936  1.2073
  181SLPC  H13C20669   6.799   0.656  11.062  0.1853 -0.0303  0.6519
  181SLPC   C1420670   6.879   0.883  11.138  0.0852  0.1460  0.0713
  181SLPC  H14A20671   6.899   0.985  11.167  0.6100  0.6383 -1.9016
  181SLPC  H14B20672   6.965   0.820  11.157  0.1664  0.2505  0.0483
  181SLPC  H14C20673   6.860   0.877  11.031 -2.1549  1.4830  0.3776
  181SLPC   C1520674   6.778   0.839  11.346  0.0494 -0.1519 -0.6932
  181SLPC  H15A20675   6.878   0.809  11.373  0.2738  0.7493 -0.5305
  181SLPC  H15B20676   6.759   0.943  11.366  1.0565  0.3382 -2.2199
  181SLPC  H15C20677   6.705   0.780  11.399 -1.3838 -0.6716 -3.1824
  181SLPC   C1220678   6.627   0.866  11.156  0.5675 -0.0159 -0.0993
  181SLPC  H12A20679   6.571   0.776  11.134  0.2607  0.6567 -2.1325
  181SLPC  H12B20680   6.642   0.909  11.058  2.7338  1.3404  0.7875
  181SLPC   C1120681   6.550   0.967  11.243 -0.4642  0.3733  0.2702
  181SLPC  H11A20682   6.490   0.910  11.317 -1.8733 -1.4532 -2.1784
  181SLPC  H11B20683   6.464   1.016  11.191 -0.1296  1.8640  1.0972
  181SLPC     P20684   6.676   1.194  11.231  0.1238 -0.0811 -0.3325
  181SLPC   O1320685   6.622   1.323  11.275  0.7726 -0.3429  0.4657
  181SLPC   O1420686   6.818   1.190  11.225 -0.4280  0.4872  0.1622
  181SLPC   O1220687   6.623   1.069  11.306  0.2053  0.5306  0.2952
  181SLPC   O1120688   6.611   1.176  11.090  0.1639 -0.3141  0.1881
  181SLPC    C120689   6.502   1.257  11.042 -0.8837 -0.5754  0.0874
  181SLPC    HA20690   6.437   1.180  10.995 -0.1699  1.0284 -3.7148
  181SLPC    HB20691   6.431   1.307  11.111  1.4098  0.9318  1.3924
  181SLPC    C220692   6.541   1.368  10.935  0.0667  0.0838  0.1789
  181SLPC    HS20693   6.451   1.424  10.903  0.3120 -0.1819 -0.9795
  181SLPC   O2120694   6.622   1.313  10.825 -0.6864  0.0754 -0.2820
  181SLPC   C2120695   6.553   1.269  10.724 -0.0611  0.0528  0.1961
  181SLPC   O2220696   6.433   1.275  10.714  0.0633 -0.6508  0.0530
  181SLPC   C2220697   6.646   1.190  10.633  0.7179  0.0990  0.0754
  181SLPC   H2R20698   6.715   1.262  10.582 -0.2451  0.6349 -0.4905
  181SLPC   H2S20699   6.712   1.125  10.694  0.3638 -1.4256 -1.1227
  181SLPC    C320700   6.618   1.477  11.005 -1.0938 -0.5655 -0.3733
  181SLPC    HX20701   6.705   1.453  11.070 -2.0594  1.1529  1.6064
  181SLPC    HY20702   6.544   1.518  11.077 -0.8975  1.7512 -1.4180
  181SLPC   O3120703   6.649   1.581  10.915  0.6106  0.2505 -0.3639
  181SLPC   C3120704   6.769   1.621  10.884 -0.7462  0.3153 -0.4241
  181SLPC   O3220705   6.866   1.550  10.909 -0.0526  0.0484 -0.4372
  181SLPC   C3220706   6.773   1.756  10.821  0.0708  0.1994 -0.4359
  181SLPC   H2X20707   6.822   1.826  10.893  0.8479 -0.4332 -0.3457
  181SLPC   H2Y20708   6.669   1.786  10.795 -0.0383  0.3892  0.2103
  181SLPC   C2320709   6.561   1.115  10.522 -0.2140  0.3721  0.0984
  181SLPC   H3R20710   6.461   1.088  10.562  0.8884 -0.9489  2.0611
  181SLPC   H3S20711   6.619   1.031  10.476 -1.8412 -0.3631 -0.6844
  181SLPC   C2420712   6.527   1.214  10.407 -0.1886 -0.4377 -0.3259
  181SLPC   H4R20713   6.564   1.318  10.420 -3.4672  0.5362  1.7292
  181SLPC   H4S20714   6.417   1.223  10.414 -0.1083  0.1688  0.1689
  181SLPC   C2520715   6.574   1.160  10.268  0.2466 -0.3151 -0.2037
  181SLPC   H5R20716   6.554   1.051  10.257  1.6078 -0.4096 -2.0145
  181SLPC   H5S20717   6.685   1.165  10.273  0.2814 -2.1906  1.6564
  181SLPC   C2620718   6.506   1.232  10.148 -0.0296  0.4220  0.2578
  181SLPC   H6R20719   6.549   1.197  10.051  0.3863  3.5623 -0.7492
  181SLPC   H6S20720   6.516   1.343  10.149 -0.8050  0.4909  0.5554
  181SLPC   C2720721   6.355   1.181  10.136 -0.6161  0.0770 -0.3203
  181SLPC   H7R20722   6.307   1.234  10.221  0.1204 -0.5501  0.4979
  181SLPC   H7S20723   6.343   1.071  10.144  0.2807 -0.0391 -0.5085
  181SLPC   C2820724   6.287   1.228  10.000 -0.3468  0.0568 -0.4826
  181SLPC   H8R20725   6.297   1.339   9.995  0.8333 -0.0332 -0.2037
  181SLPC   H8S20726   6.179   1.212  10.020  0.0661 -1.1445  0.8935
  181SLPC   C2920727   6.335   1.158   9.876 -0.1028 -0.3233  0.0539
  181SLPC   H9R20728   6.330   1.049   9.889 -1.0831 -0.2985 -0.0837
  181SLPC  C21020729   6.366   1.212   9.759 -0.0843  0.3309 -0.3287
  181SLPC  H10R20730   6.419   1.156   9.680  0.8169  0.1380  0.4133
  181SLPC  C21120731   6.361   1.362   9.731 -0.0379 -0.4318  0.0071
  181SLPC  H11R20732   6.465   1.400   9.739  0.3788 -1.3898 -0.7320
  181SLPC  H11S20733   6.305   1.430   9.798 -0.0467  0.5169 -0.9422
  181SLPC  C21220734   6.298   1.401   9.602 -0.4789  0.4302 -0.9952
  181SLPC  H12R20735   6.194   1.434   9.621 -1.3369 -0.7726 -3.3531
  181SLPC  C21320736   6.355   1.384   9.477  1.1307 -0.3884 -0.3212
  181SLPC  H13R20737   6.298   1.412   9.387  1.2256  1.3416  0.1493
  181SLPC  C21420738   6.494   1.337   9.438 -1.1039 -0.9608 -0.2460
  181SLPC  H14R20739   6.510   1.259   9.360  0.2106 -0.1864 -0.7734
  181SLPC  H14S20740   6.551   1.300   9.526 -0.7500 -2.9542 -1.2791
  181SLPC  C21520741   6.588   1.453   9.379  0.4778  0.7176 -0.0384
  181SLPC  H15R20742   6.685   1.399   9.375  0.8826  1.3369  0.9153
  181SLPC  H15S20743   6.612   1.530   9.456  2.1802 -0.7018  0.9004
  181SLPC  C21620744   6.542   1.521   9.255  0.7502  0.4619  0.3673
  181SLPC  H16R20745   6.431   1.522   9.251  0.7846 -0.0655 -1.4540
  181SLPC  H16S20746   6.563   1.449   9.173 -0.8649 -1.2054  1.3574
  181SLPC  C21720747   6.590   1.672   9.225 -0.6275 -0.2229 -0.1000
  181SLPC  H17R20748   6.555   1.735   9.309 -2.4166 -1.6850  0.2867
  181SLPC  H17S20749   6.555   1.715   9.128 -1.2147 -1.3992 -0.4177
  181SLPC  C21820750   6.741   1.692   9.225  0.0043  0.3325  0.1280
  181SLPC  H18R20751   6.782   1.780   9.171  1.0799 -0.2668 -0.0474
  181SLPC  H18S20752   6.775   1.609   9.159  0.0205  1.8550 -1.8403
  181SLPC  H18T20753   6.776   1.688   9.330  1.1290  0.9405 -0.2146
  181SLPC   C3320754   6.862   1.766  10.697 -0.4991  0.0100  0.3693
  181SLPC   H3X20755   6.964   1.721  10.696 -0.9703 -1.0937 -3.1792
  181SLPC   H3Y20756   6.878   1.874  10.675 -0.3448  0.5578  3.0384
  181SLPC   C3420757   6.790   1.706  10.578 -0.3200  0.3402 -0.4900
  181SLPC   H4X20758   6.683   1.734  10.568  0.0239  1.4898 -1.0014
  181SLPC   H4Y20759   6.788   1.598  10.605  0.6489  0.7979  1.5145
  181SLPC   C3520760   6.861   1.728  10.449  0.1519 -0.4104 -0.5272
  181SLPC   H5X20761   6.971   1.713  10.455  0.5159  2.2614 -0.0321
  181SLPC   H5Y20762   6.834   1.829  10.412 -3.3212 -0.8400  0.6939
  181SLPC   C3620763   6.810   1.626  10.341  0.3344  0.0264 -0.1297
  181SLPC   H6X20764   6.699   1.628  10.339  0.2314 -0.3806  3.0080
  181SLPC   H6Y20765   6.844   1.526  10.375 -0.4852 -0.6298 -1.2022
  181SLPC   C3720766   6.871   1.651  10.195  0.3514  0.5209  0.0777
  181SLPC   H7X20767   6.973   1.609  10.200 -0.5758 -2.1404 -1.9795
  181SLPC   H7Y20768   6.876   1.761  10.174  4.2334  0.0286 -2.1505
  181SLPC   C3820769   6.783   1.586  10.077 -0.0698 -0.5474 -0.4769
  181SLPC   H8X20770   6.763   1.479  10.101 -0.0272 -0.2606  0.8223
  181SLPC   H8Y20771   6.831   1.587   9.976  1.0441 -0.4178  0.0402
  181SLPC   C3920772   6.642   1.666  10.056  0.1240  0.6770  0.2263
  181SLPC   H9X20773   6.660   1.767  10.097  0.2761  0.1732  1.4212
  181SLPC   H9Y20774   6.560   1.630  10.122  0.8087  2.6289  2.1947
  181SLPC  C31020775   6.584   1.687   9.914 -0.1508  0.2456 -0.5406
  181SLPC  H10X20776   6.474   1.682   9.905  0.1637 -2.8175 -3.6132
  181SLPC  H10Y20777   6.613   1.610   9.840 -0.9091 -0.4687 -0.0956
  181SLPC  C31120778   6.626   1.821   9.855  1.6963 -0.4855 -0.2928
  181SLPC  H11X20779   6.726   1.855   9.891  0.5589  0.8878  1.6899
  181SLPC  H11Y20780   6.540   1.883   9.888  1.5652  0.3964 -2.2071
  181SLPC  C31220781   6.620   1.831   9.698 -0.0022  0.6711 -1.2166
  181SLPC  H12X20782   6.519   1.790   9.675  0.5504 -3.3371  2.7750
  181SLPC  H12Y20783   6.696   1.762   9.655 -1.8251 -2.0365 -0.1873
  181SLPC  C31320784   6.634   1.970   9.648  0.0433  0.3441  0.2664
  181SLPC  H13X20785   6.728   2.025   9.672  1.9031 -2.4460 -0.3243
  181SLPC  H13Y20786   6.555   2.043   9.674 -0.3666 -0.6548  1.8753
  181SLPC  C31420787   6.624   1.963   9.495  0.0531  0.6197 -0.1567
  181SLPC  H14X20788   6.529   1.912   9.468  1.2415 -0.4409 -2.4972
  181SLPC  H14Y20789   6.695   1.891   9.448  0.7685  0.1989  1.5227
  181SLPC  C31520790   6.625   2.099   9.433  0.0285 -0.3035  0.1965
  181SLPC  H15X20791   6.714   2.156   9.469 -1.2442  0.3499  2.4155
  181SLPC  H15Y20792   6.544   2.164   9.472 -0.3906 -0.8802  0.3004
  181SLPC  C31620793   6.612   2.096   9.278  0.5489  0.1701 -0.7223
  181SLPC  H16X20794   6.555   2.183   9.238 -1.6495 -0.8501  0.1060
  181SLPC  H16Y20795   6.554   2.007   9.245  1.4100 -0.0752 -1.5976
  181SLPC  C31720796   6.740   2.101   9.188 -0.6912 -0.1049  0.1075
  181SLPC  H17X20797   6.719   2.068   9.084 -0.7627 -0.7319  0.3160
  181SLPC  H17Y20798   6.815   2.027   9.225  2.0588  1.9587 -1.2010
  181SLPC  C31820799   6.808   2.240   9.183 -0.3737  0.1130 -0.6466
  181SLPC  H18X20800   6.868   2.260   9.274 -0.1196 -0.6949 -0.6290
  181SLPC  H18Y20801   6.741   2.326   9.160  2.1858  2.3029 -0.1127
  181SLPC  H18Z20802   6.882   2.237   9.100  0.6383  1.6813  0.1789
  182SLPC     N20803   5.188   1.915  10.892 -0.4697 -0.4655  0.5656
  182SLPC   C1320804   5.170   1.785  10.821 -0.0187  0.6314 -0.2923
  182SLPC  H13A20805   5.090   1.801  10.750 -0.7807 -0.6240  0.2653
  182SLPC  H13B20806   5.261   1.762  10.768  0.7965  0.2133  1.2610
  182SLPC  H13C20807   5.147   1.702  10.886 -0.6875  0.9945 -0.0688
  182SLPC   C1420808   5.320   1.896  10.964  0.5705 -0.7009  0.5469
  182SLPC  H14A20809   5.411   1.882  10.906  0.3519 -3.9606  0.9062
  182SLPC  H14B20810   5.336   1.979  11.031  0.2675 -2.0269  2.3016
  182SLPC  H14C20811   5.300   1.811  11.028 -3.8003  1.9018  2.8211
  182SLPC   C1520812   5.075   1.923  10.991  0.4819 -0.2976 -0.3961
  182SLPC  H15A20813   5.085   1.839  11.057  0.0053  1.1319  1.5284
  182SLPC  H15B20814   5.079   2.013  11.050 -0.5870 -0.1629 -0.5054
  182SLPC  H15C20815   4.980   1.925  10.939  1.3812  2.5802 -2.0521
  182SLPC   C1220816   5.196   2.041  10.799 -0.7857  0.7124  0.2298
  182SLPC  H12A20817   5.113   2.038  10.729  1.2504 -1.6304 -2.1714
  182SLPC  H12B20818   5.284   2.026  10.739  0.1631  1.0362  1.5201
  182SLPC   C1120819   5.211   2.178  10.869 -0.5010  0.4765 -0.1189
  182SLPC  H11A20820   5.243   2.251  10.792 -0.8484 -1.0632 -1.7462
  182SLPC  H11B20821   5.296   2.175  10.940  0.2491  2.3842 -0.9008
  182SLPC     P20822   4.987   2.321  10.863  0.2184  0.0616 -0.0267
  182SLPC   O1320823   4.862   2.241  10.829 -0.5715  0.0195  0.7096
  182SLPC   O1420824   4.965   2.439  10.953 -0.7849 -0.0106  0.3477
  182SLPC   O1220825   5.092   2.221  10.938 -0.4211  0.4894 -0.8893
  182SLPC   O1120826   5.063   2.366  10.727  0.0644  0.2601 -0.3328
  182SLPC    C120827   5.043   2.500  10.679 -0.4603  0.0622 -0.0395
  182SLPC    HA20828   4.939   2.530  10.655  0.1419  2.0899 -0.1980
  182SLPC    HB20829   5.081   2.578  10.748  2.7857 -2.3468  1.0253
  182SLPC    C220830   5.134   2.513  10.548  0.3941 -0.7711 -0.3943
  182SLPC    HS20831   5.132   2.623  10.530  1.3634 -0.6001  0.4552
  182SLPC   O2120832   5.082   2.420  10.450  0.0451 -0.3994  0.5992
  182SLPC   C2120833   5.120   2.457  10.328  0.3484  0.4281 -0.5010
  182SLPC   O2220834   5.148   2.570  10.299 -0.4398 -0.2708  0.4453
  182SLPC   C2220835   5.094   2.349  10.223  0.6864  0.0008 -0.8262
  182SLPC   H2R20836   5.153   2.263  10.262  1.0977  0.5667 -0.1865
  182SLPC   H2S20837   4.989   2.318  10.236  0.7552 -0.6351 -1.7867
  182SLPC    C320838   5.285   2.480  10.579  0.1117  0.1176  0.3483
  182SLPC    HX20839   5.279   2.385  10.635 -0.1141  0.3425  0.7100
  182SLPC    HY20840   5.334   2.550  10.650 -0.6946  0.4870  0.5471
  182SLPC   O3120841   5.368   2.445  10.464 -0.2031 -0.2265 -0.2815
  182SLPC   C3120842   5.440   2.548  10.416 -0.8380  0.6876  0.3056
  182SLPC   O3220843   5.465   2.650  10.471  0.4122 -0.3011 -0.0040
  182SLPC   C3220844   5.503   2.507  10.291 -0.5269  0.0285  0.8765
  182SLPC   H2X20845   5.475   2.407  10.252 -1.6433 -0.1117  2.0014
  182SLPC   H2Y20846   5.611   2.502  10.315  0.8350  3.1875 -3.9237
  182SLPC   C2320847   5.127   2.388  10.076 -1.2051  0.4999 -0.1759
  182SLPC   H3R20848   5.223   2.444  10.080 -1.1722  0.3727  1.3305
  182SLPC   H3S20849   5.044   2.450  10.036  0.4020  1.5398 -2.0099
  182SLPC   C2420850   5.147   2.273   9.970  0.1356  0.8282 -0.6628
  182SLPC   H4R20851   5.046   2.229   9.953 -0.2879  1.2745  0.6564
  182SLPC   H4S20852   5.219   2.199  10.012 -0.0610  1.3178  0.5520
  182SLPC   C2520853   5.205   2.319   9.835 -0.0949  0.0703  0.4972
  182SLPC   H5R20854   5.304   2.367   9.851  0.9719 -2.4637  1.8568
  182SLPC   H5S20855   5.139   2.401   9.801  0.0281  0.0800  0.2820
  182SLPC   C2620856   5.213   2.213   9.730  0.7883  0.5232  0.2683
  182SLPC   H6R20857   5.111   2.187   9.693  0.6053  0.8223  0.5600
  182SLPC   H6S20858   5.253   2.120   9.777  2.0786  1.1987  0.5267
  182SLPC   C2720859   5.298   2.244   9.613  0.7624 -0.3213 -0.0265
  182SLPC   H7R20860   5.290   2.165   9.535  0.4299  1.2500 -1.6163
  182SLPC   H7S20861   5.403   2.252   9.648  0.2489  1.7641  1.1365
  182SLPC   C2820862   5.266   2.378   9.543  0.1359 -0.5253  0.0227
  182SLPC   H8R20863   5.340   2.400   9.463 -0.9533  1.1427 -0.5592
  182SLPC   H8S20864   5.281   2.456   9.621 -2.5987  1.1000 -0.9922
  182SLPC   C2920865   5.130   2.384   9.485 -0.1131  0.8245 -0.2651
  182SLPC   H9R20866   5.058   2.338   9.554  0.0032  0.2626 -0.5169
  182SLPC  C21020867   5.095   2.437   9.367 -0.0625 -0.4651  0.0122
  182SLPC  H10R20868   4.989   2.432   9.338  0.1405  0.2212 -0.8932
  182SLPC  C21120869   5.181   2.503   9.261  0.2773  0.7292 -0.3282
  182SLPC  H11R20870   5.290   2.481   9.274  0.1221  0.1961  0.1221
  182SLPC  H11S20871   5.162   2.610   9.285  2.1024  0.9003  0.4557
  182SLPC  C21220872   5.143   2.467   9.124  0.5927 -0.4587  0.0107
  182SLPC  H12R20873   5.037   2.446   9.105  0.2673  1.5400 -0.4442
  182SLPC  C21320874   5.219   2.452   9.017  0.1783  0.5927 -0.0451
  182SLPC  H13R20875   5.177   2.427   8.918  1.3480  0.4135 -0.5030
  182SLPC  C21420876   5.372   2.478   9.013 -0.2890 -0.2048  0.1467
  182SLPC  H14R20877   5.426   2.492   9.109 -0.9927 -0.3542  0.5679
  182SLPC  H14S20878   5.379   2.573   8.956 -0.1939  0.1397  0.7298
  182SLPC  C21520879   5.431   2.365   8.927  0.1050  0.7022  0.8727
  182SLPC  H15R20880   5.384   2.274   8.971 -0.7419  0.8060  0.1856
  182SLPC  H15S20881   5.538   2.344   8.949  0.2926 -0.2468 -0.8787
  182SLPC  C21620882   5.412   2.377   8.779  0.4596  0.6343  0.0565
  182SLPC  H16R20883   5.437   2.476   8.737 -0.1531 -0.2750 -2.5249
  182SLPC  H16S20884   5.306   2.357   8.752  1.0489 -2.0683 -0.3999
  182SLPC  C21720885   5.481   2.262   8.701 -0.3291 -0.6490  0.4393
  182SLPC  H17R20886   5.591   2.267   8.713 -0.5037  0.3188  1.6572
  182SLPC  H17S20887   5.458   2.273   8.593 -1.0268 -0.7257  0.5774
  182SLPC  C21820888   5.446   2.116   8.746  0.0595  0.4582  0.3820
  182SLPC  H18R20889   5.458   2.091   8.853  1.3500  0.8325  0.3358
  182SLPC  H18S20890   5.490   2.049   8.669  0.9143  1.0873  0.3052
  182SLPC  H18T20891   5.338   2.103   8.723 -0.1109  1.8930  0.3403
  182SLPC   C3320892   5.491   2.617  10.181 -0.3799  1.2359 -0.3222
  182SLPC   H3X20893   5.570   2.687  10.216 -0.8975  1.6084  0.1066
  182SLPC   H3Y20894   5.390   2.661  10.168 -1.8953 -1.9288  0.3425
  182SLPC   C3420895   5.539   2.557  10.043  0.3454 -0.3075 -0.2337
  182SLPC   H4X20896   5.460   2.484  10.013 -0.4711 -0.1186  1.4132
  182SLPC   H4Y20897   5.631   2.497  10.056 -0.0275 -0.7860  0.2269
  182SLPC   C3520898   5.559   2.665   9.936 -0.2759 -0.1088 -0.4667
  182SLPC   H5X20899   5.617   2.750   9.977 -1.2429  1.0746 -1.4929
  182SLPC   H5Y20900   5.459   2.692   9.894  0.4331  3.3857 -0.0503
  182SLPC   C3620901   5.641   2.603   9.827 -0.3098  0.6625  0.2099
  182SLPC   H6X20902   5.745   2.591   9.865 -0.0117  0.2909 -0.6921
  182SLPC   H6Y20903   5.646   2.679   9.746 -1.7915  1.4515  0.8339
  182SLPC   C3720904   5.581   2.473   9.770  0.4312 -0.4971 -0.1814
  182SLPC   H7X20905   5.482   2.492   9.725  0.4752 -2.4617 -1.1599
  182SLPC   H7Y20906   5.577   2.395   9.849 -2.3893  0.9770  1.1954
  182SLPC   C3820907   5.665   2.406   9.652  0.1220 -0.1853  0.2651
  182SLPC   H8X20908   5.685   2.481   9.572  0.7860 -0.7543 -0.1013
  182SLPC   H8Y20909   5.600   2.332   9.602  0.7747 -1.0776  0.7107
  182SLPC   C3920910   5.799   2.347   9.699 -0.1004  0.2497  0.0625
  182SLPC   H9X20911   5.786   2.297   9.797 -1.6783  1.9151  0.7339
  182SLPC   H9Y20912   5.879   2.420   9.726  0.1235  0.2107 -0.4813
  182SLPC  C31020913   5.859   2.256   9.587  1.2444 -0.5064 -0.4641
  182SLPC  H10X20914   5.787   2.176   9.557 -0.6589  1.2688 -0.7685
  182SLPC  H10Y20915   5.945   2.206   9.636  1.6823 -0.3256 -1.0446
  182SLPC  C31120916   5.918   2.318   9.457  0.2136  0.5911  0.0064
  182SLPC  H11X20917   5.989   2.401   9.478  0.8336  0.2439 -0.6726
  182SLPC  H11Y20918   5.833   2.366   9.404 -0.2543 -1.2456 -0.9376
  182SLPC  C31220919   5.973   2.205   9.359  0.2943  1.1035 -0.3292
  182SLPC  H12X20920   5.967   2.246   9.256 -3.5048  1.4682 -0.0106
  182SLPC  H12Y20921   5.917   2.110   9.368  0.0155  1.2148 -0.8727
  182SLPC  C31320922   6.121   2.168   9.386  0.1144 -0.6805  0.6175
  182SLPC  H13X20923   6.135   2.068   9.339  1.4810 -0.2456  0.0499
  182SLPC  H13Y20924   6.122   2.148   9.495  0.8221 -2.5221  0.2875
  182SLPC  C31420925   6.204   2.287   9.343  0.2112 -0.3018 -0.4668
  182SLPC  H14X20926   6.290   2.296   9.414  0.9846 -0.3216 -1.3874
  182SLPC  H14Y20927   6.158   2.388   9.353  0.3661 -0.2177 -0.6096
  182SLPC  C31520928   6.262   2.289   9.196  0.0230  0.9088 -0.2705
  182SLPC  H15X20929   6.179   2.295   9.121 -0.2990  0.9768  0.0913
  182SLPC  H15Y20930   6.320   2.195   9.183 -1.1401 -0.0210  1.0984
  182SLPC  C31620931   6.354   2.411   9.178 -0.8023 -0.8869  0.0959
  182SLPC  H16X20932   6.434   2.401   9.254  1.1124 -0.8501 -1.8802
  182SLPC  H16Y20933   6.290   2.497   9.206  1.2586  0.5535  0.5186
  182SLPC  C31720934   6.403   2.448   9.037 -0.1095  0.3162  0.5219
  182SLPC  H17X20935   6.476   2.531   9.029  0.5901 -0.4103 -0.7851
  182SLPC  H17Y20936   6.307   2.476   8.988 -0.4233 -1.6446 -0.0275
  182SLPC  C31820937   6.472   2.326   8.967  0.4396 -0.2151 -0.6584
  182SLPC  H18X20938   6.502   2.355   8.863  1.6819  2.1934  0.3326
  182SLPC  H18Y20939   6.412   2.234   8.953 -1.8970  1.1409  0.1538
  182SLPC  H18Z20940   6.572   2.317   9.015  0.6918  1.4729 -0.8417
  183SLPC     N20941   0.375   3.522  11.169  0.1421 -0.0339  0.1742
  183SLPC   C1320942   0.495   3.605  11.128  0.5414 -0.2891  0.0158
  183SLPC  H13A20943   0.488   3.619  11.021 -1.1656  0.5085  0.2184
  183SLPC  H13B20944   0.495   3.702  11.175 -0.7924 -1.4326  2.4656
  183SLPC  H13C20945   0.588   3.554  11.152  1.2263  0.8029 -0.2768
  183SLPC   C1420946   0.256   3.603  11.140 -0.2797  0.3632 -0.1268
  183SLPC  H14A20947   0.256   3.687  11.207 -0.0729 -2.7285  3.9316
  183SLPC  H14B20948   0.248   3.645  11.041  0.5651 -0.3086 -0.4865
  183SLPC  H14C20949   0.165   3.549  11.163 -1.4327  1.4882 -1.8841
  183SLPC   C1520950   0.389   3.516  11.316 -0.5278  1.0211 -0.1754
  183SLPC  H15A20951   0.395   3.614  11.361  1.6859  1.3507 -1.1281
  183SLPC  H15B20952   0.303   3.462  11.352 -0.2010  1.0126  0.5974
  183SLPC  H15C20953   0.474   3.457  11.345  0.5725  1.3957 -2.4934
  183SLPC   C1220954   0.373   3.386  11.106  0.2141  0.2402 -0.0653
  183SLPC  H12A20955   0.306   3.327  11.166  0.7779  0.0232  0.3533
  183SLPC  H12B20956   0.462   3.331  11.130  0.5736  1.3727  1.2871
  183SLPC   C1120957   0.328   3.363  10.962 -0.2428  0.6938 -0.6378
  183SLPC  H11A20958   0.226   3.404  10.947 -1.3069 -0.8248  2.1376
  183SLPC  H11B20959   0.312   3.254  10.951 -0.1936  0.6257 -0.0429
  183SLPC     P20960   0.533   3.358  10.796 -0.4553 -0.1182  0.0037
  183SLPC   O1320961   0.644   3.457  10.805  0.5622  0.2127 -0.3463
  183SLPC   O1420962   0.558   3.218  10.851 -0.2803 -0.6632  0.1267
  183SLPC   O1220963   0.410   3.427  10.861  0.3235 -0.5433 -0.3321
  183SLPC   O1120964   0.500   3.346  10.644  0.4267  0.2172  0.2711
  183SLPC    C120965   0.365   3.339  10.603 -0.1720 -0.1698 -0.4047
  183SLPC    HA20966   0.329   3.233  10.603  0.0987 -0.2763 -1.7804
  183SLPC    HB20967   0.296   3.397  10.668 -2.2351 -1.1142 -1.6686
  183SLPC    C220968   0.355   3.391  10.457  0.2812 -0.5270 -0.6071
  183SLPC    HS20969   0.252   3.378  10.418  0.0532  1.4698 -0.6900
  183SLPC   O2120970   0.453   3.332  10.375 -0.3285  0.0026 -0.1720
  183SLPC   C2120971   0.444   3.202  10.349  0.4276 -0.3371 -0.0230
  183SLPC   O2220972   0.352   3.127  10.382 -0.0058  0.4460 -0.4420
  183SLPC   C2220973   0.573   3.148  10.292 -0.2774 -0.8340 -0.4202
  183SLPC   H2R20974   0.651   3.228  10.289 -0.8109 -0.3314 -0.8261
  183SLPC   H2S20975   0.593   3.059  10.355 -0.5669 -0.5444  0.0913
  183SLPC    C320976   0.381   3.544  10.462 -0.2283  0.4091  0.1740
  183SLPC    HX20977   0.487   3.553  10.496 -0.5433  1.6434  0.8587
  183SLPC    HY20978   0.320   3.602  10.535 -4.0613 -0.0518 -2.4991
  183SLPC   O3120979   0.376   3.616  10.332  0.0179 -0.1410 -0.5421
  183SLPC   C3120980   0.255   3.612  10.272  0.1071 -0.2281  0.0432
  183SLPC   O3220981   0.149   3.585  10.334 -0.1484  0.2825  0.6092
  183SLPC   C3220982   0.263   3.633  10.119 -0.1196  0.9331 -0.4257
  183SLPC   H2X20983   0.350   3.696  10.092 -0.3927  0.1181 -3.4176
  183SLPC   H2Y20984   0.180   3.700  10.085 -0.0559  1.3255  0.1821
  183SLPC   C2320985   0.565   3.095  10.150 -0.3370  0.3250  0.7319
  183SLPC   H3R20986   0.490   3.013  10.148 -0.4964  0.4871 -0.5758
  183SLPC   H3S20987   0.664   3.049  10.129  0.2097  2.7325 -2.3228
  183SLPC   C2420988   0.550   3.195  10.039  0.0618  0.2162 -0.3328
  183SLPC   H4R20989   0.617   3.283  10.055  1.4845 -0.3489 -2.8261
  183SLPC   H4S20990   0.445   3.229  10.030  0.2222  0.6215 -0.7602
  183SLPC   C2520991   0.578   3.127   9.909  0.0118 -0.1291 -0.1672
  183SLPC   H5R20992   0.502   3.048   9.892 -1.7461  1.3780  0.5805
  183SLPC   H5S20993   0.677   3.076   9.908  2.1348  3.7272  2.1736
  183SLPC   C2620994   0.572   3.216   9.781 -1.1431  0.0676 -0.0591
  183SLPC   H6R20995   0.647   3.298   9.780 -2.7342  1.5544 -0.3161
  183SLPC   H6S20996   0.472   3.264   9.782 -1.4838 -0.6522  0.4099
  183SLPC   C2720997   0.587   3.125   9.660 -0.0720 -0.5527  0.2375
  183SLPC   H7R20998   0.622   3.023   9.687 -3.3220 -2.2481 -1.5414
  183SLPC   H7S20999   0.669   3.168   9.600 -1.0612 -0.0894 -0.7923
  183SLPC   C2821000   0.460   3.111   9.568 -0.1307 -0.6236  0.2220
  183SLPC   H8R21001   0.371   3.101   9.633 -1.3838 -0.0049 -1.3432
  183SLPC   H8S21002   0.471   3.023   9.501 -0.5664  2.3355 -3.9395
  183SLPC   C2921003   0.432   3.233   9.484 -0.0890 -0.6198  0.2191
  183SLPC   H9R21004   0.395   3.324   9.534 -1.0696  0.2566 -2.0204
  183SLPC  C21021005   0.477   3.249   9.353 -0.3773  0.1736  0.2160
  183SLPC  H10R21006   0.471   3.348   9.307 -1.3475 -0.4406 -1.0011
  183SLPC  C21121007   0.559   3.154   9.272  0.4332  0.4354  0.2552
  183SLPC  H11R21008   0.624   3.087   9.333 -0.1894 -0.4400 -0.0404
  183SLPC  H11S21009   0.628   3.221   9.216  0.0373 -0.0398 -0.8053
  183SLPC  C21221010   0.487   3.086   9.162 -0.5825 -0.1810 -0.2739
  183SLPC  H12R21011   0.401   3.030   9.200 -0.3362  0.4040  1.1682
  183SLPC  C21321012   0.492   3.111   9.024  0.1972 -0.0731 -0.4963
  183SLPC  H13R21013   0.427   3.042   8.968 -0.4342 -0.3541  0.5700
  183SLPC  C21421014   0.587   3.204   8.943 -0.7770  0.7185  0.4886
  183SLPC  H14R21015   0.594   3.302   8.995  3.7377  1.0459 -0.4796
  183SLPC  H14S21016   0.551   3.235   8.842 -0.1024 -1.7968 -0.5683
  183SLPC  C21521017   0.734   3.146   8.930  0.4775  0.5356  0.6976
  183SLPC  H15R21018   0.737   3.057   8.864  0.5812  0.6898  0.4930
  183SLPC  H15S21019   0.774   3.117   9.029  0.9641 -1.4440 -0.0572
  183SLPC  C21621020   0.840   3.246   8.873  0.0442  0.2902  0.1386
  183SLPC  H16R21021   0.937   3.196   8.853 -0.4034 -0.0793 -1.2070
  183SLPC  H16S21022   0.866   3.325   8.946  0.1154  1.1707 -0.8252
  183SLPC  C21721023   0.791   3.307   8.734 -0.6309 -0.7466 -0.1049
  183SLPC  H17R21024   0.702   3.371   8.753 -0.0823  0.1643 -0.5845
  183SLPC  H17S21025   0.757   3.228   8.665 -0.2128  0.0828 -1.2838
  183SLPC  C21821026   0.896   3.403   8.687 -0.2427  0.0159  0.0952
  183SLPC  H18R21027   0.884   3.439   8.582  0.0636  0.6090  0.2560
  183SLPC  H18S21028   0.987   3.340   8.675  0.3271  0.9987 -0.8974
  183SLPC  H18T21029   0.920   3.479   8.764 -0.7208 -0.2730  0.5286
  183SLPC   C3321030   0.248   3.501  10.035 -0.1301  0.1846  0.1229
  183SLPC   H3X21031   0.143   3.464  10.029  0.3631 -0.7814 -3.5853
  183SLPC   H3Y21032   0.310   3.430  10.095  3.4179  2.4763 -0.6819
  183SLPC   C3421033   0.314   3.521   9.899 -0.7389 -0.0638 -0.5469
  183SLPC   H4X21034   0.332   3.418   9.861  2.1389 -0.1351  0.9329
  183SLPC   H4Y21035   0.409   3.576   9.911 -0.8059 -0.1881  0.6510
  183SLPC   C3521036   0.226   3.593   9.801  0.5606 -0.8442 -0.5180
  183SLPC   H5X21037   0.218   3.699   9.832  1.4928 -1.3630  1.5615
  183SLPC   H5Y21038   0.127   3.543   9.805  0.7587 -1.2534 -0.7447
  183SLPC   C3621039   0.284   3.579   9.664  0.1963  0.3018  0.5671
  183SLPC   H6X21040   0.319   3.473   9.658 -0.8680 -0.0931  1.2123
  183SLPC   H6Y21041   0.376   3.641   9.656  1.0390 -1.0957 -0.9945
  183SLPC   C3721042   0.191   3.607   9.550  1.0069 -0.5663  0.1838
  183SLPC   H7X21043   0.141   3.704   9.573  0.4997 -0.5285 -1.0675
  183SLPC   H7Y21044   0.119   3.523   9.538  0.1416  0.4189 -1.8004
  183SLPC   C3821045   0.266   3.610   9.419  0.4381  1.5097  0.1236
  183SLPC   H8X21046   0.296   3.504   9.404 -1.1605  1.1251 -0.3769
  183SLPC   H8Y21047   0.355   3.676   9.424 -1.5671  4.2967 -0.0683
  183SLPC   C3921048   0.174   3.646   9.302 -1.1986  0.1164  0.6532
  183SLPC   H9X21049   0.150   3.754   9.297  1.6969  0.7436 -0.0959
  183SLPC   H9Y21050   0.086   3.578   9.315 -0.4792 -1.1844 -1.0317
  183SLPC  C31021051   0.239   3.591   9.174  0.1624 -0.0202  0.3515
  183SLPC  H10X21052   0.163   3.595   9.093  0.7762  1.3459 -0.1617
  183SLPC  H10Y21053   0.278   3.487   9.177  0.4749 -0.0449 -2.9970
  183SLPC  C31121054   0.357   3.670   9.113  0.1585 -0.1310 -0.5591
  183SLPC  H11X21055   0.441   3.602   9.139 -1.5295 -1.6804  0.9792
  183SLPC  H11Y21056   0.381   3.768   9.158 -0.7454  1.1928 -2.8890
  183SLPC  C31221057   0.339   3.680   8.955 -0.8890  0.2185 -0.2566
  183SLPC  H12X21058   0.263   3.752   8.917 -1.2741  0.2628  0.5884
  183SLPC  H12Y21059   0.296   3.584   8.919  2.7108 -1.5603 -0.0766
  183SLPC  C31321060   0.474   3.674   8.886  0.3018 -0.3978  0.2447
  183SLPC  H13X21061   0.534   3.588   8.922 -1.0069 -1.6178 -0.4297
  183SLPC  H13Y21062   0.531   3.767   8.906  0.6956 -0.2663 -1.3790
  183SLPC  C31421063   0.469   3.654   8.739  0.1319  0.6289  0.7103
  183SLPC  H14X21064   0.386   3.586   8.712  1.5236 -1.2629  1.0912
  183SLPC  H14Y21065   0.568   3.607   8.718  0.1173  0.5460  0.8320
  183SLPC  C31521066   0.465   3.781   8.655  0.1426 -0.2937  0.6203
  183SLPC  H15X21067   0.512   3.872   8.699  1.3464  0.0054 -1.2264
  183SLPC  H15Y21068   0.356   3.798   8.643  0.2687 -0.1617 -0.4008
  183SLPC  C31621069   0.518   3.776   8.507  0.0743  0.0985 -0.4504
  183SLPC  H16X21070   0.628   3.781   8.519  0.0445  3.6200 -1.1712
  183SLPC  H16Y21071   0.488   3.862   8.443 -0.8890 -0.0553 -0.2084
  183SLPC  C31721072   0.493   3.644   8.429  1.3141  0.1882  0.1260
  183SLPC  H17X21073   0.382   3.629   8.428  1.3850 -0.4681  1.0532
  183SLPC  H17Y21074   0.539   3.550   8.466  2.6827  0.8017 -0.0236
  183SLPC  C31821075   0.538   3.653   8.285  0.2348 -0.0133 -0.6003
  183SLPC  H18X21076   0.641   3.696   8.284  0.1058  0.3929  1.8434
  183SLPC  H18Y21077   0.470   3.717   8.224 -1.9807  0.2227  2.0467
  183SLPC  H18Z21078   0.541   3.550   8.244  0.1486 -0.6057  0.8788
  184SLPC     N21079   2.563   1.220  10.742  0.2666  0.2143  0.0423
  184SLPC   C1321080   2.622   1.082  10.741 -0.7367  0.1901  0.2196
  184SLPC  H13A21081   2.636   1.031  10.835  0.9363 -0.6079 -0.4605
  184SLPC  H13B21082   2.568   1.017  10.674  1.5865  0.8393 -2.4101
  184SLPC  H13C21083   2.724   1.070  10.707 -0.5304  1.6090  0.2815
  184SLPC   C1421084   2.644   1.312  10.831 -0.4003  0.3793  0.7581
  184SLPC  H14A21085   2.742   1.336  10.792 -0.2548 -0.7516  0.3811
  184SLPC  H14B21086   2.605   1.411  10.844  1.7182  1.2822  0.3772
  184SLPC  H14C21087   2.651   1.262  10.927  1.9773  1.2285  1.0612
  184SLPC   C1521088   2.430   1.205  10.809  0.0654  0.0641 -0.1031
  184SLPC  H15A21089   2.439   1.126  10.882  1.0289  0.2350 -0.0408
  184SLPC  H15B21090   2.407   1.297  10.859  1.8237  0.4488  0.0164
  184SLPC  H15C21091   2.352   1.189  10.735  0.7682 -1.1493 -0.5941
  184SLPC   C1221092   2.538   1.280  10.608  0.2035 -0.2034 -0.1030
  184SLPC  H12A21093   2.633   1.311  10.567 -0.0783  0.8782  0.0353
  184SLPC  H12B21094   2.477   1.369  10.615  0.6850  0.2362 -1.3140
  184SLPC   C1121095   2.470   1.199  10.490  0.4306  0.5374  0.0623
  184SLPC  H11A21096   2.512   1.096  10.483  2.0211  1.2377 -0.9210
  184SLPC  H11B21097   2.499   1.249  10.395 -0.0240  0.2414 -0.2346
  184SLPC     P21098   2.223   1.306  10.473 -0.1482  0.0431  0.3798
  184SLPC   O1321099   2.177   1.385  10.590  0.1396  0.3848 -0.1694
  184SLPC   O1421100   2.282   1.392  10.366 -0.7157 -0.4766  0.2508
  184SLPC   O1221101   2.329   1.194  10.513 -0.2234 -0.5114  0.0851
  184SLPC   O1121102   2.098   1.228  10.423 -0.0569  0.1993  0.1325
  184SLPC    C121103   2.105   1.088  10.382 -0.2847 -0.8266  0.2073
  184SLPC    HA21104   2.208   1.049  10.399  0.3855  0.8630  0.1150
  184SLPC    HB21105   2.043   1.029  10.452  0.7070 -0.7227  1.1932
  184SLPC    C221106   2.060   1.070  10.235 -0.7697  0.0526  0.7671
  184SLPC    HS21107   2.084   0.965  10.209  0.0131 -0.0413  1.8330
  184SLPC   O2121108   2.137   1.161  10.149  0.1771 -0.2580 -0.2825
  184SLPC   C2121109   2.261   1.115  10.129 -0.3224 -0.4493  0.1248
  184SLPC   O2221110   2.308   1.016  10.179 -0.0122 -0.3931  0.4562
  184SLPC   C2221111   2.333   1.212  10.040  0.7987 -0.3795  0.0709
  184SLPC   H2R21112   2.262   1.293  10.013 -0.0607 -1.3696 -0.6865
  184SLPC   H2S21113   2.424   1.261  10.081  0.8649 -0.8817  0.5254
  184SLPC    C321114   1.910   1.114  10.234 -0.4923  0.7508  0.2804
  184SLPC    HX21115   1.908   1.223  10.255 -0.0555  0.7872  0.1387
  184SLPC    HY21116   1.854   1.067  10.319 -0.0571  0.2933  0.3159
  184SLPC   O3121117   1.857   1.098  10.096 -0.2962  0.1018  0.2334
  184SLPC   C3121118   1.772   1.005  10.080  0.1437  0.7377 -0.1439
  184SLPC   O3221119   1.737   0.930  10.170  0.1398 -0.3481  0.0549
  184SLPC   C3221120   1.732   1.001   9.933  0.4464 -0.3391  0.3069
  184SLPC   H2X21121   1.672   1.092   9.910  0.3226  0.0193  1.9171
  184SLPC   H2Y21122   1.665   0.913   9.926  1.7108 -1.3617  0.9769
  184SLPC   C2321123   2.399   1.155   9.910  0.1315  0.0740  0.0393
  184SLPC   H3R21124   2.323   1.095   9.854  0.3038  1.7800 -2.1120
  184SLPC   H3S21125   2.468   1.079   9.952  0.7468  0.6418  0.0477
  184SLPC   C2421126   2.457   1.256   9.814 -0.3009 -0.3271 -0.5969
  184SLPC   H4R21127   2.525   1.320   9.873  1.0350 -2.1289 -0.1248
  184SLPC   H4S21128   2.378   1.317   9.766  0.2813 -0.0438 -1.1985
  184SLPC   C2521129   2.542   1.187   9.704 -0.5019  0.3164 -0.4266
  184SLPC   H5R21130   2.471   1.115   9.659  0.0448  1.6599 -3.6035
  184SLPC   H5S21131   2.625   1.131   9.751  0.0952  0.3590 -1.4099
  184SLPC   C2621132   2.589   1.275   9.587 -0.4147  0.6665 -0.6797
  184SLPC   H6R21133   2.654   1.361   9.615  1.1646 -0.7512  0.1524
  184SLPC   H6S21134   2.498   1.316   9.538 -0.6941 -0.5833 -1.2158
  184SLPC   C2721135   2.663   1.192   9.481 -0.4903  0.4079 -0.0327
  184SLPC   H7R21136   2.595   1.109   9.449 -0.7632  0.8231 -0.5358
  184SLPC   H7S21137   2.748   1.150   9.538  0.2582 -0.4383 -1.7322
  184SLPC   C2821138   2.704   1.273   9.353 -0.7273 -0.2871 -0.1570
  184SLPC   H8R21139   2.774   1.353   9.385 -0.3802 -0.1191 -1.2805
  184SLPC   H8S21140   2.608   1.324   9.331 -0.2879  0.6853  0.1599
  184SLPC   C2921141   2.759   1.197   9.237  0.1151 -0.3962 -0.3040
  184SLPC   H9R21142   2.796   1.098   9.269 -0.7591 -0.4878  0.4662
  184SLPC  C21021143   2.769   1.232   9.106  0.5318 -0.5950  0.4507
  184SLPC  H10R21144   2.815   1.165   9.033 -0.1550 -0.2038 -0.3498
  184SLPC  C21121145   2.718   1.355   9.046 -0.0784  0.3234  0.7889
  184SLPC  H11R21146   2.640   1.409   9.104  0.1604 -0.1285  1.5352
  184SLPC  H11S21147   2.688   1.323   8.944  0.3154  2.0280  0.1258
  184SLPC  C21221148   2.828   1.462   9.047 -0.1408  0.1609 -0.4301
  184SLPC  H12R21149   2.840   1.512   9.144 -0.6795 -1.8681  0.7087
  184SLPC  C21321150   2.896   1.500   8.932 -0.1802 -0.7511 -0.8816
  184SLPC  H13R21151   2.962   1.588   8.941 -3.0416  1.5445 -1.3574
  184SLPC  C21421152   2.882   1.463   8.785 -0.2955  0.2858 -0.5225
  184SLPC  H14R21153   2.849   1.357   8.785  2.1659 -0.5107 -0.3572
  184SLPC  H14S21154   2.979   1.477   8.733 -1.7207  1.3955 -2.9534
  184SLPC  C21521155   2.763   1.527   8.716 -0.0028  0.3272  0.1068
  184SLPC  H15R21156   2.764   1.638   8.725 -2.4608  0.6280 -2.6664
  184SLPC  H15S21157   2.675   1.487   8.770  0.7630  1.1471  1.9885
  184SLPC  C21621158   2.744   1.495   8.563  0.7614 -0.1046  0.5310
  184SLPC  H16R21159   2.719   1.387   8.552 -0.4475  0.2549 -0.3025
  184SLPC  H16S21160   2.840   1.509   8.510 -0.5461  1.0020 -1.5763
  184SLPC  C21721161   2.635   1.575   8.489 -0.4212  0.0159 -0.1475
  184SLPC  H17R21162   2.645   1.547   8.382  1.3191  1.2973 -0.3331
  184SLPC  H17S21163   2.657   1.683   8.485 -0.5908 -0.0069 -2.2978
  184SLPC  C21821164   2.496   1.550   8.537  0.5371 -0.2035 -0.0650
  184SLPC  H18R21165   2.431   1.637   8.514 -0.1080 -1.0775 -1.6239
  184SLPC  H18S21166   2.493   1.540   8.647  0.0125 -0.4192 -0.0975
  184SLPC  H18T21167   2.443   1.471   8.479 -2.0210  1.8954 -0.6896
  184SLPC   C3321168   1.838   0.966   9.826 -0.0304  0.0949  0.0194
  184SLPC   H3X21169   1.869   0.859   9.836 -3.1451 -0.6106  3.0281
  184SLPC   H3Y21170   1.930   1.025   9.843  0.4552 -0.7396  0.3277
  184SLPC   C3421171   1.788   0.986   9.686 -0.0257  0.1556 -0.3907
  184SLPC   H4X21172   1.730   1.079   9.667 -0.2028 -0.1120 -1.1822
  184SLPC   H4Y21173   1.719   0.903   9.658  0.7440  0.2937 -2.7746
  184SLPC   C3521174   1.907   0.979   9.586 -0.2442 -0.6429  0.2550
  184SLPC   H5X21175   1.974   0.897   9.617  0.4742  0.6922  2.2849
  184SLPC   H5Y21176   1.971   1.066   9.612 -0.7471  0.1474 -1.0688
  184SLPC   C3621177   1.865   0.973   9.437  0.3591  0.5267 -0.2614
  184SLPC   H6X21178   1.774   0.909   9.429  3.2541 -4.0919  1.6960
  184SLPC   H6Y21179   1.947   0.932   9.374 -1.0081 -0.9893 -1.1308
  184SLPC   C3721180   1.848   1.113   9.382 -0.1442  0.2147 -0.0875
  184SLPC   H7X21181   1.949   1.159   9.373 -0.3056  0.7900  1.0090
  184SLPC   H7Y21182   1.775   1.173   9.441  0.4946  0.3368  0.5782
  184SLPC   C3821183   1.791   1.115   9.236  0.4159  0.0576 -0.1353
  184SLPC   H8X21184   1.771   1.218   9.202 -0.0035 -0.0147 -0.1072
  184SLPC   H8Y21185   1.686   1.080   9.228 -0.5635  3.4012 -2.9411
  184SLPC   C3921186   1.885   1.055   9.137 -0.3516 -0.5113  0.6396
  184SLPC   H9X21187   1.935   0.969   9.186  1.6762  0.2105 -0.1338
  184SLPC   H9Y21188   1.949   1.137   9.099 -1.2526 -0.7817 -1.5264
  184SLPC  C31021189   1.816   1.012   9.003 -1.0189 -0.4864  0.2164
  184SLPC  H10X21190   1.760   1.103   8.972  1.8076  0.9829 -0.8006
  184SLPC  H10Y21191   1.750   0.923   9.012  0.8392 -1.8829  0.2680
  184SLPC  C31121192   1.924   0.986   8.895  0.3913 -0.0895 -0.0708
  184SLPC  H11X21193   1.978   0.894   8.927  1.2530 -0.3137 -2.0910
  184SLPC  H11Y21194   2.005   1.062   8.892 -0.4292  0.7717 -0.8841
  184SLPC  C31221195   1.852   0.968   8.762  0.6970 -0.0380  0.2329
  184SLPC  H12X21196   1.937   0.953   8.692 -1.1897 -1.7621 -1.7700
  184SLPC  H12Y21197   1.792   1.058   8.737 -1.2784 -1.4212 -0.1483
  184SLPC  C31321198   1.743   0.866   8.757 -0.3667 -0.4157  0.1585
  184SLPC  H13X21199   1.693   0.865   8.658 -1.6318  0.0429  0.7779
  184SLPC  H13Y21200   1.662   0.886   8.831  1.8135  0.2666  2.4368
  184SLPC  C31421201   1.789   0.719   8.780 -0.1150  0.0654  0.0971
  184SLPC  H14X21202   1.841   0.686   8.873 -1.0557 -1.4808  0.0910
  184SLPC  H14Y21203   1.861   0.700   8.697 -2.5638  1.7916 -2.5242
  184SLPC  C31521204   1.676   0.620   8.776  0.8687 -0.5469  0.3379
  184SLPC  H15X21205   1.585   0.667   8.819  0.6611  0.1787 -0.8736
  184SLPC  H15Y21206   1.704   0.527   8.830  0.6244 -1.5725 -1.2777
  184SLPC  C31621207   1.624   0.583   8.641 -0.1229  0.0523  0.3511
  184SLPC  H16X21208   1.706   0.546   8.576 -0.8835 -3.1146  1.0821
  184SLPC  H16Y21209   1.580   0.673   8.592  0.9721 -1.0933 -2.8607
  184SLPC  C31721210   1.504   0.481   8.646  0.2946  0.8870 -0.5334
  184SLPC  H17X21211   1.426   0.532   8.706 -0.4409 -0.0903 -0.6514
  184SLPC  H17Y21212   1.537   0.389   8.698  3.6879  3.1505  1.5452
  184SLPC  C31821213   1.437   0.448   8.520 -0.3861 -0.6275  0.1697
  184SLPC  H18X21214   1.514   0.416   8.445 -1.1587 -4.0535  0.7787
  184SLPC  H18Y21215   1.388   0.538   8.477  0.7378  0.0286  0.2331
  184SLPC  H18Z21216   1.355   0.376   8.536  0.4159 -1.4369  0.6857
  185SLPC     N21217   0.427   2.772   6.435 -0.5577 -0.4674  0.4569
  185SLPC   C1321218   0.370   2.890   6.508  0.1345 -0.6216  0.1128
  185SLPC  H13A21219   0.425   2.932   6.591  0.3940 -0.1439 -0.2937
  185SLPC  H13B21220   0.365   2.980   6.448  0.4750 -0.2288  0.6666
  185SLPC  H13C21221   0.273   2.875   6.551  0.0260 -0.9328 -0.2366
  185SLPC   C1421222   0.340   2.734   6.323 -0.9544 -0.3144  0.9214
  185SLPC  H14A21223   0.342   2.631   6.293  0.0250  0.8156 -3.2126
  185SLPC  H14B21224   0.238   2.750   6.354 -0.9008 -0.3862  1.1337
  185SLPC  H14C21225   0.356   2.801   6.239  1.7458 -1.9011  0.1003
  185SLPC   C1521226   0.447   2.657   6.531 -0.0635  0.4166 -0.0639
  185SLPC  H15A21227   0.494   2.580   6.472  0.2000  1.0743 -0.7208
  185SLPC  H15B21228   0.508   2.683   6.616 -1.1427  0.3745  0.7372
  185SLPC  H15C21229   0.356   2.629   6.583  1.2764  0.4111  2.3055
  185SLPC   C1221230   0.568   2.810   6.382 -0.2789 -0.0794 -0.8745
  185SLPC  H12A21231   0.607   2.730   6.321  0.8164  0.0015 -0.2844
  185SLPC  H12B21232   0.635   2.826   6.465  0.5299 -0.6337 -1.4125
  185SLPC   C1121233   0.575   2.929   6.288  0.1467  0.6492 -0.5156
  185SLPC  H11A21234   0.509   2.916   6.200  1.4802 -0.6946 -1.3421
  185SLPC  H11B21235   0.681   2.922   6.256 -0.5457 -3.2428 -2.2747
  185SLPC     P21236   0.641   3.157   6.395 -0.2536  0.0259  0.3227
  185SLPC   O1321237   0.741   3.096   6.484  0.1063  0.6369  0.9659
  185SLPC   O1421238   0.694   3.228   6.276 -1.0784 -0.4837  0.0218
  185SLPC   O1221239   0.536   3.051   6.351  0.0789  0.9551  0.2675
  185SLPC   O1121240   0.564   3.267   6.474  0.0160  0.5947  0.6342
  185SLPC    C121241   0.514   3.240   6.600  0.3672  0.5131  0.5633
  185SLPC    HA21242   0.411   3.281   6.599  0.1604 -0.0057 -0.5187
  185SLPC    HB21243   0.497   3.133   6.624 -3.7423  0.9683  0.1559
  185SLPC    C221244   0.600   3.293   6.713 -0.2562 -0.0752  0.2671
  185SLPC    HS21245   0.695   3.239   6.730 -1.3393 -1.9964  0.3474
  185SLPC   O2121246   0.512   3.300   6.835 -0.0489  0.0305  0.0817
  185SLPC   C2121247   0.518   3.180   6.905 -0.0650  1.0050 -0.2736
  185SLPC   O2221248   0.578   3.077   6.866  0.2200 -0.2113  0.0845
  185SLPC   C2221249   0.443   3.183   7.042  0.4400 -0.0791 -0.2464
  185SLPC   H2R21250   0.338   3.217   7.028  0.4533 -0.3380 -1.0060
  185SLPC   H2S21251   0.442   3.077   7.074 -0.2168  0.1948  0.6540
  185SLPC    C321252   0.641   3.438   6.668 -0.0309 -0.0577  0.1815
  185SLPC    HX21253   0.542   3.479   6.639 -0.5536 -0.6454  1.1233
  185SLPC    HY21254   0.706   3.444   6.578 -0.3094  2.1001  0.1029
  185SLPC   O3121255   0.698   3.529   6.768  0.0226  0.0007  0.4874
  185SLPC   C3121256   0.812   3.483   6.806  0.1543 -0.3393  0.0012
  185SLPC   O3221257   0.865   3.378   6.767  0.6681 -0.1311 -0.1708
  185SLPC   C3221258   0.866   3.573   6.929 -0.4230  0.3112  0.5904
  185SLPC   H2X21259   0.927   3.656   6.888 -0.0622  0.0648  0.6303
  185SLPC   H2Y21260   0.943   3.505   6.971 -0.9065 -1.5097 -1.3623
  185SLPC   C2321261   0.519   3.269   7.149 -0.2550 -0.5707 -0.0572
  185SLPC   H3R21262   0.555   3.368   7.116 -2.5641 -0.3056 -1.9197
  185SLPC   H3S21263   0.611   3.211   7.173 -1.2006 -1.7400  0.8299
  185SLPC   C2421264   0.433   3.304   7.271  0.4137  0.6097  0.8246
  185SLPC   H4R21265   0.361   3.221   7.285  0.3218  0.9395  2.3438
  185SLPC   H4S21266   0.376   3.397   7.248  0.6125  0.1927 -1.4841
  185SLPC   C2521267   0.523   3.303   7.399  0.1947  0.0164  0.1478
  185SLPC   H5R21268   0.602   3.380   7.384  0.4732 -0.2235  0.3755
  185SLPC   H5S21269   0.566   3.200   7.400 -0.1832 -0.1365  1.6375
  185SLPC   C2621270   0.446   3.321   7.533 -0.1170  0.0174  0.0186
  185SLPC   H6R21271   0.377   3.235   7.542  1.4137 -1.2113  0.2501
  185SLPC   H6S21272   0.388   3.416   7.538  0.5707  0.5250 -1.3846
  185SLPC   C2721273   0.563   3.321   7.640  0.4414  0.8673 -0.1996
  185SLPC   H7R21274   0.629   3.408   7.618  0.4829  1.3417  1.7474
  185SLPC   H7S21275   0.625   3.230   7.622  1.3179  1.1937  1.1388
  185SLPC   C2821276   0.506   3.326   7.784  0.0389  0.3639  0.4028
  185SLPC   H8R21277   0.442   3.237   7.800  0.4035 -0.0809 -0.5362
  185SLPC   H8S21278   0.429   3.405   7.786  0.0979  0.4163  0.6552
  185SLPC   C2921279   0.610   3.341   7.899  0.0790  0.0434 -0.0406
  185SLPC   H9R21280   0.692   3.412   7.883  2.2818 -2.2156  0.9301
  185SLPC  C21021281   0.605   3.276   8.018  0.5392 -0.6290  0.6695
  185SLPC  H10R21282   0.683   3.303   8.090 -0.3312  0.1159  1.3462
  185SLPC  C21121283   0.502   3.189   8.068 -0.0510 -0.2485 -0.8538
  185SLPC  H11R21284   0.544   3.108   8.131 -0.7041 -1.6249 -2.1482
  185SLPC  H11S21285   0.463   3.130   7.982  1.1625  0.7514 -2.1127
  185SLPC  C21221286   0.386   3.251   8.134 -0.0685  0.1688  0.0795
  185SLPC  H12R21287   0.305   3.290   8.071  1.8205  1.9402 -1.3303
  185SLPC  C21321288   0.379   3.266   8.267  0.4181 -0.4107  0.3248
  185SLPC  H13R21289   0.283   3.299   8.308  1.1363 -0.6037  2.2382
  185SLPC  C21421290   0.485   3.234   8.370 -0.0063 -0.1129 -0.4345
  185SLPC  H14R21291   0.471   3.305   8.455  0.0942 -0.5980 -0.0056
  185SLPC  H14S21292   0.585   3.243   8.323  0.1507 -0.6106 -0.2013
  185SLPC  C21521293   0.453   3.095   8.436 -0.2681  0.0801 -0.2799
  185SLPC  H15R21294   0.503   3.020   8.371  1.9262 -0.1044  1.5463
  185SLPC  H15S21295   0.346   3.074   8.457 -0.4357 -0.2995 -1.4444
  185SLPC  C21621296   0.513   3.088   8.577 -0.0977  0.4596  0.1237
  185SLPC  H16R21297   0.474   3.174   8.634 -0.7065 -0.0204  0.4332
  185SLPC  H16S21298   0.618   3.119   8.557  0.5180 -1.0945  0.8999
  185SLPC  C21721299   0.503   2.942   8.647  0.3345  0.5559 -0.2800
  185SLPC  H17R21300   0.553   2.947   8.746  2.3718  0.1662 -1.2741
  185SLPC  H17S21301   0.560   2.870   8.585 -1.0144 -0.5305 -0.2879
  185SLPC  C21821302   0.353   2.900   8.669 -0.5390 -0.3041 -0.6246
  185SLPC  H18R21303   0.357   2.798   8.713  2.1842 -0.0644 -0.2149
  185SLPC  H18S21304   0.300   2.903   8.571 -2.1977  0.8998  0.2985
  185SLPC  H18T21305   0.314   2.962   8.752  1.2968 -1.2963  1.0189
  185SLPC   C3321306   0.750   3.612   7.026 -0.9351  0.5525 -0.1830
  185SLPC   H3X21307   0.682   3.525   7.037 -1.0329  0.7648  0.9679
  185SLPC   H3Y21308   0.696   3.693   6.973  1.0051  0.5377 -2.2521
  185SLPC   C3421309   0.809   3.672   7.149 -0.5335 -0.0133  0.5615
  185SLPC   H4X21310   0.734   3.745   7.187  2.0494  3.4530 -0.7766
  185SLPC   H4Y21311   0.906   3.725   7.135 -0.6619  0.1602  0.3305
  185SLPC   C3521312   0.823   3.574   7.271 -0.1739  0.1556  0.4938
  185SLPC   H5X21313   0.876   3.487   7.226  0.3740  1.3947 -1.2867
  185SLPC   H5Y21314   0.717   3.550   7.293  0.5158 -1.3223  2.3309
  185SLPC   C3621315   0.906   3.642   7.387  0.0034 -0.6042  0.4212
  185SLPC   H6X21316   0.824   3.711   7.416  2.4871  2.1717  1.0804
  185SLPC   H6Y21317   0.988   3.707   7.349 -1.5638  1.3951  0.3558
  185SLPC   C3721318   0.952   3.543   7.495 -0.4075 -0.2715  0.3754
  185SLPC   H7X21319   1.043   3.496   7.452 -1.9232 -2.2662 -0.7357
  185SLPC   H7Y21320   0.885   3.455   7.508  2.5509 -2.3364  2.2824
  185SLPC   C3821321   0.949   3.596   7.634 -0.3298 -0.6962 -0.1689
  185SLPC   H8X21322   0.849   3.634   7.667  0.6138  2.0333 -0.2811
  185SLPC   H8Y21323   1.016   3.684   7.641  0.6242 -1.3599 -0.9389
  185SLPC   C3921324   0.989   3.485   7.730 -0.0367  0.3631  0.1696
  185SLPC   H9X21325   1.097   3.469   7.714 -0.2322 -1.0776  0.1440
  185SLPC   H9Y21326   0.932   3.397   7.691 -0.1372  1.2740 -1.7811
  185SLPC  C31021327   0.960   3.509   7.880 -0.0758 -0.2304  0.1473
  185SLPC  H10X21328   0.960   3.415   7.938 -1.1293 -0.3922 -0.1107
  185SLPC  H10Y21329   0.853   3.537   7.879 -0.3173 -1.1268 -2.4079
  185SLPC  C31121330   1.034   3.621   7.947 -0.1448 -0.6507  0.3260
  185SLPC  H11X21331   1.043   3.707   7.878  0.2623 -0.1937  0.9464
  185SLPC  H11Y21332   1.140   3.592   7.961 -0.0237 -0.0384  0.6731
  185SLPC  C31221333   0.985   3.657   8.079 -0.0818 -0.3157  0.5740
  185SLPC  H12X21334   0.984   3.569   8.146  1.1843  0.8321  2.1197
  185SLPC  H12Y21335   0.879   3.686   8.063  0.6560  1.8257 -0.7349
  185SLPC  C31321336   1.059   3.774   8.150  0.6272 -0.1035  0.0226
  185SLPC  H13X21337   1.033   3.861   8.085 -0.8227 -0.8050 -0.3487
  185SLPC  H13Y21338   1.170   3.762   8.147  0.4056 -2.4132  0.1612
  185SLPC  C31421339   1.021   3.798   8.294  0.0808 -0.2362 -1.0163
  185SLPC  H14X21340   1.069   3.720   8.357 -0.9226  0.4563  0.6356
  185SLPC  H14Y21341   0.913   3.778   8.313 -0.3447  3.8224  1.4298
  185SLPC  C31521342   1.056   3.935   8.344 -0.1995  0.6393  0.6009
  185SLPC  H15X21343   1.014   4.003   8.267  0.7640  0.4564 -0.0894
  185SLPC  H15Y21344   1.165   3.956   8.348 -0.1242  0.4233 -0.2516
  185SLPC  C31621345   0.981   3.977   8.469  0.2130 -0.6251 -0.5087
  185SLPC  H16X21346   0.872   3.952   8.474 -0.2981  1.9702  2.6027
  185SLPC  H16Y21347   0.988   4.087   8.482  2.1174 -0.5904 -1.6142
  185SLPC  C31721348   1.042   3.919   8.602  0.4543 -0.0848 -0.0591
  185SLPC  H17X21349   1.148   3.954   8.602  0.2124  0.6517  0.6755
  185SLPC  H17Y21350   1.043   3.808   8.603 -0.2971 -0.0992 -0.6022
  185SLPC  C31821351   0.972   3.977   8.727  0.1694  0.0170 -0.1203
  185SLPC  H18X21352   0.973   4.088   8.720 -1.4041  0.0597  0.1182
  185SLPC  H18Y21353   1.026   3.950   8.820 -0.0167 -0.1242 -0.0533
  185SLPC  H18Z21354   0.869   3.942   8.746  0.7324 -1.1707  0.8398
  186SLPC     N21355   1.493   6.245   6.160 -0.0590  0.4503 -0.6667
  186SLPC   C1321356   1.372   6.300   6.089  0.3257  0.9199 -0.4285
  186SLPC  H13A21357   1.388   6.281   5.984  3.0719 -1.6731  0.4004
  186SLPC  H13B21358   1.279   6.249   6.108  0.0358  1.2143 -1.0517
  186SLPC  H13C21359   1.361   6.407   6.101 -2.1356  0.6880 -0.2828
  186SLPC   C1421360   1.470   6.272   6.306 -0.4676  0.0944 -0.0380
  186SLPC  H14A21361   1.396   6.204   6.346 -0.5612 -1.5618 -2.8497
  186SLPC  H14B21362   1.561   6.256   6.363 -0.1114 -2.1849 -1.1811
  186SLPC  H14C21363   1.444   6.376   6.312  2.8945  1.0796 -1.0491
  186SLPC   C1521364   1.619   6.318   6.115  0.0557  0.4656  0.1619
  186SLPC  H15A21365   1.709   6.277   6.158 -0.8969 -2.0955 -0.1477
  186SLPC  H15B21366   1.636   6.297   6.010  0.1245  0.8393  0.0998
  186SLPC  H15C21367   1.616   6.424   6.133 -2.6906  0.7911 -1.9001
  186SLPC   C1221368   1.510   6.097   6.130 -0.2296 -0.1456  0.0899
  186SLPC  H12A21369   1.528   6.086   6.024 -0.7166  1.3014 -0.1625
  186SLPC  H12B21370   1.422   6.041   6.160 -2.0656  1.0186 -2.8142
  186SLPC   C1121371   1.614   6.025   6.212  0.5078  0.1230 -0.4183
  186SLPC  H11A21372   1.600   6.028   6.322  2.9758 -1.2929 -0.0245
  186SLPC  H11B21373   1.713   6.068   6.184  0.0492  1.9236  0.6666
  186SLPC     P21374   1.719   5.796   6.205  0.3425  0.2697  0.4782
  186SLPC   O1321375   1.677   5.671   6.135  0.5457 -0.2102 -0.2836
  186SLPC   O1421376   1.847   5.864   6.171 -0.4764  0.3512 -0.3135
  186SLPC   O1221377   1.597   5.889   6.176  0.1568  0.1202  0.3379
  186SLPC   O1121378   1.728   5.776   6.361  0.1951  0.0990 -0.6349
  186SLPC    C121379   1.630   5.690   6.431 -0.9826 -0.8691 -0.4404
  186SLPC    HA21380   1.531   5.734   6.453 -0.5338 -0.3887  0.6827
  186SLPC    HB21381   1.614   5.597   6.372  0.1177 -2.0845  1.1360
  186SLPC    C221382   1.680   5.643   6.576  0.5012  0.1087  0.1401
  186SLPC    HS21383   1.587   5.618   6.633 -1.5998  0.1014 -3.1537
  186SLPC   O2121384   1.753   5.752   6.642  0.0225 -0.0605  0.5345
  186SLPC   C2121385   1.672   5.860   6.678 -0.1338 -0.3777 -0.1582
  186SLPC   O2221386   1.555   5.874   6.659  0.0953  0.1065  0.1112
  186SLPC   C2221387   1.755   5.966   6.749  0.0427  0.4478 -0.2108
  186SLPC   H2R21388   1.833   5.919   6.813  0.2083 -0.3921 -1.0188
  186SLPC   H2S21389   1.802   6.024   6.666 -1.4916 -0.9157 -2.0555
  186SLPC    C321390   1.775   5.526   6.575 -1.1170  0.1068 -0.7620
  186SLPC    HX21391   1.874   5.555   6.533 -2.4220  4.0657 -1.3041
  186SLPC    HY21392   1.730   5.445   6.513 -1.7073  1.1802 -1.7524
  186SLPC   O3121393   1.796   5.470   6.707  0.3191  0.2682  0.0536
  186SLPC   C3121394   1.696   5.415   6.769  1.0222  0.4098  0.3855
  186SLPC   O3221395   1.586   5.388   6.723  0.2029  0.0357  0.0531
  186SLPC   C3221396   1.734   5.429   6.914  0.4935  0.9005  0.1232
  186SLPC   H2X21397   1.844   5.444   6.910  1.2288 -4.0177 -1.5907
  186SLPC   H2Y21398   1.727   5.326   6.954  0.2560  1.1419  0.6971
  186SLPC   C2321399   1.667   6.058   6.837 -0.3495 -0.1120 -0.6848
  186SLPC   H3R21400   1.581   6.097   6.778 -1.5347 -0.9840  0.4278
  186SLPC   H3S21401   1.715   6.155   6.862  1.0702 -1.4573  2.0555
  186SLPC   C2421402   1.608   5.988   6.968 -0.2543  0.0500 -0.3619
  186SLPC   H4R21403   1.695   5.954   7.026 -0.8839  0.7788  1.0257
  186SLPC   H4S21404   1.550   5.901   6.930 -1.6054  2.3533 -3.8251
  186SLPC   C2521405   1.508   6.066   7.044  0.2614  0.2865  0.4736
  186SLPC   H5R21406   1.406   6.074   6.999  0.9409  1.5889 -0.9102
  186SLPC   H5S21407   1.552   6.168   7.052  0.9226  0.1174 -0.7258
  186SLPC   C2621408   1.494   6.018   7.187  0.8823 -0.3483 -0.0531
  186SLPC   H6R21409   1.593   6.031   7.236  0.1749  0.1575  1.2896
  186SLPC   H6S21410   1.462   5.911   7.190 -1.9627  0.4482 -0.8759
  186SLPC   C2721411   1.379   6.092   7.258  0.4758 -0.6157 -0.1700
  186SLPC   H7R21412   1.343   6.021   7.336 -1.7061  0.0140 -0.5736
  186SLPC   H7S21413   1.287   6.095   7.196  0.3031 -0.8092  0.0726
  186SLPC   C2821414   1.395   6.235   7.302 -0.5795 -0.3136  0.0756
  186SLPC   H8R21415   1.296   6.270   7.340 -0.0283  0.3388  0.9112
  186SLPC   H8S21416   1.423   6.300   7.216 -0.1121  0.1326  0.5655
  186SLPC   C2921417   1.497   6.235   7.410 -0.4060 -0.2328  0.1448
  186SLPC   H9R21418   1.597   6.202   7.380  0.4954  1.3578  1.3399
  186SLPC  C21021419   1.487   6.280   7.534  0.5567  0.7057 -0.8359
  186SLPC  H10R21420   1.582   6.285   7.589  1.6194  0.8149 -2.6253
  186SLPC  C21121421   1.369   6.346   7.592 -0.3723  0.8551 -0.3661
  186SLPC  H11R21422   1.296   6.376   7.513 -0.6051  1.2943  0.0100
  186SLPC  H11S21423   1.393   6.447   7.631 -1.8323  1.0117  0.1505
  186SLPC  C21221424   1.293   6.274   7.703  0.6169 -0.2966  0.3603
  186SLPC  H12R21425   1.244   6.182   7.667  0.0942  0.2830 -0.4365
  186SLPC  C21321426   1.275   6.311   7.834 -0.4434  0.0665  0.1612
  186SLPC  H13R21427   1.223   6.242   7.902  0.7333 -0.2547  0.7571
  186SLPC  C21421428   1.338   6.431   7.903 -0.5338  1.0965  0.6306
  186SLPC  H14R21429   1.261   6.505   7.936 -2.5699 -1.2426  1.3188
  186SLPC  H14S21430   1.402   6.500   7.845  1.5478 -1.1545  0.2092
  186SLPC  C21521431   1.428   6.386   8.013  0.4378 -0.4486 -0.4925
  186SLPC  H15R21432   1.503   6.316   7.971  0.9230 -2.6613  3.7256
  186SLPC  H15S21433   1.366   6.335   8.091  1.3168 -0.2807  0.3276
  186SLPC  C21621434   1.509   6.497   8.089  1.2015  1.2711 -0.3024
  186SLPC  H16R21435   1.448   6.578   8.135  1.7311  1.5010 -0.0047
  186SLPC  H16S21436   1.565   6.544   8.006  1.5420 -2.5691 -2.3569
  186SLPC  C21721437   1.601   6.440   8.199 -0.0197 -0.0304  0.8208
  186SLPC  H17R21438   1.651   6.361   8.139 -1.4771 -1.4936  1.4781
  186SLPC  H17S21439   1.543   6.399   8.285  1.5161 -1.2247  1.3108
  186SLPC  C21821440   1.704   6.541   8.241  0.0846  0.1645  0.0923
  186SLPC  H18R21441   1.764   6.578   8.155  0.7258 -2.3093 -0.5526
  186SLPC  H18S21442   1.777   6.495   8.311 -1.1855 -1.1762  0.5723
  186SLPC  H18T21443   1.657   6.629   8.291  0.8214 -0.1028  1.2837
  186SLPC   C3321444   1.665   5.544   6.996 -0.5162  0.6717  0.0424
  186SLPC   H3X21445   1.561   5.564   6.964 -0.6045  1.8816  1.0253
  186SLPC   H3Y21446   1.714   5.643   6.980  0.0827  0.2428 -0.8058
  186SLPC   C3421447   1.664   5.503   7.140 -1.3232 -0.0296 -0.7027
  186SLPC   H4X21448   1.768   5.472   7.164 -1.6025 -0.1062  0.4399
  186SLPC   H4Y21449   1.604   5.409   7.143 -0.5957 -0.4664  0.3217
  186SLPC   C3521450   1.601   5.610   7.239 -0.1495  0.0551 -0.4928
  186SLPC   H5X21451   1.492   5.613   7.216 -0.3587 -2.0852  0.0686
  186SLPC   H5Y21452   1.639   5.711   7.214 -2.8874  1.1979 -0.2879
  186SLPC   C3621453   1.641   5.588   7.387  0.2277  0.3877  0.1651
  186SLPC   H6X21454   1.751   5.592   7.395  0.3592 -0.4104 -1.0376
  186SLPC   H6Y21455   1.598   5.488   7.411  0.3424 -0.4431 -2.8843
  186SLPC   C3721456   1.591   5.695   7.483 -0.1019  0.7509  0.1561
  186SLPC   H7X21457   1.595   5.664   7.589  0.1281  0.3936  0.0444
  186SLPC   H7Y21458   1.483   5.719   7.473 -0.0832  0.4753 -0.8218
  186SLPC   C3821459   1.675   5.826   7.482 -0.0217  0.0552  0.1297
  186SLPC   H8X21460   1.685   5.853   7.375  1.3499 -0.4258  0.1282
  186SLPC   H8Y21461   1.781   5.820   7.516 -0.3695 -2.6706  0.8464
  186SLPC   C3921462   1.600   5.940   7.560 -0.3521 -0.1377  0.0954
  186SLPC   H9X21463   1.512   5.963   7.497  2.2565 -0.4943 -3.8603
  186SLPC   H9Y21464   1.671   6.025   7.567 -0.6711  0.0800  0.7879
  186SLPC  C31021465   1.546   5.911   7.698  0.3359 -0.5942  0.3911
  186SLPC  H10X21466   1.615   5.849   7.759 -0.3884 -0.8225  0.9891
  186SLPC  H10Y21467   1.457   5.845   7.697  2.5800 -3.6794 -1.7614
  186SLPC  C31121468   1.559   6.032   7.798 -0.5355  0.3515  0.2026
  186SLPC  H11X21469   1.460   6.081   7.787 -0.5805 -0.0948 -1.5472
  186SLPC  H11Y21470   1.643   6.099   7.768  0.8125 -0.7148  1.5986
  186SLPC  C31221471   1.574   5.980   7.942 -0.3227  0.2664  0.3912
  186SLPC  H12X21472   1.560   6.071   8.005 -0.0181  0.4278  0.2231
  186SLPC  H12Y21473   1.663   5.919   7.970 -1.0872 -0.1430  1.9983
  186SLPC  C31321474   1.451   5.896   7.977  0.3884  0.4464  0.0631
  186SLPC  H13X21475   1.473   5.794   7.940 -0.5350  0.1029  0.4548
  186SLPC  H13Y21476   1.363   5.940   7.925 -0.5922  0.2802  1.5647
  186SLPC  C31421477   1.429   5.901   8.129  0.3689  0.7206 -1.0314
  186SLPC  H14X21478   1.524   5.901   8.186  0.9970  1.2982 -2.0543
  186SLPC  H14Y21479   1.373   5.809   8.156 -0.1848  0.9405 -1.4368
  186SLPC  C31521480   1.320   6.006   8.168  0.6067  0.1402  0.1603
  186SLPC  H15X21481   1.327   6.100   8.110 -0.0120 -0.4403 -0.8488
  186SLPC  H15Y21482   1.349   6.043   8.269 -1.8016 -0.4221  1.0874
  186SLPC  C31621483   1.176   5.947   8.171 -0.3267  0.5959 -0.1990
  186SLPC  H16X21484   1.167   5.897   8.270 -0.1221 -1.9516 -1.4142
  186SLPC  H16Y21485   1.175   5.880   8.082  0.7898  0.2821  0.0250
  186SLPC  C31721486   1.063   6.051   8.149  0.3945 -0.4995 -0.7094
  186SLPC  H17X21487   1.061   6.085   8.044  1.6241  2.9403  0.3268
  186SLPC  H17Y21488   1.093   6.142   8.205 -1.2051 -1.3370  1.5871
  186SLPC  C31821489   0.926   6.005   8.201 -0.0911 -0.0799  0.4836
  186SLPC  H18X21490   0.913   5.901   8.166 -0.8374  1.0774 -2.8161
  186SLPC  H18Y21491   0.841   6.053   8.148 -0.8718 -0.2705  1.5316
  186SLPC  H18Z21492   0.921   6.010   8.312  2.2259 -2.3805  0.7286
  187SLPC     N21493   2.282   3.769   6.588  0.0967 -0.0871 -0.3077
  187SLPC   C1321494   2.308   3.856   6.472  0.1828  0.0989 -0.0488
  187SLPC  H13A21495   2.329   3.958   6.499  0.1800  0.1704 -0.3114
  187SLPC  H13B21496   2.399   3.822   6.425  0.2307  1.3283 -0.8847
  187SLPC  H13C21497   2.226   3.878   6.405 -0.6355  0.8062  1.1674
  187SLPC   C1421498   2.177   3.837   6.675 -0.0039 -0.6403 -0.0553
  187SLPC  H14A21499   2.201   3.938   6.706  0.8370 -0.6189 -0.7212
  187SLPC  H14B21500   2.080   3.840   6.628 -0.1255 -2.1873  0.0880
  187SLPC  H14C21501   2.161   3.781   6.765 -1.3904  0.4656  0.3972
  187SLPC   C1521502   2.410   3.757   6.665  0.8605  0.0283 -0.8215
  187SLPC  H15A21503   2.431   3.848   6.720 -0.6627  0.0089 -0.1742
  187SLPC  H15B21504   2.410   3.670   6.728 -3.7403 -0.1852 -0.9523
  187SLPC  H15C21505   2.499   3.747   6.605  1.7884 -0.7229  0.6484
  187SLPC   C1221506   2.237   3.628   6.534  0.0064  0.0095  0.0484
  187SLPC  H12A21507   2.317   3.582   6.478  1.0057  0.5047  1.0577
  187SLPC  H12B21508   2.149   3.635   6.471  0.4036 -0.2880 -0.5479
  187SLPC   C1121509   2.210   3.520   6.643 -0.2147  0.6753  0.3645
  187SLPC  H11A21510   2.295   3.496   6.711 -2.2300  0.5788  2.9200
  187SLPC  H11B21511   2.202   3.425   6.586  2.1974  1.0566 -0.6820
  187SLPC     P21512   1.954   3.553   6.632  0.0539  0.2887  0.0349
  187SLPC   O1321513   1.880   3.668   6.678  0.4200 -0.1255 -0.7342
  187SLPC   O1421514   1.969   3.539   6.480  0.0203 -0.4964  0.0024
  187SLPC   O1221515   2.094   3.559   6.713  0.3269  0.1735 -0.1429
  187SLPC   O1121516   1.891   3.429   6.693  0.2110 -0.1021 -0.4616
  187SLPC    C121517   1.923   3.297   6.655  0.2361  0.0864  0.1136
  187SLPC    HA21518   1.888   3.279   6.551 -0.7592  0.2809  0.4103
  187SLPC    HB21519   2.032   3.279   6.650  0.4025  0.2708  2.3775
  187SLPC    C221520   1.865   3.194   6.748 -0.7316 -0.6811 -0.2571
  187SLPC    HS21521   1.754   3.198   6.757 -0.8229  1.4783 -2.0639
  187SLPC   O2121522   1.937   3.203   6.873 -0.0332 -0.6006  0.3980
  187SLPC   C2121523   1.886   3.302   6.951 -0.4150  0.6628  0.2941
  187SLPC   O2221524   1.775   3.348   6.942 -0.4807 -0.0937  0.1390
  187SLPC   C2221525   1.997   3.332   7.060  0.0413  0.4342 -0.0956
  187SLPC   H2R21526   2.051   3.235   7.068 -0.5434  0.1049 -0.0478
  187SLPC   H2S21527   2.069   3.396   7.006  0.2390 -1.3220 -1.9900
  187SLPC    C321528   1.889   3.048   6.685  0.1099 -0.2441 -0.2633
  187SLPC    HX21529   1.995   3.042   6.652 -0.0745  1.7117 -1.3391
  187SLPC    HY21530   1.832   3.041   6.589  1.3077  0.3111 -1.0333
  187SLPC   O3121531   1.860   2.942   6.775  0.5687  0.5165  0.5265
  187SLPC   C3121532   1.737   2.888   6.788  0.4022 -0.5854 -0.2489
  187SLPC   O3221533   1.640   2.930   6.729  0.4675  0.3128  0.1460
  187SLPC   C3221534   1.742   2.756   6.862 -0.0794 -0.2837 -0.0894
  187SLPC   H2X21535   1.834   2.701   6.832 -0.8624 -1.1320 -0.9507
  187SLPC   H2Y21536   1.656   2.698   6.823 -0.8175  0.1663  0.8583
  187SLPC   C2321537   1.948   3.395   7.189  0.3061  0.5647  0.6880
  187SLPC   H3R21538   1.865   3.468   7.179  2.1091  2.8841  2.3349
  187SLPC   H3S21539   2.029   3.455   7.236 -0.5017  1.6556  0.6925
  187SLPC   C2421540   1.902   3.284   7.295  0.6414 -0.1635 -0.4839
  187SLPC   H4R21541   1.993   3.224   7.313  1.3888  1.0341 -0.1992
  187SLPC   H4S21542   1.818   3.221   7.260 -0.5397  2.4457 -2.6290
  187SLPC   C2521543   1.872   3.344   7.427 -0.4134 -0.1776 -0.3909
  187SLPC   H5R21544   1.787   3.414   7.415  1.2421  2.1980  1.2656
  187SLPC   H5S21545   1.963   3.398   7.462 -1.7939  1.3865  0.8320
  187SLPC   C2621546   1.834   3.240   7.537 -0.2593  0.0060 -0.1103
  187SLPC   H6R21547   1.907   3.156   7.541  0.3270  0.5053 -0.1482
  187SLPC   H6S21548   1.735   3.195   7.517 -1.0606  0.6870  2.1301
  187SLPC   C2721549   1.834   3.292   7.685  0.3617  0.4665  0.6412
  187SLPC   H7R21550   1.811   3.204   7.749 -0.1390  1.6040  2.0470
  187SLPC   H7S21551   1.746   3.360   7.696  1.3330  1.3743  3.1806
  187SLPC   C2821552   1.955   3.369   7.730  0.0210  0.4767  0.1254
  187SLPC   H8R21553   1.937   3.407   7.833  0.7031  0.6854  0.1708
  187SLPC   H8S21554   1.980   3.459   7.670 -0.4495  1.6259  1.6135
  187SLPC   C2921555   2.073   3.269   7.724  0.1607 -0.3859 -0.3527
  187SLPC   H9R21556   2.113   3.243   7.625  1.7926 -0.6652  0.3644
  187SLPC  C21021557   2.139   3.225   7.838  0.6268 -0.6643  0.2439
  187SLPC  H10R21558   2.213   3.146   7.819  2.1283  1.0080 -1.1159
  187SLPC  C21121559   2.101   3.258   7.984  0.6905 -0.3264 -0.2124
  187SLPC  H11R21560   2.080   3.367   7.991 -4.1192 -1.0341 -1.7922
  187SLPC  H11S21561   2.186   3.231   8.051 -0.1016 -1.7253  0.2458
  187SLPC  C21221562   1.982   3.177   8.030  0.0641  0.2819  0.3944
  187SLPC  H12R21563   1.978   3.083   7.974  0.0333 -0.0132  0.8838
  187SLPC  C21321564   1.877   3.217   8.106  0.1082 -0.6447 -0.2603
  187SLPC  H13R21565   1.790   3.149   8.102  0.0164 -0.9825  4.2215
  187SLPC  C21421566   1.859   3.349   8.176 -0.6528  0.2912 -0.5785
  187SLPC  H14R21567   1.823   3.429   8.108 -1.4396 -1.6066 -2.4496
  187SLPC  H14S21568   1.959   3.392   8.202  0.9243 -1.8834 -2.7990
  187SLPC  C21521569   1.803   3.326   8.320 -0.3259 -0.5594 -0.3034
  187SLPC  H15R21570   1.799   3.422   8.375  2.4811 -1.4394  1.5614
  187SLPC  H15S21571   1.872   3.264   8.382 -0.0708  0.2343  0.2159
  187SLPC  C21621572   1.659   3.265   8.328  0.2219  0.1860 -0.3714
  187SLPC  H16R21573   1.663   3.156   8.309  1.0166  0.5057 -2.0585
  187SLPC  H16S21574   1.591   3.315   8.256  1.7600 -0.6702 -2.4441
  187SLPC  C21721575   1.587   3.295   8.463 -0.3288  0.4066  0.2017
  187SLPC  H17R21576   1.581   3.405   8.479 -1.3050  0.4746 -0.6316
  187SLPC  H17S21577   1.656   3.247   8.536 -0.1934 -2.9477 -2.0440
  187SLPC  C21821578   1.443   3.227   8.467  0.3622  0.0755 -0.7920
  187SLPC  H18R21579   1.386   3.265   8.554 -1.7246 -0.4418 -1.9024
  187SLPC  H18S21580   1.455   3.117   8.467 -0.1130 -0.0004  1.3331
  187SLPC  H18T21581   1.382   3.248   8.376  1.2588 -0.6116 -1.5622
  187SLPC   C3321582   1.743   2.769   7.018  0.0654 -0.0990 -0.1571
  187SLPC   H3X21583   1.742   2.668   7.062  0.0284 -0.3923 -0.8270
  187SLPC   H3Y21584   1.649   2.825   7.040  0.6492  1.6111 -1.8140
  187SLPC   C3421585   1.867   2.843   7.080 -0.1330 -0.0485  0.1788
  187SLPC   H4X21586   1.841   2.948   7.053 -0.2716 -0.1714 -0.1725
  187SLPC   H4Y21587   1.956   2.801   7.029 -2.0292 -4.2277  0.1608
  187SLPC   C3521588   1.872   2.813   7.227  0.0645  0.0159  0.1281
  187SLPC   H5X21589   1.895   2.704   7.229  3.5269  0.6830 -0.8062
  187SLPC   H5Y21590   1.777   2.848   7.273 -0.3855 -0.6378 -0.3005
  187SLPC   C3621591   1.989   2.888   7.297 -0.3330 -0.3820  0.0356
  187SLPC   H6X21592   1.961   2.995   7.309 -1.5191 -1.0436  4.0172
  187SLPC   H6Y21593   2.083   2.876   7.239 -1.0645 -0.3776 -1.1663
  187SLPC   C3721594   2.007   2.847   7.447 -0.7715 -0.1642  0.7160
  187SLPC   H7X21595   2.060   2.749   7.457 -0.8083 -0.6748 -3.1446
  187SLPC   H7Y21596   2.070   2.929   7.486 -1.6840 -0.4885  2.9728
  187SLPC   C3821597   1.882   2.823   7.527 -0.0367 -0.5207  0.4962
  187SLPC   H8X21598   1.834   2.729   7.494  0.0081 -0.4981  0.3662
  187SLPC   H8Y21599   1.808   2.905   7.516 -0.4270 -0.8016  0.9938
  187SLPC   C3921600   1.910   2.788   7.673 -0.2087  0.2298  0.0299
  187SLPC   H9X21601   1.922   2.883   7.730 -0.1389 -0.2420  0.7955
  187SLPC   H9Y21602   2.005   2.730   7.681 -0.3991 -0.2580 -1.0460
  187SLPC  C31021603   1.799   2.716   7.751  0.1291 -0.1265 -0.0446
  187SLPC  H10X21604   1.783   2.617   7.703  0.4087 -0.3647  0.3535
  187SLPC  H10Y21605   1.702   2.770   7.740  0.7586  1.0031 -0.0410
  187SLPC  C31121606   1.829   2.704   7.903  0.2755 -0.0583 -0.5427
  187SLPC  H11X21607   1.856   2.800   7.951 -1.7310 -0.9398  2.5271
  187SLPC  H11Y21608   1.925   2.649   7.917  0.9658  1.3019  0.1633
  187SLPC  C31221609   1.714   2.631   7.982  1.2182  0.5207 -0.4970
  187SLPC  H12X21610   1.692   2.534   7.932  1.2171 -0.1232  0.7201
  187SLPC  H12Y21611   1.630   2.703   7.981  1.4549  0.8072  0.0093
  187SLPC  C31321612   1.748   2.609   8.132  0.0028 -0.6394  0.0332
  187SLPC  H13X21613   1.849   2.566   8.150  0.5786  1.6496  2.5863
  187SLPC  H13Y21614   1.663   2.557   8.180  1.0699 -0.8198  1.7582
  187SLPC  C31421615   1.745   2.737   8.208  0.2769 -0.1727  0.6549
  187SLPC  H14X21616   1.642   2.774   8.226 -0.1960 -0.5013 -1.2796
  187SLPC  H14Y21617   1.779   2.821   8.144 -0.7667 -0.6957 -0.6026
  187SLPC  C31521618   1.828   2.723   8.344 -0.9200 -0.1319  0.8060
  187SLPC  H15X21619   1.934   2.751   8.326 -0.1337  0.0647  5.0996
  187SLPC  H15Y21620   1.818   2.618   8.379  0.7941 -0.4564  0.3902
  187SLPC  C31621621   1.788   2.844   8.439 -0.0246  1.0489  0.6739
  187SLPC  H16X21622   1.683   2.830   8.475 -0.2711  1.9602  0.3396
  187SLPC  H16Y21623   1.800   2.934   8.375  2.4166 -1.5294 -2.6447
  187SLPC  C31721624   1.872   2.851   8.566  0.2306 -0.9747  0.4922
  187SLPC  H17X21625   1.970   2.878   8.520 -1.3656  2.6809 -0.9604
  187SLPC  H17Y21626   1.874   2.757   8.626  2.0321 -1.0788  0.2889
  187SLPC  C31821627   1.827   2.962   8.658  0.2154  0.5111 -0.3798
  187SLPC  H18X21628   1.912   2.980   8.727 -0.8753 -0.4603  1.2645
  187SLPC  H18Y21629   1.737   2.927   8.714  0.0329  0.9322 -0.4076
  187SLPC  H18Z21630   1.804   3.062   8.614  2.2554  0.8154 -0.7999
  188SLPC     N21631   2.861   5.053   5.982  0.2914 -0.4685  0.0496
  188SLPC   C1321632   2.778   5.174   6.015 -0.8382 -0.1275  0.9140
  188SLPC  H13A21633   2.708   5.198   5.936 -1.4987  1.1273  1.8580
  188SLPC  H13B21634   2.728   5.157   6.109  0.5923  0.2757  1.7619
  188SLPC  H13C21635   2.843   5.257   6.038 -0.9237 -0.6077  2.9836
  188SLPC   C1421636   2.920   5.072   5.849  0.0459  0.0719  0.4837
  188SLPC  H14A21637   2.848   5.107   5.777  1.1743  3.2031  0.7918
  188SLPC  H14B21638   2.995   5.150   5.839  1.9633 -2.1827 -4.3100
  188SLPC  H14C21639   2.961   4.984   5.801 -1.2565  0.9083 -2.2451
  188SLPC   C1521640   2.756   4.939   5.979 -0.8042  0.0805 -0.3006
  188SLPC  H15A21641   2.792   4.838   5.959 -0.8202  0.2673 -1.3369
  188SLPC  H15B21642   2.701   4.938   6.072  0.5224 -0.8683  0.4902
  188SLPC  H15C21643   2.677   4.958   5.909 -2.4204  2.0845  2.0187
  188SLPC   C1221644   2.968   5.032   6.091 -0.6376  0.5420 -0.1030
  188SLPC  H12A21645   3.048   5.101   6.068 -0.1554  0.0599  0.1403
  188SLPC  H12B21646   3.008   4.934   6.073  2.8085  2.0766 -1.0695
  188SLPC   C1121647   2.928   5.029   6.240 -0.2226 -0.0024  0.1935
  188SLPC  H11A21648   2.906   5.136   6.262 -2.9343 -0.0226 -2.1495
  188SLPC  H11B21649   3.021   5.005   6.297 -0.2170  2.6633  1.3796
  188SLPC     P21650   2.827   4.790   6.323  0.4221  0.1765  0.1256
  188SLPC   O1321651   2.708   4.714   6.274  0.1179  0.2475  0.1332
  188SLPC   O1421652   2.961   4.739   6.292  0.5663 -0.1090  0.3185
  188SLPC   O1221653   2.820   4.937   6.263  0.1364 -0.0515 -0.3778
  188SLPC   O1121654   2.815   4.817   6.479 -0.7817 -0.5589 -0.2072
  188SLPC    C121655   2.911   4.887   6.552 -0.2930  0.0840  0.3474
  188SLPC    HA21656   2.957   4.811   6.619  1.7029  0.1022 -0.9501
  188SLPC    HB21657   2.986   4.933   6.483 -0.3698 -3.0475 -1.9276
  188SLPC    C221658   2.850   5.002   6.630  0.0305  0.5643 -0.3385
  188SLPC    HS21659   2.931   5.076   6.646  1.2291 -0.5718 -1.0441
  188SLPC   O2121660   2.798   4.963   6.764 -0.3125  0.4440  0.4329
  188SLPC   C2121661   2.884   4.951   6.858 -0.6771 -0.6581 -0.0177
  188SLPC   O2221662   3.006   4.968   6.856 -0.3265  0.6779  0.0552
  188SLPC   C2221663   2.812   4.896   6.982  0.1037  0.2901 -0.1589
  188SLPC   H2R21664   2.717   4.950   7.000 -1.3785 -2.6239  1.1340
  188SLPC   H2S21665   2.791   4.788   6.968 -1.2584  0.5020  0.2057
  188SLPC    C321666   2.728   5.073   6.554  0.1102 -0.1125 -0.5632
  188SLPC    HX21667   2.647   4.997   6.547 -1.8964  2.0075 -0.8405
  188SLPC    HY21668   2.751   5.105   6.450 -1.1774 -1.0729 -1.1600
  188SLPC   O3121669   2.693   5.192   6.630  0.6663  0.5977  0.0570
  188SLPC   C3121670   2.579   5.178   6.703 -0.4851  0.7427 -0.4595
  188SLPC   O3221671   2.495   5.094   6.702  0.1258 -0.1982 -0.5989
  188SLPC   C3221672   2.568   5.295   6.796 -0.3130  0.2621 -0.2882
  188SLPC   H2X21673   2.528   5.383   6.741  2.6695  1.2812 -0.9048
  188SLPC   H2Y21674   2.667   5.320   6.839 -0.6647 -0.2883  0.8929
  188SLPC   C2321675   2.908   4.911   7.103  0.7612  0.3619  0.0880
  188SLPC   H3R21676   2.960   5.009   7.096 -1.5257  1.8943  3.1752
  188SLPC   H3S21677   2.996   4.844   7.104  0.9415  0.6007  1.2725
  188SLPC   C2421678   2.831   4.889   7.233  0.1391 -0.0372  0.4546
  188SLPC   H4R21679   2.792   4.786   7.217  2.4691 -0.7966 -0.4734
  188SLPC   H4S21680   2.745   4.960   7.236  0.4456  0.3338  0.4832
  188SLPC   C2521681   2.907   4.893   7.371 -0.1127  0.0753  0.5391
  188SLPC   H5R21682   3.017   4.905   7.353 -0.6539  1.0643 -2.4611
  188SLPC   H5S21683   2.897   4.788   7.407  1.6690  0.1387  1.2889
  188SLPC   C2621684   2.848   4.987   7.474 -0.4743 -0.8840  0.5188
  188SLPC   H6R21685   2.901   4.981   7.571  1.0596 -1.3197 -0.3321
  188SLPC   H6S21686   2.748   4.952   7.508 -0.3541  0.1446  1.9901
  188SLPC   C2721687   2.843   5.134   7.435 -0.4659  0.1337 -0.0529
  188SLPC   H7R21688   2.774   5.152   7.350 -0.8925 -1.1050  0.0164
  188SLPC   H7S21689   2.942   5.162   7.394 -0.1814 -0.9212 -0.0985
  188SLPC   C2821690   2.796   5.228   7.539 -0.1872 -0.4655 -0.0518
  188SLPC   H8R21691   2.693   5.208   7.576  0.3854 -3.0692  0.2271
  188SLPC   H8S21692   2.798   5.325   7.484 -0.1755 -0.4521 -0.0276
  188SLPC   C2921693   2.893   5.237   7.658 -0.6684 -0.5015 -0.6347
  188SLPC   H9R21694   2.997   5.238   7.623 -0.4466 -1.2628 -0.0256
  188SLPC  C21021695   2.869   5.234   7.789 -0.0979  0.7132  0.1952
  188SLPC  H10R21696   2.961   5.229   7.849  1.3246  3.8316 -1.6190
  188SLPC  C21121697   2.733   5.202   7.855 -0.4174 -1.1024 -0.8929
  188SLPC  H11R21698   2.748   5.124   7.932 -0.5743 -0.9727 -0.7321
  188SLPC  H11S21699   2.656   5.169   7.781  1.0403 -2.7748 -1.6944
  188SLPC  C21221700   2.669   5.325   7.916 -0.1059 -0.9801  0.6053
  188SLPC  H12R21701   2.650   5.410   7.849 -0.6294 -0.8359  0.9309
  188SLPC  C21321702   2.621   5.352   8.042 -0.3505 -0.1943  0.2118
  188SLPC  H13R21703   2.584   5.453   8.066  0.2031 -0.1699  1.0148
  188SLPC  C21421704   2.629   5.264   8.159 -0.2354 -0.4517 -0.1437
  188SLPC  H14R21705   2.646   5.159   8.126  0.5110 -0.3888  0.0359
  188SLPC  H14S21706   2.542   5.264   8.229  0.5341  1.7466  0.8645
  188SLPC  C21521707   2.749   5.295   8.253  0.6886  0.8153  0.4879
  188SLPC  H15R21708   2.740   5.387   8.315  1.7760  0.5137  1.1123
  188SLPC  H15S21709   2.841   5.299   8.193 -0.2465 -2.3951 -1.2957
  188SLPC  C21621710   2.755   5.178   8.355 -0.4106  0.1705  0.1432
  188SLPC  H16R21711   2.722   5.079   8.316  1.0941 -0.2109 -0.1825
  188SLPC  H16S21712   2.689   5.214   8.437 -2.1036 -1.0173 -0.6778
  188SLPC  C21721713   2.892   5.156   8.419 -0.3583 -0.4244 -0.2470
  188SLPC  H17R21714   2.952   5.092   8.351 -2.0325 -3.5595  1.1345
  188SLPC  H17S21715   2.887   5.103   8.516 -0.9805  0.0532 -0.0070
  188SLPC  C21821716   2.975   5.284   8.439 -0.2326  0.0138  0.1811
  188SLPC  H18R21717   3.000   5.330   8.341 -0.8598  0.7017  0.3481
  188SLPC  H18S21718   3.067   5.267   8.500 -0.5522 -0.0822  0.6376
  188SLPC  H18T21719   2.915   5.356   8.498 -3.4430 -1.5455 -1.0775
  188SLPC   C3321720   2.475   5.267   6.911  0.3913 -0.7258 -1.0054
  188SLPC   H3X21721   2.379   5.216   6.888  0.3710 -1.0152 -0.2753
  188SLPC   H3Y21722   2.443   5.361   6.960  0.3199 -1.0885 -0.3539
  188SLPC   C3421723   2.536   5.174   7.020  0.3889 -0.3637 -0.3819
  188SLPC   H4X21724   2.645   5.185   7.003  0.1209 -0.2364 -2.1208
  188SLPC   H4Y21725   2.510   5.067   7.006 -0.8754  0.1401 -2.1323
  188SLPC   C3521726   2.518   5.222   7.166 -0.3932 -0.4850 -1.2266
  188SLPC   H5X21727   2.572   5.147   7.229 -0.4530  0.3755 -0.1440
  188SLPC   H5Y21728   2.409   5.206   7.178 -0.7508  2.7387  0.2277
  188SLPC   C3621729   2.572   5.354   7.206  0.2496  0.5634 -0.4775
  188SLPC   H6X21730   2.515   5.420   7.137 -0.1229 -0.0612 -0.7745
  188SLPC   H6Y21731   2.682   5.363   7.196  0.3908  0.5660  0.9695
  188SLPC   C3721732   2.528   5.381   7.349 -0.5943 -0.4931  0.1458
  188SLPC   H7X21733   2.557   5.312   7.431  1.1133  0.9498  0.7962
  188SLPC   H7Y21734   2.418   5.380   7.332 -0.4078 -2.7206 -1.0454
  188SLPC   C3821735   2.573   5.524   7.394 -0.5536 -0.0267 -0.5149
  188SLPC   H8X21736   2.528   5.593   7.319  0.4918 -0.1032 -1.2350
  188SLPC   H8Y21737   2.682   5.540   7.411 -0.5081  0.1080 -0.9071
  188SLPC   C3921738   2.522   5.579   7.532  0.5065  0.1298 -0.2152
  188SLPC   H9X21739   2.529   5.514   7.622 -0.8791  2.2129  1.4350
  188SLPC   H9Y21740   2.412   5.588   7.524  0.4471  0.3796  0.8033
  188SLPC  C31021741   2.582   5.713   7.575 -0.6463  0.0813 -0.0580
  188SLPC  H10X21742   2.529   5.797   7.525  2.6313  1.9909 -0.4465
  188SLPC  H10Y21743   2.687   5.709   7.541 -1.1549 -1.9395 -1.5129
  188SLPC  C31121744   2.571   5.737   7.723 -0.3317  0.4646 -0.1404
  188SLPC  H11X21745   2.636   5.663   7.775  0.3339  1.4653  0.4572
  188SLPC  H11Y21746   2.464   5.717   7.748 -0.5932  1.7057 -0.2644
  188SLPC  C31221747   2.631   5.873   7.755 -0.1148 -0.4774 -0.1070
  188SLPC  H12X21748   2.589   5.954   7.691 -4.3210 -3.1245 -0.8753
  188SLPC  H12Y21749   2.742   5.872   7.756 -0.0649  1.6978  2.1188
  188SLPC  C31321750   2.606   5.915   7.901 -0.3320 -0.5356 -1.3191
  188SLPC  H13X21751   2.618   5.834   7.976 -0.6181  0.7438  0.1343
  188SLPC  H13Y21752   2.513   5.971   7.924 -0.4295 -0.1045 -2.7142
  188SLPC  C31421753   2.716   6.018   7.944  0.2581  1.1419 -0.2217
  188SLPC  H14X21754   2.725   6.101   7.871 -1.5131  1.0294 -0.5920
  188SLPC  H14Y21755   2.811   5.959   7.946 -2.1263 -2.9659 -1.7187
  188SLPC  C31521756   2.700   6.071   8.086  0.5658  0.4931 -0.3208
  188SLPC  H15X21757   2.605   6.126   8.103  0.2876 -0.5964  1.8780
  188SLPC  H15Y21758   2.784   6.144   8.091 -0.9185  2.1438  0.7159
  188SLPC  C31621759   2.740   5.967   8.195 -0.0867 -0.3589  0.0544
  188SLPC  H16X21760   2.846   5.941   8.175  0.2803  2.5885 -2.2266
  188SLPC  H16Y21761   2.679   5.876   8.176  0.2315  0.0342 -3.0627
  188SLPC  C31721762   2.726   6.023   8.341  0.6907  0.7114 -0.0629
  188SLPC  H17X21763   2.620   6.051   8.357  0.3948  0.1500 -1.0060
  188SLPC  H17Y21764   2.787   6.115   8.345  3.5386 -0.9735 -2.5312
  188SLPC  C31821765   2.769   5.926   8.448 -0.0211  0.4300  0.1346
  188SLPC  H18X21766   2.775   5.963   8.553 -0.5781 -0.9270  0.6584
  188SLPC  H18Y21767   2.856   5.862   8.419 -1.1332 -2.0731  2.0957
  188SLPC  H18Z21768   2.693   5.845   8.453 -2.2221  2.1562 -3.4129
  189SLPC     N21769   5.247   0.219   5.950 -0.2358 -0.3001  0.4871
  189SLPC   C1321770   5.231   0.089   5.883  1.0214  0.0927 -0.0330
  189SLPC  H13A21771   5.125   0.072   5.871  1.0242 -0.7744  1.1755
  189SLPC  H13B21772   5.261   0.080   5.779 -2.0856 -1.2740 -0.8766
  189SLPC  H13C21773   5.276   0.017   5.949  1.6408  1.9694  1.6312
  189SLPC   C1421774   5.171   0.323   5.874 -0.0810  0.2161  0.2141
  189SLPC  H14A21775   5.216   0.420   5.884 -2.0058  0.8495  3.5337
  189SLPC  H14B21776   5.148   0.300   5.771  1.5090  1.8480 -0.5250
  189SLPC  H14C21777   5.073   0.327   5.919  1.1048 -0.9687  3.0326
  189SLPC   C1521778   5.396   0.259   5.941 -0.4943  0.4345  0.7229
  189SLPC  H15A21779   5.448   0.188   6.004  0.6702  1.9446  1.5055
  189SLPC  H15B21780   5.434   0.252   5.840  0.2760 -0.1972  1.0538
  189SLPC  H15C21781   5.428   0.351   5.987  0.5818  0.4389 -0.0254
  189SLPC   C1221782   5.197   0.217   6.094 -0.9236  0.3871 -0.6822
  189SLPC  H12A21783   5.212   0.317   6.131  1.9733  1.4134 -4.3424
  189SLPC  H12B21784   5.272   0.170   6.155 -1.4394  0.4227 -0.0077
  189SLPC   C1121785   5.059   0.155   6.128  0.1939 -0.2492 -0.2492
  189SLPC  H11A21786   5.040   0.133   6.236  1.7661 -2.6790 -0.4398
  189SLPC  H11B21787   5.072   0.053   6.086  1.6607 -0.2971  0.2831
  189SLPC     P21788   4.921   0.378   6.133 -0.1648  0.0323  0.0585
  189SLPC   O1321789   5.030   0.467   6.093  0.0799 -0.2919  0.0173
  189SLPC   O1421790   4.781   0.431   6.102  0.0060  0.4377  0.6945
  189SLPC   O1221791   4.942   0.228   6.076 -0.3928 -0.1923 -0.0015
  189SLPC   O1121792   4.927   0.355   6.290 -0.2904 -0.4734  0.2024
  189SLPC    C121793   4.808   0.297   6.354 -0.3312 -0.3815  0.5543
  189SLPC    HA21794   4.713   0.344   6.321 -0.3781 -0.1453  1.0201
  189SLPC    HB21795   4.819   0.190   6.327 -1.1500 -0.2425 -0.3262
  189SLPC    C221796   4.814   0.312   6.507  0.2275  0.0934 -0.1116
  189SLPC    HS21797   4.803   0.422   6.521  0.2176  0.1201 -0.3196
  189SLPC   O2121798   4.934   0.249   6.553  0.6779 -0.2948 -0.5276
  189SLPC   C2121799   5.020   0.335   6.601  0.2687  0.6802 -0.0932
  189SLPC   O2221800   5.014   0.455   6.603  0.1190 -0.0562 -0.4370
  189SLPC   C2221801   5.113   0.252   6.682  0.0224  0.2536 -0.0042
  189SLPC   H2R21802   5.055   0.177   6.739 -1.1110  0.6554 -0.6025
  189SLPC   H2S21803   5.175   0.200   6.606  1.5263  1.2977  0.4805
  189SLPC    C321804   4.684   0.253   6.577 -0.2140  1.1351  0.7130
  189SLPC    HX21805   4.669   0.147   6.546  4.0607  0.7442 -0.3097
  189SLPC    HY21806   4.599   0.313   6.539 -0.4415  1.6445  1.9843
  189SLPC   O3121807   4.697   0.281   6.716  0.3772  0.7022 -0.2177
  189SLPC   C3121808   4.737   0.185   6.781 -0.5203  0.2086 -0.7271
  189SLPC   O3221809   4.750   0.065   6.742  0.4699  0.3072  0.3384
  189SLPC   C3221810   4.750   0.215   6.931  0.0097 -0.1687 -0.2342
  189SLPC   H2X21811   4.680   0.298   6.953  2.0862  1.6106 -0.1797
  189SLPC   H2Y21812   4.853   0.253   6.947  0.4759  0.0419 -3.4246
  189SLPC   C2321813   5.198   0.343   6.776 -0.4156 -0.5835 -0.4835
  189SLPC   H3R21814   5.241   0.431   6.723  0.4811  0.0610  1.3117
  189SLPC   H3S21815   5.282   0.286   6.819 -1.4963  0.3852  3.0591
  189SLPC   C2421816   5.115   0.393   6.900 -0.1183 -0.3177  0.2112
  189SLPC   H4R21817   5.083   0.316   6.973 -1.8438 -1.0256 -1.2519
  189SLPC   H4S21818   5.021   0.430   6.853 -0.3507 -1.4410 -0.2170
  189SLPC   C2521819   5.195   0.495   6.986  0.4144  0.6482 -0.3735
  189SLPC   H5R21820   5.243   0.575   6.926 -2.1289  2.3827 -0.1655
  189SLPC   H5S21821   5.275   0.437   7.038  0.5449  1.0796 -0.0876
  189SLPC   C2621822   5.104   0.549   7.097 -0.9267  0.6195 -0.0890
  189SLPC   H6R21823   5.066   0.472   7.168  0.2635 -0.1394 -0.2587
  189SLPC   H6S21824   5.026   0.603   7.040 -1.1784 -0.2875 -0.6107
  189SLPC   C2721825   5.186   0.650   7.182  0.4663  0.9930 -0.0067
  189SLPC   H7R21826   5.122   0.731   7.222 -1.0680 -0.3197  0.2298
  189SLPC   H7S21827   5.263   0.692   7.115  1.8188 -0.6840  0.4481
  189SLPC   C2821828   5.242   0.585   7.309 -0.1450  0.1451 -0.4776
  189SLPC   H8R21829   5.272   0.480   7.285  0.2650 -0.2087  1.4388
  189SLPC   H8S21830   5.165   0.580   7.389  0.4426  0.8429  0.1318
  189SLPC   C2921831   5.374   0.658   7.351 -0.7625  0.4045 -0.0519
  189SLPC   H9R21832   5.464   0.625   7.298 -2.0681 -0.2972 -1.8541
  189SLPC  C21021833   5.396   0.733   7.463 -0.0765  0.0067 -0.1513
  189SLPC  H10R21834   5.497   0.776   7.475  0.4718 -0.4239 -2.8875
  189SLPC  C21121835   5.281   0.754   7.561  0.0008  0.3325  0.4182
  189SLPC  H11R21836   5.191   0.738   7.498 -0.6359 -1.4053  1.7322
  189SLPC  H11S21837   5.279   0.862   7.588  1.1423 -0.0069  1.9325
  189SLPC  C21221838   5.268   0.668   7.683  0.1015 -0.6902 -0.4046
  189SLPC  H12R21839   5.215   0.574   7.662  0.5924 -1.7246  2.7256
  189SLPC  C21321840   5.308   0.686   7.808 -0.0922 -0.1994 -0.1933
  189SLPC  H13R21841   5.301   0.599   7.875 -2.6435 -0.5600 -0.8578
  189SLPC  C21421842   5.383   0.805   7.872  0.0533  0.5286 -0.2997
  189SLPC  H14R21843   5.409   0.878   7.792  3.5307 -1.0633 -0.7126
  189SLPC  H14S21844   5.473   0.760   7.919 -0.3651 -0.7385 -0.6755
  189SLPC  C21521845   5.290   0.877   7.981 -0.4559  0.0258  0.0940
  189SLPC  H15R21846   5.319   0.832   8.078  1.4118 -1.2011 -0.9974
  189SLPC  H15S21847   5.183   0.854   7.962 -1.1758  1.9892  1.5977
  189SLPC  C21621848   5.308   1.028   7.987  0.8651 -0.0018 -0.7971
  189SLPC  H16R21849   5.268   1.064   7.889  0.9892  1.8992 -0.1724
  189SLPC  H16S21850   5.414   1.056   8.003  0.7317  1.1702 -1.9051
  189SLPC  C21721851   5.232   1.115   8.090  0.2514  0.5944  0.0075
  189SLPC  H17R21852   5.255   1.064   8.186 -0.9385  1.8462  0.9640
  189SLPC  H17S21853   5.122   1.107   8.076  0.3150 -0.9532  0.2694
  189SLPC  C21821854   5.273   1.265   8.093 -0.3245 -0.0396 -0.4164
  189SLPC  H18R21855   5.222   1.316   8.178 -0.9808 -0.9138 -0.2810
  189SLPC  H18S21856   5.251   1.314   7.996 -2.4963  1.5648  0.8392
  189SLPC  H18T21857   5.379   1.275   8.126  0.0515 -0.3225 -1.4998
  189SLPC   C3321858   4.730   0.097   7.022  0.7062  0.2379 -0.8140
  189SLPC   H3X21859   4.795   0.015   6.986 -1.0622 -1.3423 -0.4454
  189SLPC   H3Y21860   4.624   0.064   7.015  0.6773 -0.5014  2.3522
  189SLPC   C3421861   4.749   0.126   7.173  0.0882 -0.1345  0.9816
  189SLPC   H4X21862   4.702   0.043   7.230  0.4914 -1.7153 -0.9418
  189SLPC   H4Y21863   4.687   0.216   7.196 -1.7886 -0.6576 -1.7584
  189SLPC   C3521864   4.891   0.168   7.212 -0.2624 -0.3942  0.0044
  189SLPC   H5X21865   4.919   0.266   7.168 -0.3699 -0.8298 -1.0525
  189SLPC   H5Y21866   4.970   0.096   7.183  1.6919  1.0931  1.5073
  189SLPC   C3621867   4.896   0.178   7.366  0.6528 -0.1481  0.4381
  189SLPC   H6X21868   4.988   0.125   7.399  1.2616  1.2327  0.9872
  189SLPC   H6Y21869   4.817   0.113   7.410  1.2877 -0.9975  0.3350
  189SLPC   C3721870   4.896   0.323   7.407 -0.2606  0.1021 -0.1178
  189SLPC   H7X21871   4.814   0.379   7.357 -0.9468 -0.0748  0.7924
  189SLPC   H7Y21872   4.988   0.373   7.373 -1.8251  1.7046 -2.1253
  189SLPC   C3821873   4.885   0.347   7.563 -0.7540  0.5733  0.2878
  189SLPC   H8X21874   4.784   0.312   7.591 -0.4978  1.1496  1.9699
  189SLPC   H8Y21875   4.876   0.456   7.583 -0.6505  0.7235 -0.4418
  189SLPC   C3921876   4.995   0.275   7.644 -1.1196  0.2046  0.2170
  189SLPC   H9X21877   5.087   0.325   7.607 -0.7612  0.4599  1.4200
  189SLPC   H9Y21878   5.004   0.169   7.614 -1.5324  0.0214  0.7232
  189SLPC  C31021879   4.977   0.284   7.797 -0.4523  0.0247  0.0950
  189SLPC  H10X21880   4.910   0.369   7.818 -2.0418 -1.4300  1.0718
  189SLPC  H10Y21881   5.072   0.282   7.855 -1.6274  0.3400  2.0418
  189SLPC  C31121882   4.897   0.161   7.842  0.2847 -0.3438 -0.4218
  189SLPC  H11X21883   4.966   0.074   7.836  0.2303 -0.3887 -0.3979
  189SLPC  H11Y21884   4.804   0.150   7.783  0.9734  0.1807 -1.6263
  189SLPC  C31221885   4.844   0.165   7.985  0.1694 -0.0058 -0.6494
  189SLPC  H12X21886   4.774   0.079   7.990  1.6381 -1.2659 -1.0935
  189SLPC  H12Y21887   4.789   0.258   8.012 -2.6006 -2.4515  2.4569
  189SLPC  C31321888   4.953   0.142   8.089  0.0930  0.1821 -0.7270
  189SLPC  H13X21889   4.998   0.239   8.121  0.7234  0.1490 -1.4945
  189SLPC  H13Y21890   5.032   0.074   8.052 -0.1568 -0.4509 -0.0914
  189SLPC  C31421891   4.892   0.070   8.214  0.0164 -0.5032  0.2558
  189SLPC  H14X21892   4.817  -0.004   8.180 -2.9163  2.6530 -0.3579
  189SLPC  H14Y21893   4.838   0.147   8.273 -0.2468 -0.2781 -0.2821
  189SLPC  C31521894   4.997   0.004   8.311  0.0872 -0.4251  0.1393
  189SLPC  H15X21895   5.078  -0.048   8.256  0.3316  0.2852 -0.1853
  189SLPC  H15Y21896   4.933  -0.062   8.373  2.7906 -1.0888  2.3284
  189SLPC  C31621897   5.051   0.113   8.402  0.5423 -0.4895  0.1422
  189SLPC  H16X21898   4.973   0.183   8.436  2.1790  2.3439 -1.7605
  189SLPC  H16Y21899   5.126   0.178   8.351 -1.7346  2.9721  1.0713
  189SLPC  C31721900   5.133   0.072   8.530 -0.0046  0.6473  0.1468
  189SLPC  H17X21901   5.212   0.149   8.546  0.0774  0.5074  0.4139
  189SLPC  H17Y21902   5.178  -0.026   8.505  1.0963  1.1562  0.0798
  189SLPC  C31821903   5.048   0.072   8.664 -0.9219 -0.3175 -0.0786
  189SLPC  H18X21904   4.955   0.013   8.645 -2.1362  1.8793 -1.1769
  189SLPC  H18Y21905   5.003   0.166   8.702 -0.2625 -0.4038  0.9223
  189SLPC  H18Z21906   5.118   0.046   8.746  1.6214  0.8550 -1.8056
  190SLPC     N21907   5.476   6.029   6.528 -0.2659 -0.0455  0.1617
  190SLPC   C1321908   5.420   6.073   6.388 -0.4162 -0.2302  0.0160
  190SLPC  H13A21909   5.376   6.172   6.391 -0.4372 -0.2492  0.3129
  190SLPC  H13B21910   5.496   6.071   6.311  0.9811  0.8642  1.3535
  190SLPC  H13C21911   5.348   6.000   6.354 -1.1636 -0.7131  2.5348
  190SLPC   C1421912   5.382   6.078   6.633 -0.2009 -0.4686  0.2936
  190SLPC  H14A21913   5.334   6.173   6.612  0.5873  0.1393  1.1678
  190SLPC  H14B21914   5.296   6.013   6.633  0.1565 -0.9386  0.3837
  190SLPC  H14C21915   5.424   6.073   6.732 -1.6130  0.0040  0.9370
  190SLPC   C1521916   5.604   6.104   6.544 -0.1352  0.4191  0.2348
  190SLPC  H15A21917   5.666   6.092   6.456 -0.0856 -0.4878  0.3844
  190SLPC  H15B21918   5.573   6.206   6.563 -1.3397  0.3099 -1.0507
  190SLPC  H15C21919   5.662   6.064   6.625  1.5540  0.6827 -0.8191
  190SLPC   C1221920   5.502   5.884   6.522 -0.0589  0.2196 -0.4281
  190SLPC  H12A21921   5.560   5.854   6.608 -0.6721 -1.1131 -0.4762
  190SLPC  H12B21922   5.563   5.858   6.437  1.4536 -0.3861  0.8174
  190SLPC   C1121923   5.379   5.787   6.528  0.0717  0.8171 -0.2822
  190SLPC  H11A21924   5.347   5.779   6.634 -1.4560  0.8447 -0.7311
  190SLPC  H11B21925   5.428   5.688   6.512  2.7043  1.8456  1.1890
  190SLPC     P21926   5.127   5.838   6.479  0.2437  0.1997  0.4826
  190SLPC   O1321927   5.065   5.954   6.410  0.1506 -0.0870  0.0105
  190SLPC   O1421928   5.061   5.706   6.468  0.8677  0.1746 -0.4730
  190SLPC   O1221929   5.277   5.816   6.430  0.5468 -0.8129 -0.5825
  190SLPC   O1121930   5.140   5.874   6.629 -0.8450  0.5029  0.3823
  190SLPC    C121931   5.035   5.833   6.721  0.0045  0.4565 -0.3808
  190SLPC    HA21932   4.942   5.893   6.707 -0.5747  0.3616  2.7665
  190SLPC    HB21933   5.005   5.728   6.700 -0.6233  0.8156 -1.3204
  190SLPC    C221934   5.080   5.864   6.868 -0.0494 -0.2623 -1.1668
  190SLPC    HS21935   4.998   5.849   6.941 -1.4234 -1.6740 -2.9363
  190SLPC   O2121936   5.124   5.998   6.877  0.2052  0.2041  0.1562
  190SLPC   C2121937   5.030   6.083   6.884  0.1398  0.7028  0.1259
  190SLPC   O2221938   4.910   6.065   6.884  0.0343  0.2720 -0.2088
  190SLPC   C2221939   5.084   6.228   6.887  0.1368  0.3543  0.3747
  190SLPC   H2R21940   5.064   6.262   6.783  0.4917 -0.2916  0.0947
  190SLPC   H2S21941   5.020   6.280   6.961 -0.0506 -2.1963  2.0633
  190SLPC    C321942   5.204   5.773   6.901 -0.1755  0.1666 -0.0387
  190SLPC    HX21943   5.283   5.785   6.825 -1.1881 -0.4308 -1.2035
  190SLPC    HY21944   5.159   5.672   6.888  1.2810 -1.0005  3.2970
  190SLPC   O3121945   5.240   5.801   7.038  0.5416  0.4466  0.6640
  190SLPC   C3121946   5.353   5.856   7.062  0.1537  0.0999 -0.2183
  190SLPC   O3221947   5.438   5.890   6.976 -0.2520  0.6078  0.0141
  190SLPC   C3221948   5.358   5.890   7.206  0.3343  0.4932 -0.0134
  190SLPC   H2X21949   5.301   5.984   7.222  0.4476  0.2864  1.7028
  190SLPC   H2Y21950   5.463   5.925   7.215  0.8647 -0.0309 -3.6214
  190SLPC   C2321951   5.226   6.251   6.942 -0.2913  0.2422  0.3243
  190SLPC   H3R21952   5.257   6.357   6.929  4.1060 -1.1097 -1.1406
  190SLPC   H3S21953   5.294   6.191   6.878 -0.8100  1.6001 -1.5349
  190SLPC   C2421954   5.233   6.232   7.093  0.2178  0.3851 -0.5381
  190SLPC   H4R21955   5.218   6.124   7.110 -2.3172  0.4472 -2.0232
  190SLPC   H4S21956   5.143   6.283   7.134  0.9712 -0.2998  2.0072
  190SLPC   C2521957   5.348   6.280   7.170 -0.1788  0.1167  0.9893
  190SLPC   H5R21958   5.371   6.387   7.147  0.3200 -0.3658 -0.7805
  190SLPC   H5S21959   5.439   6.226   7.137 -0.8442  0.5176 -1.5615
  190SLPC   C2621960   5.341   6.265   7.316  0.1534  0.0564  0.4800
  190SLPC   H6R21961   5.303   6.163   7.339 -2.1406  0.6558 -0.5038
  190SLPC   H6S21962   5.267   6.339   7.352 -0.4659 -0.5680  0.5146
  190SLPC   C2721963   5.483   6.273   7.374  0.3198  0.1095  0.2682
  190SLPC   H7R21964   5.519   6.364   7.323  0.5377 -0.2451 -0.2224
  190SLPC   H7S21965   5.542   6.186   7.335  0.2430  0.7281 -1.2792
  190SLPC   C2821966   5.484   6.290   7.525  0.3464 -0.3806 -0.3447
  190SLPC   H8R21967   5.463   6.193   7.574 -0.3044  0.1084  0.3596
  190SLPC   H8S21968   5.404   6.365   7.543  0.1093 -0.5698 -0.6098
  190SLPC   C2921969   5.611   6.348   7.584 -0.2513 -0.3534 -0.2260
  190SLPC   H9R21970   5.609   6.457   7.596  1.1126 -0.5467  1.9331
  190SLPC  C21021971   5.717   6.284   7.637 -0.1200  0.0572  0.1088
  190SLPC  H10R21972   5.793   6.347   7.687 -0.8737  1.2366 -0.2102
  190SLPC  C21121973   5.738   6.133   7.636  0.0436  0.1613  0.6450
  190SLPC  H11R21974   5.666   6.086   7.565 -3.0045  2.8501  1.8183
  190SLPC  H11S21975   5.723   6.075   7.729 -0.4218  1.0870  1.1456
  190SLPC  C21221976   5.880   6.110   7.588 -0.2511  0.0507 -0.0865
  190SLPC  H12R21977   5.945   6.088   7.674 -1.4857 -1.3993  0.5107
  190SLPC  C21321978   5.928   6.106   7.462 -1.3728 -0.8464  0.3890
  190SLPC  H13R21979   6.036   6.083   7.454 -1.5091 -0.9764 -1.1012
  190SLPC  C21421980   5.847   6.149   7.343  0.2257 -0.5017 -0.8010
  190SLPC  H14R21981   5.895   6.244   7.312  0.7210  0.6226  3.1030
  190SLPC  H14S21982   5.745   6.175   7.379  1.3595  1.1730  1.2726
  190SLPC  C21521983   5.849   6.040   7.234 -0.1101 -0.0951 -0.2823
  190SLPC  H15R21984   5.826   5.939   7.275 -1.5837 -1.1867 -3.6674
  190SLPC  H15S21985   5.950   6.042   7.188 -1.1580  0.0249 -2.6459
  190SLPC  C21621986   5.748   6.049   7.122  0.3318 -0.1733 -0.8343
  190SLPC  H16R21987   5.646   6.043   7.167  1.0207  1.3449  0.9888
  190SLPC  H16S21988   5.759   5.970   7.045  2.3584 -1.0757  0.3570
  190SLPC  C21721989   5.752   6.189   7.060 -0.3335 -0.7225 -0.1267
  190SLPC  H17R21990   5.849   6.185   7.006  0.5818 -2.2749  1.5773
  190SLPC  H17S21991   5.761   6.270   7.134 -1.6953 -0.5310 -0.1685
  190SLPC  C21821992   5.641   6.211   6.957 -0.1707  0.1576 -0.3076
  190SLPC  H18R21993   5.567   6.285   6.994  0.0538 -0.8191  2.2082
  190SLPC  H18S21994   5.595   6.114   6.927  1.0087 -0.6494  0.4310
  190SLPC  H18T21995   5.695   6.240   6.865  2.5180 -1.7430  0.5948
  190SLPC   C3321996   5.314   5.778   7.304  0.9222 -0.3609  0.2189
  190SLPC   H3X21997   5.390   5.697   7.304 -0.0769 -1.3207 -0.5842
  190SLPC   H3Y21998   5.219   5.739   7.261  1.0859  0.8853 -1.3412
  190SLPC   C3421999   5.272   5.837   7.446 -0.0295 -0.4400 -0.1426
  190SLPC   H4X22000   5.229   5.752   7.504  1.4891 -1.7273 -0.8615
  190SLPC   H4Y22001   5.193   5.915   7.448  0.8583  0.4807 -0.4834
  190SLPC   C3522002   5.392   5.889   7.516  0.3461 -0.1493 -0.2153
  190SLPC   H5X22003   5.425   5.991   7.488 -0.8229  0.7397  1.5536
  190SLPC   H5Y22004   5.477   5.827   7.482  0.0979 -0.5467 -0.1262
  190SLPC   C3622005   5.379   5.872   7.670 -0.4222 -0.0362 -0.1983
  190SLPC   H6X22006   5.477   5.871   7.722 -1.0346 -1.4173  0.9659
  190SLPC   H6Y22007   5.333   5.774   7.694 -2.8657  1.2595  0.5807
  190SLPC   C3722008   5.296   5.981   7.736  0.0962  0.3508 -0.0497
  190SLPC   H7X22009   5.198   5.994   7.684  0.1079  0.3574 -0.0706
  190SLPC   H7Y22010   5.343   6.080   7.720 -0.0861  0.5041  0.3623
  190SLPC   C3822011   5.271   5.957   7.888  0.7474  0.4709 -0.1059
  190SLPC   H8X22012   5.205   5.871   7.911 -0.9853  1.7032 -0.3475
  190SLPC   H8Y22013   5.228   6.050   7.931  2.3328  1.2131 -0.0745
  190SLPC   C3922014   5.397   5.930   7.975  0.0626  0.2213  0.0986
  190SLPC   H9X22015   5.445   6.029   7.973 -0.4312  0.4542 -1.8536
  190SLPC   H9Y22016   5.464   5.855   7.929 -0.2418 -0.1021  0.1762
  190SLPC  C31022017   5.364   5.877   8.111  0.8417  1.3401 -0.3487
  190SLPC  H10X22018   5.318   5.778   8.090  4.0627 -0.0702 -0.9858
  190SLPC  H10Y22019   5.288   5.937   8.166 -0.7630 -2.9880  2.4483
  190SLPC  C31122020   5.495   5.850   8.190  0.1083 -0.0381  0.0641
  190SLPC  H11X22021   5.554   5.941   8.212  0.4523 -0.2203 -0.0917
  190SLPC  H11Y22022   5.553   5.787   8.119 -1.1840 -0.7420 -0.3846
  190SLPC  C31222023   5.461   5.771   8.317 -0.0397 -0.7091  0.0597
  190SLPC  H12X22024   5.423   5.671   8.287 -1.9645  0.3332 -1.0209
  190SLPC  H12Y22025   5.386   5.823   8.382  0.7034 -0.0367  0.3912
  190SLPC  C31322026   5.584   5.743   8.409  0.6956 -0.1397 -0.0685
  190SLPC  H13X22027   5.649   5.666   8.362 -1.0698 -0.7010 -1.6498
  190SLPC  H13Y22028   5.548   5.684   8.496  0.7260  0.8451  0.6090
  190SLPC  C31422029   5.660   5.867   8.453 -0.6202  0.0239 -0.0468
  190SLPC  H14X22030   5.595   5.944   8.499  0.6392  0.5682  0.8609
  190SLPC  H14Y22031   5.699   5.917   8.362 -1.0114  0.5249  0.0606
  190SLPC  C31522032   5.780   5.860   8.545  0.4625 -0.5149  0.4076
  190SLPC  H15X22033   5.870   5.800   8.522  0.2531 -0.1178 -1.4764
  190SLPC  H15Y22034   5.738   5.804   8.632  0.9654 -2.9639 -0.9002
  190SLPC  C31622035   5.820   5.986   8.625 -0.1745  0.1180  0.1561
  190SLPC  H16X22036   5.897   5.959   8.701  0.6216 -2.3245 -1.4811
  190SLPC  H16Y22037   5.732   6.007   8.690  1.4063 -1.6821  2.9626
  190SLPC  C31722038   5.872   6.097   8.537  0.0697 -0.4332 -0.0031
  190SLPC  H17X22039   5.899   6.194   8.585  3.2552 -1.5811  0.6255
  190SLPC  H17Y22040   5.789   6.127   8.470 -0.3496  0.9240  1.0948
  190SLPC  C31822041   5.978   6.072   8.435 -0.1250  0.0896  0.0176
  190SLPC  H18X22042   6.085   6.077   8.467  0.3104 -1.9265 -1.0217
  190SLPC  H18Y22043   5.974   6.148   8.355  0.2846 -0.3289 -0.4017
  190SLPC  H18Z22044   5.963   5.968   8.398  1.0808  0.9485 -3.0565
  191SLPC     N22045   5.187   1.786   5.718  0.0123  0.9629  0.7782
  191SLPC   C1322046   5.067   1.732   5.646 -0.2744 -0.0370  0.7838
  191SLPC  H13A22047   4.976   1.787   5.663  0.2089  0.4741  1.7565
  191SLPC  H13B22048   5.091   1.740   5.541  0.5600 -0.0422  0.9622
  191SLPC  H13C22049   5.037   1.631   5.669 -0.3025 -0.3122 -0.4280
  191SLPC   C1422050   5.255   1.881   5.622 -0.1120 -0.1098 -0.3508
  191SLPC  H14A22051   5.199   1.972   5.608  2.1419  1.9373  3.1985
  191SLPC  H14B22052   5.350   1.914   5.662 -0.7174 -0.8193  1.7551
  191SLPC  H14C22053   5.265   1.838   5.524  2.3063 -1.8146  0.5731
  191SLPC   C1522054   5.284   1.676   5.733 -0.2982  0.1631 -0.7134
  191SLPC  H15A22055   5.238   1.601   5.797  1.0633 -0.7158 -0.7584
  191SLPC  H15B22056   5.296   1.627   5.638 -0.5819 -0.2418 -0.5440
  191SLPC  H15C22057   5.377   1.696   5.784  0.9595 -1.9468 -2.1154
  191SLPC   C1222058   5.152   1.871   5.842  0.8076  0.0209 -0.3678
  191SLPC  H12A22059   5.098   1.960   5.812  1.4243  0.8149  0.8107
  191SLPC  H12B22060   5.244   1.910   5.883  0.3821 -0.7301  1.3733
  191SLPC   C1122061   5.066   1.799   5.949  0.2372  0.4501  0.3057
  191SLPC  H11A22062   4.966   1.777   5.907  1.3135 -1.4028 -1.4047
  191SLPC  H11B22063   5.041   1.867   6.033 -0.0720  1.0165 -0.2449
  191SLPC     P22064   5.251   1.685   6.093  0.1685 -0.0303 -0.1099
  191SLPC   O1322065   5.291   1.545   6.129 -0.8733 -0.0285 -0.6206
  191SLPC   O1422066   5.354   1.772   6.031 -0.5410  0.0153  0.0789
  191SLPC   O1222067   5.132   1.672   5.988 -0.1913 -0.3434 -0.1664
  191SLPC   O1122068   5.200   1.767   6.225 -0.0572 -0.2223  0.6471
  191SLPC    C122069   5.104   1.709   6.308 -0.5038  0.1656  0.2678
  191SLPC    HA22070   5.080   1.604   6.282 -1.1742  0.3173  0.2493
  191SLPC    HB22071   5.131   1.697   6.415 -2.4646  0.3098  0.8100
  191SLPC    C222072   4.970   1.798   6.316  0.1061 -0.5628  0.2217
  191SLPC    HS22073   4.942   1.829   6.213 -1.7465 -1.0205  0.5642
  191SLPC   O2122074   5.001   1.915   6.399  0.1815  0.2928 -0.3374
  191SLPC   C2122075   4.902   2.009   6.386 -0.4614 -0.0549 -0.3350
  191SLPC   O2222076   4.814   2.001   6.308 -0.6402  0.4633 -0.1485
  191SLPC   C2222077   4.944   2.127   6.484 -0.1067  0.1447 -0.7103
  191SLPC   H2R22078   5.042   2.098   6.527 -1.0388  0.5137  1.7559
  191SLPC   H2S22079   4.958   2.216   6.420 -2.0979  0.1418 -1.1979
  191SLPC    C322080   4.849   1.721   6.364 -0.5927 -1.0865 -0.3844
  191SLPC    HX22081   4.849   1.640   6.288 -0.5274 -0.8486 -0.6381
  191SLPC    HY22082   4.748   1.763   6.346 -0.4410  0.0557  1.2567
  191SLPC   O3122083   4.863   1.656   6.490  0.0382 -0.0336 -0.4546
  191SLPC   C3122084   4.763   1.679   6.568  0.2315 -0.0658 -0.0490
  191SLPC   O3222085   4.665   1.756   6.550 -0.2372 -0.2500  0.2061
  191SLPC   C3222086   4.797   1.592   6.692  0.1965  0.2363  0.0970
  191SLPC   H2X22087   4.897   1.622   6.728 -1.1065  2.0287  2.3609
  191SLPC   H2Y22088   4.798   1.491   6.645 -1.0406  0.1853  0.1541
  191SLPC   C2322089   4.836   2.161   6.591  0.0301  0.4154  0.4286
  191SLPC   H3R22090   4.736   2.164   6.542  0.9573 -0.5822 -1.5803
  191SLPC   H3S22091   4.868   2.261   6.629  2.4128  0.3017 -1.2158
  191SLPC   C2422092   4.838   2.059   6.707 -1.0089  0.2667  0.0059
  191SLPC   H4R22093   4.942   2.050   6.746 -1.7381 -0.4162  1.9021
  191SLPC   H4S22094   4.819   1.955   6.673 -1.3182  0.7584 -1.3356
  191SLPC   C2522095   4.739   2.095   6.817 -1.1928  0.1587 -0.1836
  191SLPC   H5R22096   4.744   2.027   6.905 -2.6447 -0.3725 -0.5056
  191SLPC   H5S22097   4.633   2.089   6.785 -1.1145 -0.2280 -0.3633
  191SLPC   C2622098   4.765   2.237   6.873  0.6569  0.0897  0.0953
  191SLPC   H6R22099   4.742   2.305   6.788  2.2137 -1.2059 -1.4028
  191SLPC   H6S22100   4.873   2.238   6.899  1.0755 -1.8837 -1.4485
  191SLPC   C2722101   4.667   2.260   6.988  0.3566 -0.2402  0.3104
  191SLPC   H7R22102   4.672   2.179   7.063 -3.6788 -0.2733  0.6676
  191SLPC   H7S22103   4.571   2.230   6.942 -1.7013  1.6443  3.1737
  191SLPC   C2822104   4.661   2.389   7.061 -0.0331 -0.9816 -0.0191
  191SLPC   H8R22105   4.569   2.392   7.123  0.0846  1.5505  0.0896
  191SLPC   H8S22106   4.660   2.465   6.979 -1.0584  1.9555  2.6186
  191SLPC   C2922107   4.787   2.389   7.149  0.4731 -0.6170  0.4536
  191SLPC   H9R22108   4.877   2.377   7.087  0.5973  0.0552  0.4993
  191SLPC  C21022109   4.790   2.393   7.285 -0.4904  0.3841  0.4417
  191SLPC  H10R22110   4.885   2.393   7.342 -2.3672  3.2019  3.7885
  191SLPC  C21122111   4.677   2.394   7.388  0.4271 -0.0761  0.6432
  191SLPC  H11R22112   4.622   2.298   7.387 -1.0787  0.7817  0.1401
  191SLPC  H11S22113   4.596   2.461   7.351  2.7361  2.0091 -0.8107
  191SLPC  C21222114   4.717   2.397   7.528 -0.1503  0.4803  0.2629
  191SLPC  H12R22115   4.738   2.296   7.567 -0.5307 -0.0427 -0.8640
  191SLPC  C21322116   4.735   2.505   7.604  0.2231  0.6889 -0.0885
  191SLPC  H13R22117   4.778   2.477   7.701  1.4918 -1.4944 -1.2338
  191SLPC  C21422118   4.714   2.648   7.553  0.2872  0.3386 -1.0282
  191SLPC  H14R22119   4.662   2.638   7.456  0.1130  0.1006 -0.9100
  191SLPC  H14S22120   4.812   2.696   7.530  0.1263  0.8960 -0.5787
  191SLPC  C21522121   4.636   2.733   7.653  0.0917 -0.0985 -0.6882
  191SLPC  H15R22122   4.655   2.842   7.641  1.2747  0.0225  2.0765
  191SLPC  H15S22123   4.672   2.721   7.757  0.1795  0.6534 -0.6257
  191SLPC  C21622124   4.487   2.726   7.635  0.2031 -0.6657  0.1841
  191SLPC  H16R22125   4.462   2.619   7.619 -3.1835  0.1879 -0.5522
  191SLPC  H16S22126   4.444   2.776   7.546  1.8653  2.6445  1.1693
  191SLPC  C21722127   4.397   2.786   7.742 -0.3188  0.2435 -0.0865
  191SLPC  H17R22128   4.418   2.759   7.848 -3.0810 -1.8146 -0.0061
  191SLPC  H17S22129   4.291   2.761   7.723 -0.0590 -0.9312 -0.0308
  191SLPC  C21822130   4.395   2.941   7.733 -0.1485 -0.1458  0.2145
  191SLPC  H18R22131   4.313   2.981   7.798 -1.7932 -3.3155  0.1882
  191SLPC  H18S22132   4.371   2.976   7.631 -1.9943  0.7377  0.9151
  191SLPC  H18T22133   4.490   2.974   7.780 -1.1699  1.9118  0.9274
  191SLPC   C3322134   4.695   1.614   6.810 -0.0625  0.0251 -0.3189
  191SLPC   H3X22135   4.589   1.583   6.795 -0.2043  0.6882 -0.7221
  191SLPC   H3Y22136   4.693   1.725   6.819 -2.2651  0.0888 -1.0928
  191SLPC   C3422137   4.744   1.562   6.944  0.8709  0.3990 -0.3914
  191SLPC   H4X22138   4.853   1.581   6.955  0.7301  0.4495  1.0561
  191SLPC   H4Y22139   4.733   1.452   6.956 -0.5904  0.7573  1.9827
  191SLPC   C3522140   4.691   1.635   7.069 -0.5866 -0.1115  0.0923
  191SLPC   H5X22141   4.582   1.640   7.088 -1.2956  0.1897 -3.7341
  191SLPC   H5Y22142   4.729   1.739   7.068  0.7549 -0.5999 -1.3253
  191SLPC   C3622143   4.736   1.568   7.199  0.2266  0.8599 -0.6672
  191SLPC   H6X22144   4.847   1.560   7.198  0.2472  1.2043 -2.6760
  191SLPC   H6Y22145   4.696   1.465   7.212  0.5267  0.9926  1.4966
  191SLPC   C3722146   4.688   1.651   7.323 -0.3002 -0.0786 -0.4040
  191SLPC   H7X22147   4.581   1.679   7.311 -0.9626 -0.4987  3.8419
  191SLPC   H7Y22148   4.738   1.751   7.319  1.0509 -0.7693 -1.2851
  191SLPC   C3822149   4.708   1.591   7.451 -0.2169 -0.2731 -0.5296
  191SLPC   H8X22150   4.814   1.559   7.447 -0.3355 -1.0050  1.9348
  191SLPC   H8Y22151   4.654   1.495   7.458  0.0756 -0.4326 -0.4564
  191SLPC   C3922152   4.698   1.693   7.569 -0.2170  0.6673 -0.5722
  191SLPC   H9X22153   4.612   1.764   7.561 -1.4583 -0.8403 -0.7704
  191SLPC   H9Y22154   4.799   1.738   7.574 -0.3155  0.7261  1.5422
  191SLPC  C31022155   4.699   1.635   7.718  0.1602  0.2769  0.6674
  191SLPC  H10X22156   4.747   1.716   7.776  2.4075 -0.6269  0.0998
  191SLPC  H10Y22157   4.771   1.551   7.725 -0.7752 -0.8526 -2.4746
  191SLPC  C31122158   4.560   1.599   7.784 -0.0871  0.6761 -0.7440
  191SLPC  H11X22159   4.590   1.541   7.874 -0.7014  0.0008 -0.9730
  191SLPC  H11Y22160   4.506   1.528   7.718  0.0210  0.2726 -0.4021
  191SLPC  C31222161   4.483   1.726   7.833 -0.4719 -0.2331 -0.1904
  191SLPC  H12X22162   4.488   1.797   7.748 -0.7347 -0.1871 -0.1676
  191SLPC  H12Y22163   4.539   1.778   7.914 -1.7854  1.3463 -0.2785
  191SLPC  C31322164   4.337   1.703   7.860  0.1668  0.6352  0.0598
  191SLPC  H13X22165   4.298   1.631   7.784  1.1423  2.0021 -1.7884
  191SLPC  H13Y22166   4.277   1.795   7.849  1.6530  1.6079 -0.0397
  191SLPC  C31422167   4.308   1.641   7.999  1.0284  0.3940 -0.3786
  191SLPC  H14X22168   4.377   1.557   8.020 -0.7266 -0.9766  0.0343
  191SLPC  H14Y22169   4.209   1.591   7.989  1.2847 -0.1131 -0.4031
  191SLPC  C31522170   4.306   1.738   8.119  0.7739 -0.5084  0.2404
  191SLPC  H15X22171   4.407   1.781   8.136 -0.8977  2.9982  1.8967
  191SLPC  H15Y22172   4.284   1.669   8.204  1.7067 -0.3725  0.6061
  191SLPC  C31622173   4.200   1.847   8.105 -0.3842 -0.5144 -0.3324
  191SLPC  H16X22174   4.106   1.813   8.057 -0.2344 -1.4409  0.0337
  191SLPC  H16Y22175   4.236   1.916   8.025 -2.1571 -0.1792 -0.8634
  191SLPC  C31722176   4.165   1.915   8.241 -0.6304  0.3928 -0.6870
  191SLPC  H17X22177   4.255   1.941   8.301 -0.6919 -0.8574 -0.0404
  191SLPC  H17Y22178   4.107   1.837   8.296 -0.9178  0.6495 -0.6232
  191SLPC  C31822179   4.096   2.051   8.218  0.2006  0.1698  0.3010
  191SLPC  H18X22180   4.109   2.108   8.313  0.9916  1.6973 -0.6954
  191SLPC  H18Y22181   3.987   2.048   8.198  0.1973  1.3276  0.1217
  191SLPC  H18Z22182   4.150   2.099   8.133 -1.1481 -0.0027 -0.6580
  192SLPC     N22183   5.332   2.578   6.212 -0.0637 -0.2369  0.1283
  192SLPC   C1322184   5.254   2.691   6.164  0.1058 -0.1635  0.0452
  192SLPC  H13A22185   5.149   2.666   6.172  0.7437 -3.4699 -1.1973
  192SLPC  H13B22186   5.264   2.777   6.229  0.7688  1.1924 -1.8086
  192SLPC  H13C22187   5.274   2.712   6.060 -1.1954  1.7555  0.1408
  192SLPC   C1422188   5.472   2.618   6.208 -0.1872 -0.4480 -0.2748
  192SLPC  H14A22189   5.527   2.559   6.280 -1.8633 -0.0434  1.3840
  192SLPC  H14B22190   5.522   2.586   6.117  0.3311 -3.2749  0.9622
  192SLPC  H14C22191   5.488   2.724   6.215  0.5660 -0.6053  0.3784
  192SLPC   C1522192   5.308   2.457   6.128 -0.1460  0.0373  0.0111
  192SLPC  H15A22193   5.383   2.383   6.153 -0.6613  0.0690  1.7119
  192SLPC  H15B22194   5.207   2.418   6.126  0.8735 -2.6408 -1.4925
  192SLPC  H15C22195   5.323   2.476   6.023 -0.6901 -0.1872 -0.1117
  192SLPC   C1222196   5.296   2.562   6.358  1.2031 -0.7400 -0.3276
  192SLPC  H12A22197   5.301   2.652   6.418 -0.8507 -1.8776  1.6362
  192SLPC  H12B22198   5.370   2.496   6.400  1.7985  2.7962  4.6588
  192SLPC   C1122199   5.162   2.494   6.389  0.0009  0.3653  0.2420
  192SLPC  H11A22200   5.156   2.473   6.498  0.5843 -1.4561 -0.0613
  192SLPC  H11B22201   5.168   2.391   6.349 -0.9150 -0.6172  2.5447
  192SLPC     P22202   5.003   2.702   6.420  0.3579  0.0310  0.1169
  192SLPC   O1322203   5.114   2.801   6.419 -0.0644 -0.0026  0.4705
  192SLPC   O1422204   4.875   2.743   6.364  0.3997 -0.0901 -0.2845
  192SLPC   O1222205   5.053   2.566   6.344  0.5927 -0.4021  0.0889
  192SLPC   O1122206   4.980   2.652   6.571 -0.1922  0.0879  0.2117
  192SLPC    C122207   4.890   2.695   6.671 -0.0359 -0.0819  0.7396
  192SLPC    HA22208   4.836   2.786   6.637 -1.1556 -2.4626 -4.2307
  192SLPC    HB22209   4.814   2.614   6.686  1.0562 -1.4342 -0.8530
  192SLPC    C222210   4.955   2.714   6.808 -0.6816  0.3875 -0.1542
  192SLPC    HS22211   4.881   2.755   6.880  2.1690  0.6503  2.7206
  192SLPC   O2122212   5.071   2.798   6.801 -0.4162  0.1166 -0.2907
  192SLPC   C2122213   5.064   2.918   6.754  0.0559 -0.7202 -0.3211
  192SLPC   O2222214   4.960   2.980   6.742 -0.3008 -0.4200 -0.5026
  192SLPC   C2222215   5.201   2.981   6.705 -0.9327  0.2892  0.2558
  192SLPC   H2R22216   5.219   2.933   6.606 -3.2653  0.4225 -0.2687
  192SLPC   H2S22217   5.182   3.090   6.691  0.5322  0.7402  1.7342
  192SLPC    C322218   4.994   2.573   6.867 -0.3277  0.1803 -0.2251
  192SLPC    HX22219   5.077   2.531   6.806  0.0121 -0.2776  0.5454
  192SLPC    HY22220   4.910   2.503   6.849  0.3022 -0.9972  1.2826
  192SLPC   O3122221   5.018   2.582   7.010  0.1672 -0.6084 -0.9019
  192SLPC   C3122222   5.137   2.539   7.051 -0.0778 -0.6075  0.4227
  192SLPC   O3222223   5.229   2.496   6.984 -0.3417 -0.2848 -0.1981
  192SLPC   C3222224   5.141   2.568   7.205 -0.3063 -0.2743  0.6810
  192SLPC   H2X22225   5.044   2.546   7.253 -1.2712  3.5475  0.6871
  192SLPC   H2Y22226   5.175   2.674   7.215 -0.6472 -0.0850 -0.1729
  192SLPC   C2322227   5.313   2.959   6.812  0.0310 -0.7791  0.0189
  192SLPC   H3R22228   5.408   2.980   6.759  1.2598 -1.0923  2.0524
  192SLPC   H3S22229   5.325   2.852   6.838  1.6192 -0.0641  2.3368
  192SLPC   C2422230   5.295   3.046   6.931 -0.6023  0.1518  0.2940
  192SLPC   H4R22231   5.212   3.018   6.999  0.2021  0.1887  1.3204
  192SLPC   H4S22232   5.278   3.152   6.902  0.7339  0.3083  0.0383
  192SLPC   C2522233   5.425   3.059   7.022 -0.1958  0.2867 -0.3120
  192SLPC   H5R22234   5.513   3.051   6.955 -0.4449  1.4985 -0.8003
  192SLPC   H5S22235   5.433   2.970   7.088  0.5718 -0.4921 -1.4378
  192SLPC   C2622236   5.427   3.198   7.094  0.2190  1.2695  0.4125
  192SLPC   H6R22237   5.431   3.279   7.018 -1.2538  1.4888  0.5622
  192SLPC   H6S22238   5.530   3.204   7.135 -0.0099  0.5691  1.0989
  192SLPC   C2722239   5.322   3.221   7.204 -0.5221 -0.0646 -0.4065
  192SLPC   H7R22240   5.223   3.225   7.155 -0.3792  2.3954 -0.5290
  192SLPC   H7S22241   5.358   3.308   7.263  0.4678 -0.3184 -0.6268
  192SLPC   C2822242   5.319   3.109   7.309 -0.4961 -0.4830  0.1796
  192SLPC   H8R22243   5.403   3.112   7.382 -0.9021  1.5218  0.6056
  192SLPC   H8S22244   5.325   3.012   7.256  0.0689 -1.0285  1.2175
  192SLPC   C2922245   5.193   3.128   7.396 -0.9077  0.8391 -0.1580
  192SLPC   H9R22246   5.199   3.220   7.457 -1.4384  1.8371 -1.5793
  192SLPC  C21022247   5.086   3.055   7.399  0.7289 -0.1048  0.3307
  192SLPC  H10R22248   4.996   3.091   7.450 -0.1717 -0.0596 -1.2631
  192SLPC  C21122249   5.048   2.926   7.325  0.4897  0.4713 -0.1460
  192SLPC  H11R22250   4.987   2.859   7.389 -1.8672  0.5631 -2.2197
  192SLPC  H11S22251   5.141   2.867   7.311 -0.2154 -0.7577  0.3145
  192SLPC  C21222252   4.983   2.935   7.194  0.2783 -0.1633 -0.5473
  192SLPC  H12R22253   5.049   2.977   7.117  0.6012  0.2003 -0.0753
  192SLPC  C21322254   4.855   2.902   7.159 -0.1713  0.3212  0.0399
  192SLPC  H13R22255   4.817   2.911   7.056 -0.2980 -0.0442  0.0553
  192SLPC  C21422256   4.746   2.857   7.257 -0.3659 -0.4199  0.1878
  192SLPC  H14R22257   4.738   2.934   7.337  0.5421  1.3368 -1.3520
  192SLPC  H14S22258   4.774   2.762   7.306  1.5275 -0.3251 -0.6348
  192SLPC  C21522259   4.603   2.852   7.198  0.4343  0.7391  0.7616
  192SLPC  H15R22260   4.585   2.939   7.131 -0.0086 -0.1128 -0.2498
  192SLPC  H15S22261   4.531   2.853   7.282 -1.2541  2.1943 -0.6482
  192SLPC  C21622262   4.570   2.725   7.108 -0.1306 -0.0207 -1.0109
  192SLPC  H16R22263   4.563   2.630   7.164  1.9348  0.6374  0.4410
  192SLPC  H16S22264   4.639   2.720   7.021 -0.1782 -0.5222 -1.0164
  192SLPC  C21722265   4.434   2.733   7.032  0.2097  0.2033 -0.0485
  192SLPC  H17R22266   4.434   2.808   6.950 -0.3099  0.3320  0.0719
  192SLPC  H17S22267   4.432   2.631   6.988  1.0697 -0.1184  0.6512
  192SLPC  C21822268   4.317   2.749   7.127 -0.2275  0.1777 -0.5701
  192SLPC  H18R22269   4.335   2.697   7.223 -1.2504 -0.8406 -0.9239
  192SLPC  H18S22270   4.225   2.709   7.079 -1.9273 -2.2103  4.3677
  192SLPC  H18T22271   4.311   2.858   7.147  3.6073  0.0572  1.7279
  192SLPC   C3322272   5.251   2.488   7.274  0.6463  0.1725 -0.5061
  192SLPC   H3X22273   5.341   2.494   7.209  0.2598  0.2844 -1.0263
  192SLPC   H3Y22274   5.220   2.381   7.277 -0.3837  0.4569 -0.9487
  192SLPC   C3422275   5.281   2.536   7.415 -0.1851  0.4130  0.2971
  192SLPC   H4X22276   5.338   2.631   7.415 -0.9872  0.9019 -1.4467
  192SLPC   H4Y22277   5.344   2.459   7.465 -1.1998 -1.9976 -2.0086
  192SLPC   C3522278   5.160   2.566   7.499  0.4394  0.0984 -0.1949
  192SLPC   H5X22279   5.103   2.475   7.528 -0.0874  0.0007 -1.5318
  192SLPC   H5Y22280   5.094   2.644   7.457 -0.7321 -0.2905  0.8949
  192SLPC   C3622281   5.207   2.623   7.636 -0.0147  0.6984 -0.8574
  192SLPC   H6X22282   5.283   2.702   7.617  0.5798  0.5248  0.6755
  192SLPC   H6Y22283   5.247   2.555   7.715  0.0821  0.4384 -1.1320
  192SLPC   C3722284   5.104   2.683   7.727 -0.4785 -0.2532  0.3803
  192SLPC   H7X22285   5.146   2.680   7.830  2.0502  1.7507 -0.5190
  192SLPC   H7Y22286   5.008   2.628   7.735  0.8591 -2.3161  2.9555
  192SLPC   C3822287   5.077   2.832   7.695  0.3062  0.1415  0.0479
  192SLPC   H8X22288   5.011   2.831   7.606 -1.5843 -0.6394  1.4342
  192SLPC   H8Y22289   5.169   2.885   7.662 -0.6564  1.8427  0.0585
  192SLPC   C3922290   5.024   2.909   7.812 -0.5277  0.3254 -0.3399
  192SLPC   H9X22291   4.949   2.846   7.864  0.6110 -0.7584  0.0143
  192SLPC   H9Y22292   4.969   3.000   7.778 -0.5158  0.2030 -0.6874
  192SLPC  C31022293   5.134   2.947   7.917  0.4042 -0.0274  0.1309
  192SLPC  H10X22294   5.213   3.010   7.871  1.5660 -1.6181 -0.1123
  192SLPC  H10Y22295   5.186   2.852   7.943  0.0353 -0.5253 -0.9228
  192SLPC  C31122296   5.082   3.020   8.040 -0.1134  0.4855  0.1527
  192SLPC  H11X22297   5.008   2.949   8.083  1.2143 -0.2922  1.1599
  192SLPC  H11Y22298   5.031   3.112   8.004  0.9470 -0.1929 -3.2682
  192SLPC  C31222299   5.188   3.059   8.148 -0.0142  0.0063 -0.0090
  192SLPC  H12X22300   5.266   3.126   8.108 -0.1159 -0.2714 -0.6750
  192SLPC  H12Y22301   5.236   2.963   8.178 -1.5255 -0.2090  1.9099
  192SLPC  C31322302   5.127   3.121   8.281 -0.3333  0.6461  0.1231
  192SLPC  H13X22303   5.214   3.140   8.349  0.6893 -1.8300 -0.4610
  192SLPC  H13Y22304   5.049   3.051   8.319  0.2245 -0.4138 -0.6645
  192SLPC  C31422305   5.057   3.259   8.254 -0.5266  0.6699 -0.4122
  192SLPC  H14X22306   4.989   3.229   8.171 -0.3605  0.1861 -0.3812
  192SLPC  H14Y22307   5.132   3.335   8.223 -0.4141  0.1926 -1.3362
  192SLPC  C31522308   4.976   3.297   8.378  0.1473  0.4114 -0.1158
  192SLPC  H15X22309   5.043   3.351   8.448  1.3981  0.5508 -1.3847
  192SLPC  H15Y22310   4.926   3.211   8.428 -2.1578  0.5421 -2.0974
  192SLPC  C31622311   4.863   3.391   8.339  0.1373 -0.2294 -0.1886
  192SLPC  H16X22312   4.809   3.339   8.257 -2.2309  0.2406  1.0202
  192SLPC  H16Y22313   4.890   3.486   8.289 -2.3846  0.1170 -0.9754
  192SLPC  C31722314   4.759   3.417   8.446 -0.0227 -0.4975 -0.5771
  192SLPC  H17X22315   4.813   3.460   8.533  1.3677 -1.0607 -1.1447
  192SLPC  H17Y22316   4.717   3.326   8.495 -0.5220  1.1100  2.0941
  192SLPC  C31822317   4.649   3.516   8.403 -0.4842 -0.3305 -0.6648
  192SLPC  H18X22318   4.590   3.480   8.316 -1.0394 -0.5356 -0.2052
  192SLPC  H18Y22319   4.691   3.618   8.391 -1.1444  0.3114  2.1585
  192SLPC  H18Z22320   4.585   3.521   8.494  2.4050 -2.0310  1.5458
  193SOD    SOD22321   5.214   3.799   1.343  0.1195 -0.2658 -0.1426
  194SOD    SOD22322   0.464   4.917  13.919 -0.1055 -0.1034 -0.2257
  195SOD    SOD22323   5.254   0.860  12.211  0.0259 -0.4942  0.0545
  196SOD    SOD22324   4.537   6.592  16.543  0.2459  0.7376  0.0765
  197SOD    SOD22325   1.975   1.652   1.336  0.0350  0.5551  0.4680
  198SOD    SOD22326   1.870   1.019  13.847  0.5063 -0.2415  0.1143
  199SOD    SOD22327   5.999   5.425  13.384  0.0669 -0.3071  0.6431
  200SOD    SOD22328   2.462   3.417   5.398  0.1527  0.5282  0.7066
  201SOD    SOD22329   4.266   0.831  13.780 -0.1705 -0.3327 -0.3492
  202SOD    SOD22330   6.564   1.166   0.388 -0.0529  0.1791  0.3485
  203SOD    SOD22331   2.478   4.500   6.564  0.2009 -0.1675 -0.0838
  204SOD    SOD22332   1.733   0.364  11.562  0.6375 -0.1536  0.1848
  205SOD    SOD22333   4.231   0.974   0.885  0.0724 -0.0887 -0.0088
  206SOD    SOD22334   5.058   0.235  12.228 -0.0537 -0.1452 -0.0514
  207SOD    SOD22335   4.675   2.048  12.784  0.1680  0.4455 -0.5405
  208SOD    SOD22336   3.033   4.246  14.192  0.3315 -0.1037  0.1482
  209SOD    SOD22337   0.637   3.316  15.973 -0.4352 -0.2425 -0.2823
  210SOD    SOD22338   6.381   2.134   5.470  0.0150 -0.0726 -0.1518
  211SOD    SOD22339   6.649   3.806  15.435 -0.5602  0.5989 -0.1922
  212SOD    SOD22340   2.127   3.153  13.760 -0.5165  0.0548 -0.2119
  213SOD    SOD22341   1.437   1.218  11.629 -0.0488  0.2595 -0.0266
  214SOD    SOD22342   2.568   3.794   1.837 -0.3035  0.3362 -0.5215
  215SOD    SOD22343   4.260   0.372   1.020 -0.2229 -0.4323 -0.1554
  216SOD    SOD22344   1.281   4.247  14.837  0.2054  0.1842 -0.2537
  217SOD    SOD22345   1.445   0.541   6.263 -0.0813  0.0727  0.1119
  218SOD    SOD22346   2.022   5.780  11.008 -0.7486  0.1210 -0.2677
  219SOD    SOD22347   4.116   4.536  16.613  0.9319 -0.1520  0.3478
  220SOD    SOD22348   2.606   5.050   3.099  0.4458  0.1881  0.0332
  221SOD    SOD22349   4.959   5.509  15.139 -0.5438  0.3802  0.0380
  222SOD    SOD22350   5.074   6.777  10.509 -0.0344  0.1844  0.7064
  223SOD    SOD22351   0.066   2.928   3.703 -0.5440  0.2983  0.1002
  224SOD    SOD22352   5.862   6.292   1.954  0.0553 -0.0771 -0.5855
  225SOD    SOD22353   4.192   0.297  15.143 -0.2551 -0.4635 -0.4245
  226SOD    SOD22354   4.278   4.661   6.334  0.2575 -0.0200 -0.0444
  227SOD    SOD22355   1.254   1.276  11.154 -0.2347  0.0308 -0.1852
  228SOD    SOD22356   1.395   4.008  11.309 -0.2310  0.3106  0.3532
  229SOD    SOD22357   1.965   5.819  12.849 -0.1040  0.3050  0.0629
  230SOD    SOD22358   3.909   3.063  11.241 -0.1170 -0.2714 -0.0828
  231SOD    SOD22359   5.884   6.127  16.904 -0.4324  0.0614  0.1854
  232SOD    SOD22360   0.519   0.280   0.374  0.0979 -0.4781  0.3421
  233SOD    SOD22361   0.983   5.271  13.804  0.1896 -0.1912  0.1223
  234SOD    SOD22362   4.977   4.509  10.928  0.2289  0.4782  0.0739
  235SOD    SOD22363   0.987   6.595   1.809  0.5414 -0.0258 -0.0482
  236SOD    SOD22364   4.579   3.432  13.675 -0.3688 -0.3556  0.1832
  237SOD    SOD22365   4.235   1.072  10.892 -0.2859 -0.1457 -0.1565
  238SOD    SOD22366   5.147   0.324  14.139  0.2019 -0.0458  0.3313
  239SOD    SOD22367   6.228   1.732  14.499  0.3881  0.2277 -0.4583
  240SOD    SOD22368   4.119   3.393   6.305  0.4193  0.2126  0.1676
  241SOD    SOD22369   1.975   3.066  12.862 -0.2340  0.3104  0.5389
  242SOD    SOD22370   5.775   2.264   1.566 -0.0216 -0.2926  0.2050
  243SOD    SOD22371   3.728   5.992   5.070  0.6475 -0.0857 -0.0036
  244SOD    SOD22372   4.074   1.452   4.472  0.1695 -0.0651 -0.1075
  245SOD    SOD22373   1.498   1.696   2.742  0.1490  0.0034  0.2494
  246SOD    SOD22374   0.408   1.711   3.248 -0.0419  0.8649 -0.7101
  247SOD    SOD22375   1.189   2.982   2.142  0.4134 -0.1618  0.3546
  248SOD    SOD22376   2.625   6.235   3.274 -0.6007 -0.2604  0.4398
  249SOD    SOD22377   1.344   2.480   1.585  0.1683 -0.2473  0.2372
  250SOD    SOD22378   0.508   4.548   6.622 -0.1407  0.0766  0.0106
  251SOD    SOD22379   2.376   1.716   6.304  0.0422 -0.2198 -0.4059
  252SOD    SOD22380   6.789   1.270  11.974 -0.5422  0.0426  0.4047
  253SOD    SOD22381   6.747   3.013  15.376 -0.5233 -0.1172 -0.2871
  254SOD    SOD22382   0.909   3.932   6.252  0.5902 -0.3115 -0.4667
  255SOD    SOD22383   3.509   5.179  12.960 -0.3142  0.1075  0.2026
  256SOD    SOD22384   4.520   4.504  15.867  0.0026 -0.3053 -0.2370
  257SOD    SOD22385   2.155   3.991  14.283 -0.5353 -0.0939 -0.5142
  258SOD    SOD22386   3.051   1.177  14.057 -0.0470  0.1921 -0.4198
  259SOD    SOD22387   0.751   2.080   5.674  0.0671 -0.0850  0.0813
  260SOD    SOD22388   1.679   5.826   1.664 -0.7128 -0.3029 -0.7058
  261SOD    SOD22389   0.906   0.418   5.901  0.4320 -0.1517  0.5521
  262SOD    SOD22390   1.164   3.215   6.616  0.2233  0.0558  0.6415
  263SOD    SOD22391   1.086   6.528   5.732 -0.4391  0.5554 -0.6853
  264SOD    SOD22392   2.764   0.658  12.609  0.0742  0.0045 -0.1986
  265SOD    SOD22393   2.147   2.870  12.153 -0.2378  0.0477  0.4737
  266CLA    CLA22394   6.298   2.335  16.974  0.1544  0.3199 -0.4834
  267CLA    CLA22395   5.243   6.324  12.326  0.3453 -0.4573 -0.3773
  268CLA    CLA22396   3.998   5.103  17.097  0.3797  0.2317 -0.5606
  269CLA    CLA22397   0.253   6.012  14.744  0.1664  0.1938 -0.1233
  270CLA    CLA22398   0.822   5.509  15.838  0.1165 -0.4905  0.3469
  271CLA    CLA22399   5.157   4.804  15.211  0.2162 -0.2181  0.3951
  272CLA    CLA22400   0.118   2.506  15.276 -0.3160 -0.1343  0.3774
  273CLA    CLA22401   3.560   1.373   0.317  0.2676  0.0756 -0.7835
  274CLA    CLA22402   6.474   5.027  13.030  0.4394 -0.4083  0.0871
  275CLA    CLA22403   2.730   5.641   2.928 -0.0518  0.0589  0.1184
  276CLA    CLA22404   4.305   1.775  12.001  0.2412 -0.2125 -0.1171
  277CLA    CLA22405   4.478   6.332   5.111  0.4001  0.3858  0.1200
  278CLA    CLA22406   5.022   0.875   2.337  0.0426 -0.1298 -0.2222
  279CLA    CLA22407   1.764   0.917   5.434 -0.5355  0.0218  0.3665
  280CLA    CLA22408   1.890   3.829   2.193 -0.0712  0.1514  0.1929
  281CLA    CLA22409   6.112   0.362   3.360  0.0245 -0.4054  0.2554
  282CLA    CLA22410   4.818   0.548  13.432  0.0943  0.1491  0.0577
  283CLA    CLA22411   0.786   3.942  14.445 -0.3685 -0.0517 -0.0298
  284CLA    CLA22412   5.815   4.690  13.175 -0.0726 -0.4485 -0.2877
  285CLA    CLA22413   4.699   3.466  16.617 -0.2081 -0.1303  0.0753
  286CLA    CLA22414   0.049   5.972   2.271  0.4606 -0.0795 -0.0099
  287CLA    CLA22415   4.227   2.626  15.725 -0.0638  0.0442 -0.0637
  288CLA    CLA22416   0.686   5.762  13.166  0.7633  0.0976  0.1842
  289CLA    CLA22417   5.249   3.001   0.457  0.1509 -0.1687  0.0621
  290CLA    CLA22418   3.983   2.210  11.607 -0.3210  0.3493  0.1554
  291CLA    CLA22419   6.492   5.279  14.690  0.0594  0.2803 -0.1766
  292CLA    CLA22420   6.796   3.210  17.225  0.1919 -0.0843 -0.3692
  293CLA    CLA22421   4.160   0.575  14.267  0.3493 -0.0157  0.3413
  294CLA    CLA22422   6.115   2.473  15.221  0.2263 -0.0197 -0.0009
  295CLA    CLA22423   1.618   2.210   2.442  0.0770  0.1747 -0.3445
  296CLA    CLA22424   1.863   0.548   1.496  0.0049 -0.3595  0.5852
  297CLA    CLA22425   2.204   0.185  14.818 -0.0243  0.0282  0.3573
  298CLA    CLA22426   3.409   2.674   4.901 -0.2395  0.3024  0.1490
  299CLA    CLA22427   2.380   3.512  13.245  0.2100 -0.1252  0.2427
  300CLA    CLA22428   5.979   4.549  14.611 -0.3127  0.0708  0.4865
  301CLA    CLA22429   2.964   5.821  13.726  0.1453  0.0176 -0.0284
  302CLA    CLA22430   2.566   3.956   5.556 -0.1623  0.3290  0.3428
  303CLA    CLA22431   3.961   0.530   2.646  0.1388  0.1125  0.5222
  304CLA    CLA22432   6.579   6.365  16.747  0.6798  0.1138 -0.0478
  305CLA    CLA22433   2.682   4.799   1.633  0.0072 -0.1545 -0.1883
  306CLA    CLA22434   6.677   4.123  16.968  0.1340  0.2762 -0.3562
  307CLA    CLA22435   1.698   4.469  15.526 -0.1956  0.2763  0.1657
  308CLA    CLA22436   5.938   4.257   0.190  0.0184 -0.2125 -0.0749
  309CLA    CLA22437   1.476   0.829   3.309  0.4741  0.1374  0.0029
  310CLA    CLA22438   0.221   1.235  15.274 -0.0813  0.0351 -0.4193
  311CLA    CLA22439   0.765   3.695  16.299  0.1678  0.0831  0.1813
  312CLA    CLA22440   3.457   2.364   2.615 -0.4263  0.0936  0.0049
  313CLA    CLA22441   2.056   2.095  16.819 -0.4645 -0.3227  0.2946
  314CLA    CLA22442   1.836   3.360  16.006 -0.0499 -0.1527 -0.1798
  315CLA    CLA22443   6.767   2.533   3.192 -0.0168 -0.6691  0.2591
  316CLA    CLA22444   0.343   3.129   2.799 -0.0168 -0.2175 -0.2331
  317CLA    CLA22445   6.248   2.289  13.098 -0.2587 -0.4165  0.5202
  318CLA    CLA22446   6.718   2.491  12.935 -0.1629  0.4754  0.0234
  319TIP3   OH222447   0.219   0.168  16.050  0.1965  0.2666 -0.1333
  319TIP3    H122448   0.139   0.153  16.101  1.9865 -3.0767  1.9141
  319TIP3    H222449   0.219   0.097  15.985  1.6931  0.0119  0.1429
  320TIP3   OH222450   2.944   0.605   4.039  0.3282 -0.9040  0.7474
  320TIP3    H122451   2.883   0.655   3.984  0.6427 -1.2831  0.0496
  320TIP3    H222452   2.929   0.639   4.127 -0.5698 -0.6690  0.5157
  321TIP3   OH222453   4.943   5.564   6.936  0.1751  0.3992  0.5793
  321TIP3    H122454   5.007   5.520   6.992  1.9952  0.2054 -1.5422
  321TIP3    H222455   4.859   5.551   6.979  1.2023 -1.8119  2.0030
  322TIP3   OH222456   3.863   2.496  12.947  0.1521 -0.7103  0.1933
  322TIP3    H122457   3.779   2.523  12.985 -0.1021 -0.6641 -0.3895
  322TIP3    H222458   3.856   2.400  12.940  0.3155 -0.7479  0.5344
  323TIP3   OH222459   4.848   4.500  17.176 -0.2696  0.3035  0.2773
  323TIP3    H122460   4.835   4.544  17.092 -0.4196 -0.6559 -0.2048
  323TIP3    H222461   4.940   4.473  17.174 -0.7245 -1.2507 -0.3256
  324TIP3   OH222462   3.190   1.668  16.581 -0.4346 -0.2662  0.3363
  324TIP3    H122463   3.141   1.676  16.499  1.2998  2.4209 -0.5088
  324TIP3    H222464   3.185   1.755  16.620  1.8179 -0.5318  1.2893
  325TIP3   OH222465   0.659   5.916   1.850 -0.0741  0.5461  0.5522
  325TIP3    H122466   0.652   5.838   1.906  2.2189  0.9379  1.4421
  325TIP3    H222467   0.569   5.945   1.839 -0.8135 -1.2097  1.6958
  326TIP3   OH222468   4.667   4.837  14.219  0.6618 -0.2912  0.2904
  326TIP3    H122469   4.707   4.918  14.251  0.9751 -0.4787  0.3783
  326TIP3    H222470   4.634   4.860  14.131  0.8249 -0.0937  0.2793
  327TIP3   OH222471   6.286   4.237  15.700  0.1132 -0.1655  0.2054
  327TIP3    H122472   6.202   4.282  15.687 -0.2761 -1.0947 -0.5487
  327TIP3    H222473   6.343   4.273  15.632  0.5239  0.9015  1.0898
  328TIP3   OH222474   4.073   4.649   2.133 -0.1247 -0.3110  0.4897
  328TIP3    H122475   4.028   4.671   2.051 -0.1247 -1.7298  0.1058
  328TIP3    H222476   4.015   4.587   2.176 -0.1943  0.5399  1.6584
  329TIP3   OH222477   2.466   6.178   1.942 -0.0328 -0.1525  0.3831
  329TIP3    H122478   2.485   6.090   1.911 -1.8197  0.0215 -1.3182
  329TIP3    H222479   2.415   6.165   2.022  0.2457 -0.6500  0.4806
  330TIP3   OH222480   4.124   1.448  13.069 -0.1424 -0.7032 -0.3347
  330TIP3    H122481   4.070   1.501  13.010 -2.5265 -0.8375  1.6445
  330TIP3    H222482   4.092   1.359  13.057  0.7091 -1.0151 -0.2827
  331TIP3   OH222483   3.494   5.543   2.382 -0.8139 -0.5831  0.3405
  331TIP3    H122484   3.493   5.479   2.453 -0.6484  1.5817  2.3580
  331TIP3    H222485   3.432   5.611   2.410  0.6665  1.2436 -0.6872
  332TIP3   OH222486   1.024   2.693  12.915 -0.1210 -0.3156 -0.2993
  332TIP3    H122487   1.025   2.750  12.839  1.1130 -0.4316 -0.3790
  332TIP3    H222488   0.971   2.740  12.980  1.6043  1.3618 -0.0455
  333TIP3   OH222489   0.784   3.244  14.460 -0.4077 -0.8148 -0.0952
  333TIP3    H122490   0.831   3.317  14.501  0.4455 -1.5022  0.1568
  333TIP3    H222491   0.821   3.238  14.372 -1.1589 -0.3302 -0.4534
  334TIP3   OH222492   0.510   1.261  16.084  0.0319 -0.2567  0.1323
  334TIP3    H122493   0.534   1.291  16.172  1.9496 -0.4519 -0.3049
  334TIP3    H222494   0.576   1.300  16.027  0.4700 -2.4482 -0.8818
  335TIP3   OH222495   6.693   0.663   2.600  0.5919  0.0972 -0.8706
  335TIP3    H122496   6.701   0.571   2.624  1.3314  0.3475 -0.1705
  335TIP3    H222497   6.599   0.675   2.583  0.3734 -0.5676 -0.1348
  336TIP3   OH222498   0.557   0.014  16.670 -0.5898 -0.1352  0.0659
  336TIP3    H122499   0.480   0.056  16.631 -0.7059 -0.0069  0.4333
  336TIP3    H222500   0.601  -0.028  16.596 -0.3259  0.8589 -0.3575
  337TIP3   OH222501   2.954   0.101  12.651 -0.2587  0.2135  0.2539
  337TIP3    H122502   2.973   0.137  12.564 -0.1586  0.7301  0.4905
  337TIP3    H222503   3.034   0.055  12.675 -0.1330  0.4284  0.2525
  338TIP3   OH222504   2.954   4.506  14.157 -0.3028  0.1548  0.4889
  338TIP3    H122505   2.864   4.525  14.131  0.0753  0.6701 -0.4903
  338TIP3    H222506   2.975   4.574  14.221 -0.1874  0.8307 -0.2540
  339TIP3   OH222507   6.712   3.090  14.090 -0.2519  0.2980 -0.0851
  339TIP3    H122508   6.793   3.063  14.134 -1.4833  1.3982  2.9592
  339TIP3    H222509   6.661   3.009  14.083  0.1451  0.0268  0.1247
  340TIP3   OH222510   3.332   2.113   0.630 -0.7831  0.0932  0.1980
  340TIP3    H122511   3.347   2.208   0.626  0.5184 -0.1207 -0.1530
  340TIP3    H222512   3.370   2.080   0.548 -1.9174 -0.6488 -0.0438
  341TIP3   OH222513   0.977   0.485  12.016  0.3770 -0.3759  0.4639
  341TIP3    H122514   1.048   0.452  11.961 -0.2593 -0.4942 -0.2901
  341TIP3    H222515   0.919   0.532  11.956  0.5955  1.0288  1.3088
  342TIP3   OH222516   1.525   0.614   2.577 -0.0793  0.2098  0.0237
  342TIP3    H122517   1.461   0.683   2.595  0.5329  0.4478  1.3220
  342TIP3    H222518   1.582   0.613   2.654  0.9349 -0.6108 -0.7199
  343TIP3   OH222519   6.719   4.859   3.667 -0.5654  0.4107  0.2650
  343TIP3    H122520   6.709   4.914   3.745 -1.2518  1.5725 -0.6362
  343TIP3    H222521   6.630   4.832   3.644 -0.3323 -0.2430  0.0913
  344TIP3   OH222522   5.020   5.567  16.719 -0.0773  0.1475  0.7858
  344TIP3    H122523   5.114   5.582  16.736  0.4490 -1.1744 -0.8925
  344TIP3    H222524   4.998   5.631  16.652 -0.1065 -0.3055  0.3658
  345TIP3   OH222525   0.235   5.345   3.644  0.6567 -0.7378  0.2574
  345TIP3    H122526   0.288   5.292   3.704  1.5587 -1.3188 -1.0315
  345TIP3    H222527   0.224   5.428   3.689  2.4854 -0.6843  0.6622
  346TIP3   OH222528   0.960   5.452  14.846 -0.0211  0.1244 -0.5631
  346TIP3    H122529   0.916   5.428  14.764 -2.5923  1.8749  0.2676
  346TIP3    H222530   0.979   5.545  14.837  2.2595 -0.2640 -0.2706
  347TIP3   OH222531   0.218   1.717  11.437  0.2539 -0.0879 -0.1684
  347TIP3    H122532   0.270   1.716  11.517  0.3079 -1.4584 -0.2116
  347TIP3    H222533   0.128   1.728  11.468  0.1594 -1.6931  0.1620
  348TIP3   OH222534   1.076   1.582   2.845  0.4766 -0.1740  0.1842
  348TIP3    H122535   1.115   1.638   2.911  0.9839  0.5253 -0.6911
  348TIP3    H222536   1.030   1.642   2.786  0.3485 -0.7436 -0.3022
  349TIP3   OH222537   5.463   5.764   2.984 -0.2537 -0.1715 -0.0918
  349TIP3    H122538   5.516   5.728   2.913 -1.1768 -2.1781  0.1996
  349TIP3    H222539   5.519   5.758   3.061 -1.1420 -3.1025  0.3893
  350TIP3   OH222540   6.011   5.883  15.438 -0.5662  0.0236  0.2267
  350TIP3    H122541   5.974   5.887  15.527 -1.5350  0.0649 -0.1713
  350TIP3    H222542   6.013   5.975  15.410 -1.3241 -0.0895 -0.2163
  351TIP3   OH222543   4.922   0.633  17.087 -0.2149  0.0936 -0.8532
  351TIP3    H122544   4.957   0.698  17.148  1.2343 -0.0068 -1.5642
  351TIP3    H222545   4.852   0.589  17.136  1.3564 -0.4318  0.9805
  352TIP3   OH222546   2.273   6.551  12.348 -0.0993  0.1687  0.3758
  352TIP3    H122547   2.300   6.638  12.379 -2.2002  0.9333  0.1974
  352TIP3    H222548   2.184   6.540  12.384 -0.8943 -0.7599 -1.8097
  353TIP3   OH222549   1.833   5.918   4.957 -0.1101  0.0936  0.7707
  353TIP3    H122550   1.868   5.945   4.873  1.6676  1.7237  1.9885
  353TIP3    H222551   1.881   5.971   5.021 -0.2756 -2.2697  2.9203
  354TIP3   OH222552   1.527   0.524  16.340  0.1854  0.3993  0.1415
  354TIP3    H122553   1.621   0.541  16.333  0.2119 -0.0854 -0.9183
  354TIP3    H222554   1.516   0.438  16.299 -0.8907  1.0349 -0.9230
  355TIP3   OH222555   4.578   5.112  16.662  0.2609  0.2033  0.1233
  355TIP3    H122556   4.603   5.129  16.571 -0.6743 -0.4755 -0.2719
  355TIP3    H222557   4.545   5.196  16.693  0.3580  0.3779 -0.2414
  356TIP3   OH222558   0.700   4.030  12.281 -0.1668  0.3708  0.1173
  356TIP3    H122559   0.610   4.064  12.279 -0.6210 -0.8105 -0.3282
  356TIP3    H222560   0.702   3.972  12.357 -0.0903 -0.4267 -0.4919
  357TIP3   OH222561   6.220   5.065  13.845 -0.1737 -0.4249 -0.4117
  357TIP3    H122562   6.303   5.077  13.798  0.0119  0.3133  0.1096
  357TIP3    H222563   6.201   4.972  13.834  0.0061 -0.3240 -1.7255
  358TIP3   OH222564   2.663   2.831   2.558  0.0178  0.0755 -0.1875
  358TIP3    H122565   2.583   2.821   2.507  0.7569  0.5935 -1.4807
  358TIP3    H222566   2.645   2.786   2.641 -0.0350 -3.9048 -2.2092
  359TIP3   OH222567   3.591   6.652   3.946  0.5496 -0.0683 -0.3327
  359TIP3    H122568   3.662   6.634   3.884 -0.3476  0.2220 -1.4734
  359TIP3    H222569   3.523   6.693   3.893  0.5293  2.0093  1.2248
  360TIP3   OH222570   0.567   4.638  17.140  0.2176 -0.4353  0.5877
  360TIP3    H122571   0.566   4.618  17.046  1.9878 -0.8474  0.6307
  360TIP3    H222572   0.546   4.731  17.145  1.4070 -0.1031 -0.3315
  361TIP3   OH222573   1.687   3.965   2.409  0.4638 -0.0990  0.2347
  361TIP3    H122574   1.602   3.922   2.397  1.3297 -2.2058  1.2806
  361TIP3    H222575   1.737   3.938   2.332 -0.3978  2.7539 -1.4010
  362TIP3   OH222576   3.332   2.390   0.725 -0.1748 -0.3315  0.0050
  362TIP3    H122577   3.241   2.416   0.712 -0.9716 -3.2811 -0.7506
  362TIP3    H222578   3.328   2.325   0.796  1.3108 -0.6383 -0.1772
  363TIP3   OH222579   6.773   4.155  11.857  0.1598 -0.0862 -0.6131
  363TIP3    H122580   6.740   4.191  11.940  0.1390 -0.4026 -0.4839
  363TIP3    H222581   6.715   4.082  11.838  0.2348 -0.0827 -0.8497
  364TIP3   OH222582   6.733   4.560  11.900  0.7649 -0.4295 -0.4662
  364TIP3    H122583   6.717   4.485  11.843 -0.7529  0.2278 -0.9360
  364TIP3    H222584   6.807   4.533  11.955  0.5140 -2.0926 -0.9148
  365TIP3   OH222585   6.547   4.337   5.250 -0.3844 -0.5894  0.2522
  365TIP3    H122586   6.459   4.325   5.285 -0.3455 -1.4353  0.0528
  365TIP3    H222587   6.605   4.317   5.323 -0.2997 -2.5080 -0.3171
  366TIP3   OH222588   5.031   3.166  12.089  0.0937 -0.1912 -0.0439
  366TIP3    H122589   4.951   3.188  12.138  1.2336 -0.1953  1.8869
  366TIP3    H222590   5.002   3.104  12.023 -1.3808 -0.7866  1.1197
  367TIP3   OH222591   3.028   6.530   0.894  0.4059 -0.6559  0.0125
  367TIP3    H122592   2.957   6.548   0.832  0.8876 -0.7595 -0.5711
  367TIP3    H222593   2.985   6.532   0.980  0.0216  1.0624 -0.1992
  368TIP3   OH222594   4.499   1.906  15.445 -0.2952  0.2401  0.0789
  368TIP3    H122595   4.443   1.980  15.423 -0.5091 -0.1866 -0.8419
  368TIP3    H222596   4.588   1.940  15.441 -0.4308  0.6377  0.4386
  369TIP3   OH222597   0.153   0.361  12.301  0.3265 -0.0127 -0.4130
  369TIP3    H122598   0.171   0.299  12.371 -1.1631 -2.8504 -2.4454
  369TIP3    H222599   0.229   0.357  12.244 -0.0215 -0.4288 -0.8531
  370TIP3   OH222600   2.267   5.703  14.876  0.4921 -0.2602 -0.6970
  370TIP3    H122601   2.190   5.688  14.822 -1.3114  0.8965  1.4322
  370TIP3    H222602   2.326   5.754  14.821 -0.5252 -0.6174 -2.1382
  371TIP3   OH222603   1.816   5.101  12.361  0.4441 -0.0926  0.1770
  371TIP3    H122604   1.841   5.078  12.271  0.0118  0.6467 -0.1371
  371TIP3    H222605   1.871   5.046  12.416  0.4686 -0.7966 -0.5485
  372TIP3   OH222606   4.741   0.537  13.900  0.0822 -0.1434 -0.0337
  372TIP3    H122607   4.795   0.588  13.839 -0.4121 -0.3291 -0.6279
  372TIP3    H222608   4.722   0.597  13.971 -1.7065  0.9706 -1.4142
  373TIP3   OH222609   4.817   1.704  14.862 -0.0154  0.5568 -0.3957
  373TIP3    H122610   4.789   1.701  14.953 -0.7496  0.9061 -0.6028
  373TIP3    H222611   4.896   1.758  14.862 -0.5784  1.3854 -0.1038
  374TIP3   OH222612   5.695   6.166   0.521  1.2201 -0.3815 -0.3161
  374TIP3    H122613   5.738   6.115   0.590  0.5716 -1.0044 -0.3710
  374TIP3    H222614   5.612   6.122   0.506  0.4013  1.0083  0.0074
  375TIP3   OH222615   6.636   1.046   3.336 -0.1489  0.4360 -0.5914
  375TIP3    H122616   6.599   0.973   3.286  1.4640 -0.7514 -0.0743
  375TIP3    H222617   6.582   1.052   3.414 -0.1815 -0.3241 -0.5532
  376TIP3   OH222618   0.276   3.664  14.320  0.1533  0.2605 -0.4207
  376TIP3    H122619   0.188   3.636  14.296  1.0407 -1.0708 -2.2894
  376TIP3    H222620   0.301   3.728  14.253  0.4395  0.9434  0.3380
  377TIP3   OH222621   5.458   3.260   0.985  0.3609 -0.2677  0.2429
  377TIP3    H122622   5.486   3.274   0.895  0.8496 -1.5321  0.2010
  377TIP3    H222623   5.524   3.202   1.023  0.1719  0.2651  1.4249
  378TIP3   OH222624   5.691   5.867   0.533 -0.0139  0.0756  0.2295
  378TIP3    H122625   5.703   5.907   0.619  0.9287 -0.4576  0.3467
  378TIP3    H222626   5.676   5.774   0.551 -1.1973  0.1801 -0.1092
  379TIP3   OH222627   0.910   5.652  10.497  0.2675 -0.7517  0.1138
  379TIP3    H122628   0.989   5.601  10.515  2.7645  2.9162  0.0590
  379TIP3    H222629   0.914   5.672  10.404  0.6444  1.5351  0.5813
  380TIP3   OH222630   2.287   5.331   2.857 -0.2267  0.2625 -0.3233
  380TIP3    H122631   2.249   5.249   2.828 -1.6802  1.6691 -2.5023
  380TIP3    H222632   2.253   5.343   2.946 -1.5917 -0.5072 -0.7252
  381TIP3   OH222633   2.097   3.405   3.440  0.6001  0.0635 -0.0262
  381TIP3    H122634   2.026   3.357   3.481 -0.5108  1.6032 -0.1000
  381TIP3    H222635   2.160   3.420   3.510  1.2837 -2.0350 -0.1508
  382TIP3   OH222636   2.531   3.847   0.447 -0.2456  0.2186  0.0486
  382TIP3    H122637   2.512   3.933   0.485  2.1019  1.3731 -1.3076
  382TIP3    H222638   2.524   3.861   0.353  2.1362 -0.5780 -0.2604
  383TIP3   OH222639   3.356   4.391  12.165  0.4258  0.1945 -0.1881
  383TIP3    H122640   3.387   4.480  12.146 -0.8801  0.8841  0.8698
  383TIP3    H222641   3.426   4.334  12.132  2.1288  1.6682  0.7839
  384TIP3   OH222642   4.024   2.156   4.781 -0.0748 -0.0252 -0.8399
  384TIP3    H122643   4.076   2.236   4.794 -0.7792  0.1687  0.8904
  384TIP3    H222644   3.976   2.145   4.863 -0.7160 -1.7054 -1.4234
  385TIP3   OH222645   2.844   4.595   4.550  0.2868 -0.3742  0.4029
  385TIP3    H122646   2.782   4.527   4.573 -0.0686  0.0161  0.6124
  385TIP3    H222647   2.929   4.551   4.546  0.0300 -0.8582  0.3554
  386TIP3   OH222648   1.791   0.644  16.568  0.0690 -0.4248  0.3543
  386TIP3    H122649   1.780   0.650  16.473 -0.5030 -1.1642  0.3675
  386TIP3    H222650   1.873   0.690  16.585 -0.5665  0.9784 -0.3202
  387TIP3   OH222651   1.923   4.804  16.812 -0.0663 -0.3879 -0.3755
  387TIP3    H122652   2.010   4.783  16.846  0.2934 -0.6870 -1.4562
  387TIP3    H222653   1.862   4.773  16.879  0.6750  0.2286  0.5816
  388TIP3   OH222654   6.207   0.451  10.769 -0.0240 -0.4186 -0.0297
  388TIP3    H122655   6.187   0.479  10.859  0.8664 -0.1054  0.0709
  388TIP3    H222656   6.302   0.440  10.768 -0.1967 -1.8631 -0.5274
  389TIP3   OH222657   1.425   2.438   0.636  0.5189  0.4013 -0.1077
  389TIP3    H122658   1.367   2.511   0.656 -0.2784 -0.7396  1.9200
  389TIP3    H222659   1.512   2.478   0.628  0.0202  1.6203  0.5055
  390TIP3   OH222660   0.716   0.382   4.357 -0.5369 -0.2477  0.2537
  390TIP3    H122661   0.634   0.364   4.404 -1.3742  1.9839 -0.2834
  390TIP3    H222662   0.780   0.397   4.426 -1.0437 -0.0757  0.6960
  391TIP3   OH222663   6.536   1.109   1.594 -0.2153 -0.4553 -0.4252
  391TIP3    H122664   6.459   1.156   1.626  0.0762 -0.7747  0.7621
  391TIP3    H222665   6.609   1.168   1.613  0.0595 -1.0330  0.3342
  392TIP3   OH222666   5.287   1.289   6.089  0.3480 -0.2101 -0.1503
  392TIP3    H122667   5.258   1.267   6.178  2.4544  0.4597  0.7324
  392TIP3    H222668   5.275   1.383   6.082  0.1313 -0.2705 -0.5980
  393TIP3   OH222669   1.887   0.094   4.745 -0.0730  0.1843  0.3145
  393TIP3    H122670   1.940   0.015   4.758  1.9169  1.1366 -1.6262
  393TIP3    H222671   1.809   0.064   4.699 -0.8762 -1.1318  2.5078
  394TIP3   OH222672   1.989   2.805  11.032  0.6165  0.0951  0.1956
  394TIP3    H122673   2.053   2.775  11.097 -0.0633  1.3947  1.4992
  394TIP3    H222674   2.012   2.897  11.016 -0.2720  0.2697 -0.1131
  395TIP3   OH222675   4.415   2.620   2.094 -0.1293  0.3224 -0.5999
  395TIP3    H122676   4.325   2.644   2.071 -0.1736  1.1457  0.3937
  395TIP3    H222677   4.408   2.581   2.181  0.3069 -0.8201 -1.0776
  396TIP3   OH222678   3.057   4.955  14.744 -0.3515  0.3054  0.3968
  396TIP3    H122679   3.071   4.866  14.777 -1.7662  0.3591  1.1864
  396TIP3    H222680   3.135   5.003  14.771 -0.0456 -0.4394  0.8576
  397TIP3   OH222681   3.149   5.231   4.590 -0.2724 -0.2175 -0.1176
  397TIP3    H122682   3.175   5.178   4.515  0.0053 -1.2031  0.6513
  397TIP3    H222683   3.219   5.295   4.600  0.7078 -1.3678  0.5162
  398TIP3   OH222684   5.522   3.071   0.611  0.3779  0.9667 -0.3198
  398TIP3    H122685   5.445   3.039   0.563  1.1084 -0.9578 -0.2262
  398TIP3    H222686   5.594   3.064   0.549  0.8482  0.8939  0.2273
  399TIP3   OH222687   3.982   4.132   5.520 -0.4132  0.3679 -0.4788
  399TIP3    H122688   4.025   4.047   5.526  1.1721  1.1948  0.1955
  399TIP3    H222689   3.911   4.119   5.457  0.1145 -1.3228 -0.7353
  400TIP3   OH222690   1.832   3.384  12.157  0.5649  0.4652 -0.2018
  400TIP3    H122691   1.745   3.352  12.132  1.6717 -1.5546 -1.6803
  400TIP3    H222692   1.849   3.344  12.242  1.5068 -2.2379 -1.5712
  401TIP3   OH222693   1.258   5.727   5.207 -0.0119  0.6116 -0.3356
  401TIP3    H122694   1.261   5.817   5.174  0.4488  0.5552 -0.4467
  401TIP3    H222695   1.344   5.691   5.186  0.0189  0.3391  0.2679
  402TIP3   OH222696   4.530   4.473   5.113  0.5503  0.1763  0.2897
  402TIP3    H122697   4.625   4.481   5.105  0.8635 -1.2474  2.1393
  402TIP3    H222698   4.514   4.379   5.113 -0.8453  0.4045  0.1689
  403TIP3   OH222699   0.752   4.129  16.771 -0.4274 -0.0983  0.1063
  403TIP3    H122700   0.791   4.122  16.858 -1.5464  1.3827  0.7577
  403TIP3    H222701   0.715   4.043  16.754 -0.3423 -0.3540  1.1758
  404TIP3   OH222702   6.193   2.492   3.636  0.1476 -0.1058 -0.0130
  404TIP3    H122703   6.110   2.539   3.644  1.8146  2.6081  2.2331
  404TIP3    H222704   6.189   2.423   3.702 -0.7918 -0.8139 -0.7875
  405TIP3   OH222705   3.846   1.949   2.172  0.0664 -0.1234  0.1442
  405TIP3    H122706   3.851   1.879   2.238  1.7978 -0.3375 -0.2021
  405TIP3    H222707   3.761   1.936   2.130 -0.1245 -1.3049  0.8739
  406TIP3   OH222708   2.903   5.997  11.408  0.7951  0.0642  0.5639
  406TIP3    H122709   2.827   5.945  11.381 -0.4152  0.2249  3.4782
  406TIP3    H222710   2.900   6.075  11.352 -1.4154  0.2249  0.8499
  407TIP3   OH222711   3.672   2.587   5.740 -0.4660  0.9634  0.2242
  407TIP3    H122712   3.650   2.494   5.736 -1.6783  1.2884 -0.9708
  407TIP3    H222713   3.643   2.616   5.827 -1.1333  0.4862  0.1591
  408TIP3   OH222714   5.192   4.824   0.689  0.2328  0.4541 -0.4414
  408TIP3    H122715   5.134   4.755   0.657 -1.2532  2.0389 -1.2489
  408TIP3    H222716   5.227   4.789   0.771 -1.6375 -0.6676 -0.0854
  409TIP3   OH222717   5.099   5.431  10.270  0.4472  0.1057 -0.6618
  409TIP3    H122718   5.084   5.368  10.200 -0.8580 -2.1898  1.5899
  409TIP3    H222719   5.167   5.391  10.325 -1.2124  0.0392  1.4264
  410TIP3   OH222720   6.121   3.037   0.490  0.3421  0.2377 -0.5768
  410TIP3    H122721   6.178   3.112   0.472 -0.6077  0.5823 -2.2176
  410TIP3    H222722   6.033   3.072   0.483 -0.1161 -1.0251 -1.3541
  411TIP3   OH222723   4.090   6.369  14.834  0.4650 -0.0800  0.3012
  411TIP3    H122724   4.102   6.274  14.834  1.1793  0.0114  0.6421
  411TIP3    H222725   4.022   6.385  14.768 -0.0521 -0.8785  0.6403
  412TIP3   OH222726   0.670   1.672   2.238  0.0892 -0.4003 -0.4468
  412TIP3    H122727   0.608   1.733   2.198  0.3176  0.8732  1.0868
  412TIP3    H222728   0.756   1.700   2.207  0.3747  1.2966  1.7411
  413TIP3   OH222729   5.337   5.913  12.942 -0.2523  0.0032  0.1619
  413TIP3    H122730   5.281   5.927  13.019 -1.9138 -1.5964 -0.7065
  413TIP3    H222731   5.275   5.911  12.869  0.9785 -1.5645 -0.8546
  414TIP3   OH222732   1.913   2.673   1.092  0.4832 -0.3280  0.3682
  414TIP3    H122733   1.987   2.724   1.126  0.5152 -1.2655  1.7505
  414TIP3    H222734   1.849   2.675   1.162  0.3860 -1.9751  0.3548
  415TIP3   OH222735   0.539   5.996   5.278  0.9370  0.0092  0.0275
  415TIP3    H122736   0.619   6.011   5.328  0.5609  0.3696  0.5193
  415TIP3    H222737   0.481   6.068   5.303  0.1151 -0.7702  0.3708
  416TIP3   OH222738   2.750   6.464  14.475  0.2395 -0.6501 -0.1626
  416TIP3    H122739   2.772   6.517  14.551  0.6347 -0.6432 -0.2825
  416TIP3    H222740   2.710   6.385  14.511 -1.0105  0.0418 -0.0128
  417TIP3   OH222741   0.454   4.423   2.091 -0.7098  0.3044  0.5686
  417TIP3    H122742   0.534   4.414   2.142  0.2269 -1.2232 -1.0990
  417TIP3    H222743   0.387   4.379   2.143  0.1094 -0.7536  0.7317
  418TIP3   OH222744   4.337   3.176   3.484 -0.1925  0.1750  0.0726
  418TIP3    H122745   4.350   3.160   3.578  1.0945  0.6141 -0.0230
  418TIP3    H222746   4.304   3.093   3.451 -0.8779  0.0824  0.9547
  419TIP3   OH222747   5.156   5.274   0.286 -0.4206 -0.3043  0.3430
  419TIP3    H122748   5.108   5.231   0.357 -0.2579 -2.2000 -0.6426
  419TIP3    H222749   5.245   5.241   0.295 -0.2779 -0.1130 -0.3954
  420TIP3   OH222750   3.825   4.532   3.546 -0.1920 -0.7119  0.2233
  420TIP3    H122751   3.896   4.481   3.507 -1.7466 -0.7856 -2.6113
  420TIP3    H222752   3.746   4.484   3.524 -1.7881  3.1485 -3.1232
  421TIP3   OH222753   0.734   5.902  16.462  0.6170  0.2321  0.6526
  421TIP3    H122754   0.680   5.975  16.432 -0.0409 -0.1009  1.0364
  421TIP3    H222755   0.781   5.937  16.538  0.5631  0.3625  0.6262
  422TIP3   OH222756   5.787   0.962  12.509 -0.1377  1.0308 -0.2276
  422TIP3    H122757   5.825   0.894  12.454  0.7790 -0.2858  1.9653
  422TIP3    H222758   5.697   0.933  12.525  0.0214  0.7004  0.0842
  423TIP3   OH222759   5.953   0.451   4.247  0.0989  0.0568 -0.0399
  423TIP3    H122760   5.888   0.476   4.182 -0.9560 -0.0576  0.9501
  423TIP3    H222761   6.010   0.528   4.255 -1.1348  0.9227  0.5667
  424TIP3   OH222762   5.477   4.037   0.498 -0.0524  0.3066 -0.2443
  424TIP3    H122763   5.468   4.109   0.435  1.4229  2.2693  1.7114
  424TIP3    H222764   5.571   4.025   0.507 -0.2615 -0.5145  0.9486
  425TIP3   OH222765   0.887   5.042  10.858 -0.4645  0.3526  0.0272
  425TIP3    H122766   0.801   5.038  10.817  0.3523  0.9628 -1.8057
  425TIP3    H222767   0.916   4.951  10.862 -1.4116  0.0958  1.1450
  426TIP3   OH222768   5.276   5.033  15.462  0.3736  0.1735 -0.3179
  426TIP3    H122769   5.251   4.976  15.389 -1.6630  0.6772 -0.0470
  426TIP3    H222770   5.238   5.118  15.440 -0.0886  0.3835  1.2146
  427TIP3   OH222771   3.890   1.799  13.781  0.1368 -0.1445  0.3387
  427TIP3    H122772   3.808   1.791  13.731  0.8184  0.0744 -0.8227
  427TIP3    H222773   3.896   1.892  13.803  0.5244 -0.0022 -0.3567
  428TIP3   OH222774   3.642   0.640  11.740 -0.1344 -0.3931 -0.4945
  428TIP3    H122775   3.713   0.686  11.696 -0.5517  0.3734 -0.3692
  428TIP3    H222776   3.567   0.650  11.682 -0.7704  0.8950  0.5256
  429TIP3   OH222777   2.841   4.779   0.225 -0.0046  0.3456 -0.6238
  429TIP3    H122778   2.827   4.685   0.224  0.4320  0.2802 -0.2390
  429TIP3    H222779   2.841   4.803   0.317  3.1368  0.2452 -0.5443
  430TIP3   OH222780   0.296   4.258   6.924  0.2199 -0.2044 -0.2356
  430TIP3    H122781   0.258   4.343   6.902  0.4384 -0.2281 -0.6919
  430TIP3    H222782   0.307   4.213   6.841  1.4069 -0.1306 -0.1344
  431TIP3   OH222783   4.222   4.509   2.726 -0.4849 -0.6046  0.0491
  431TIP3    H122784   4.152   4.458   2.765 -0.4078 -1.1103 -0.4677
  431TIP3    H222785   4.270   4.546   2.800 -0.7857 -0.9494  0.4109
  432TIP3   OH222786   2.602   2.245   1.773  0.7798  0.0775  0.2253
  432TIP3    H122787   2.512   2.276   1.770 -0.7828 -4.2758 -1.7978
  432TIP3    H222788   2.614   2.215   1.863 -0.6796 -1.6886 -0.1557
  433TIP3   OH222789   1.377   4.003   1.121 -0.3652 -0.3571 -0.6932
  433TIP3    H122790   1.298   3.949   1.127 -0.3340 -0.0946  3.4104
  433TIP3    H222791   1.346   4.092   1.135  0.7112 -0.3326  1.6808
  434TIP3   OH222792   6.262   0.738  15.755 -0.2768  0.6074 -0.2003
  434TIP3    H122793   6.296   0.773  15.673  1.1478 -1.1687 -0.4229
  434TIP3    H222794   6.322   0.772  15.822 -0.3095  0.5376 -0.1352
  435TIP3   OH222795   4.179   4.363   4.354  0.1626 -0.4501 -0.2453
  435TIP3    H122796   4.121   4.433   4.385 -0.8193 -2.0232  1.5367
  435TIP3    H222797   4.120   4.289   4.338  1.1809 -0.8784 -2.2251
  436TIP3   OH222798   5.977   3.108  12.693  0.2643  0.2671  0.9452
  436TIP3    H122799   5.929   3.127  12.612 -0.4635  0.7897  1.4909
  436TIP3    H222800   5.981   3.012  12.696  0.5262  0.2524  0.1574
  437TIP3   OH222801   1.340   2.755  16.631 -0.2915  1.0546 -0.1718
  437TIP3    H122802   1.314   2.690  16.565  0.3439  1.2379 -0.6128
  437TIP3    H222803   1.263   2.811  16.641 -0.8638  0.1990  0.2595
  438TIP3   OH222804   0.532   3.293   2.604 -0.1674 -0.3027 -0.0657
  438TIP3    H122805   0.480   3.244   2.668 -0.1878  0.9128  0.8703
  438TIP3    H222806   0.507   3.384   2.617  2.0302  0.2996  0.2783
  439TIP3   OH222807   3.423   0.503   3.148 -0.3017 -0.4277 -0.3973
  439TIP3    H122808   3.361   0.545   3.208  0.7158 -0.4405  0.6909
  439TIP3    H222809   3.488   0.462   3.206  1.2366  0.3755 -1.5237
  440TIP3   OH222810   3.794   3.576  11.175 -0.2278  0.5882  0.5297
  440TIP3    H122811   3.812   3.666  11.146 -0.1987 -0.4190 -2.7238
  440TIP3    H222812   3.698   3.571  11.178 -0.2800  0.0747 -1.5266
  441TIP3   OH222813   0.566   6.344   3.114 -0.0761  0.5945  0.4084
  441TIP3    H122814   0.600   6.307   3.196  0.4085  0.1654  0.0221
  441TIP3    H222815   0.484   6.386   3.139  0.6796  1.5411  1.3463
  442TIP3   OH222816   4.525   2.271   4.793 -0.6000  0.0550  0.2929
  442TIP3    H122817   4.483   2.186   4.792 -1.7465  0.5828 -3.0513
  442TIP3    H222818   4.453   2.333   4.804 -0.2504  0.7326 -1.0395
  443TIP3   OH222819   2.994   0.306  15.607 -0.4920 -0.0708 -0.0310
  443TIP3    H122820   2.953   0.392  15.596 -0.1399  0.0135 -0.6634
  443TIP3    H222821   3.073   0.310  15.554 -0.0279 -0.4908  0.6207
  444TIP3   OH222822   4.636   0.409  17.108 -0.3206  0.3898  0.0607
  444TIP3    H122823   4.679   0.405  17.022 -1.3717  0.1760 -0.4667
  444TIP3    H222824   4.607   0.499  17.117 -1.8105 -0.0133 -0.6135
  445TIP3   OH222825   1.904   1.362   4.890 -0.0905  0.0479  0.2568
  445TIP3    H122826   1.823   1.361   4.840 -0.9626 -0.3930  1.6559
  445TIP3    H222827   1.960   1.296   4.849  0.1169  1.3482 -1.5978
  446TIP3   OH222828   3.474   5.799   1.184 -0.1798 -0.3581  0.8649
  446TIP3    H122829   3.548   5.802   1.123  1.9429 -1.4072  3.3299
  446TIP3    H222830   3.437   5.887   1.181  0.6331 -0.0534 -0.9989
  447TIP3   OH222831   4.909   3.178   3.699 -0.7796  0.0851  0.3069
  447TIP3    H122832   4.985   3.136   3.740 -1.3637 -1.1376  0.1365
  447TIP3    H222833   4.883   3.246   3.762 -0.8409 -0.8808  1.3435
  448TIP3   OH222834   1.373   6.567  15.002  0.6605  0.4133  0.6380
  448TIP3    H122835   1.364   6.505  14.929 -0.7148  1.4621 -0.0966
  448TIP3    H222836   1.462   6.601  14.992  0.8029 -0.1229 -0.0150
  449TIP3   OH222837   6.240   6.331  11.973 -0.1913 -0.4354 -0.2156
  449TIP3    H122838   6.278   6.415  11.948  0.5701 -0.6448  0.2146
  449TIP3    H222839   6.159   6.325  11.922 -1.0133  1.2311  0.8858
  450TIP3   OH222840   4.543   4.671  11.458 -0.6460 -0.2114  0.1032
  450TIP3    H122841   4.587   4.590  11.429  0.9303  0.7484 -0.2378
  450TIP3    H222842   4.459   4.670  11.412  1.0127  0.3339 -3.0968
  451TIP3   OH222843   2.792   0.232  16.304 -0.0475  0.2414 -0.5261
  451TIP3    H122844   2.825   0.244  16.393 -0.6744 -0.2703 -0.2242
  451TIP3    H222845   2.747   0.148  16.305  2.0642 -0.9705 -1.9817
  452TIP3   OH222846   4.738   4.378  13.146  0.1409  0.5031  0.2130
  452TIP3    H122847   4.763   4.459  13.189  0.5839 -0.4459  1.7662
  452TIP3    H222848   4.731   4.401  13.053  1.0237  2.1255  0.5387
  453TIP3   OH222849   5.986   6.714   0.700  0.0825  0.1164 -0.1366
  453TIP3    H122850   6.078   6.712   0.674 -0.0588  1.0885 -0.7129
  453TIP3    H222851   5.974   6.633   0.750  0.7829 -0.9460 -1.6560
  454TIP3   OH222852   1.448   6.178  10.362  0.0294  0.2622  0.0279
  454TIP3    H122853   1.536   6.173  10.398 -0.2859 -1.1213  0.6687
  454TIP3    H222854   1.406   6.096  10.390 -1.8265  1.4091  0.7513
  455TIP3   OH222855   2.110   3.551  12.787  0.3094 -0.2713  0.5358
  455TIP3    H122856   2.059   3.620  12.829 -0.3768 -0.0621 -0.6088
  455TIP3    H222857   2.181   3.533  12.848  0.4794  1.4253  0.8646
  456TIP3   OH222858   4.213   6.161   1.313  0.1964 -0.0519 -0.0001
  456TIP3    H122859   4.242   6.171   1.222  1.3559 -0.4168  0.3234
  456TIP3    H222860   4.145   6.229   1.324  2.4792  2.3291 -0.1175
  457TIP3   OH222861   4.404   5.322  14.830 -0.0300  0.0988 -0.8028
  457TIP3    H122862   4.436   5.232  14.827  1.6942  0.6501  0.4715
  457TIP3    H222863   4.438   5.356  14.913  0.1396  2.2290 -1.7347
  458TIP3   OH222864   0.792   0.361  16.175  0.0367  0.4216 -0.1261
  458TIP3    H122865   0.768   0.424  16.243 -0.3150 -0.5613  0.6606
  458TIP3    H222866   0.713   0.350  16.123 -1.0091 -2.0321  1.8534
  459TIP3   OH222867   5.811   3.818   0.780 -0.6947  0.3903  0.2277
  459TIP3    H122868   5.838   3.794   0.692 -2.2169 -0.2292 -0.0767
  459TIP3    H222869   5.865   3.763   0.837  0.8538  1.3485 -0.2639
  460TIP3   OH222870   2.552   2.295   2.468 -0.6520 -0.2876 -0.2080
  460TIP3    H122871   2.540   2.361   2.400 -3.5273  0.7307  1.2192
  460TIP3    H222872   2.600   2.341   2.537 -1.9479  0.1207  0.4430
  461TIP3   OH222873   0.578   1.180  15.087  0.0928 -0.5073  0.0723
  461TIP3    H122874   0.517   1.117  15.050 -0.1616  0.5876 -1.4451
  461TIP3    H222875   0.656   1.174  15.031  0.2442  0.1587  0.2027
  462TIP3   OH222876   4.662   6.100   6.858  0.1644  0.1080 -0.1245
  462TIP3    H122877   4.610   6.031   6.899  0.9468 -1.3614 -1.5567
  462TIP3    H222878   4.752   6.080   6.881  0.5408 -0.2638 -1.7983
  463TIP3   OH222879   3.271   3.829  14.512 -0.4147  0.1526 -0.6183
  463TIP3    H122880   3.178   3.837  14.536 -0.1601  0.6638  0.2138
  463TIP3    H222881   3.305   3.761  14.570 -0.2179  0.1060 -0.7863
  464TIP3   OH222882   0.244   5.010  14.247 -0.0260 -0.3113  0.1309
  464TIP3    H122883   0.222   5.083  14.305  2.9701 -0.8971  2.1191
  464TIP3    H222884   0.246   4.934  14.305  2.9358 -0.9342 -0.7212
  465TIP3   OH222885   2.028   5.048   1.489 -0.3304 -0.0659 -0.2727
  465TIP3    H122886   2.034   5.133   1.445 -0.2030 -0.5967 -1.2987
  465TIP3    H222887   2.101   5.049   1.552  1.2942 -0.4478 -2.1120
  466TIP3   OH222888   2.193   3.333  11.146  0.0345 -0.0287  0.0536
  466TIP3    H122889   2.197   3.248  11.189  2.1481 -0.1088 -0.2675
  466TIP3    H222890   2.106   3.334  11.105  0.6631 -2.8245 -1.5040
  467TIP3   OH222891   3.476   1.494  14.022 -0.5858  0.0597  0.4563
  467TIP3    H122892   3.555   1.546  14.034 -0.4101  0.0520 -0.5953
  467TIP3    H222893   3.477   1.431  14.094  0.3819  0.0351  0.4235
  468TIP3   OH222894   3.679   5.793  14.630 -0.0031 -0.1197  0.5115
  468TIP3    H122895   3.702   5.886  14.636  0.0824 -0.0616 -0.5905
  468TIP3    H222896   3.613   5.780  14.698 -0.0167  0.7484  0.6672
  469TIP3   OH222897   0.547   0.097   0.208  0.1024  0.4134  0.0554
  469TIP3    H122898   0.487   0.060   0.144 -0.6296  0.8860  0.4519
  469TIP3    H222899   0.589   0.171   0.163 -0.8374  1.1044  0.2974
  470TIP3   OH222900   0.850   6.256  12.450 -0.1088 -0.2419 -0.4432
  470TIP3    H122901   0.815   6.209  12.526 -0.2915  0.6603  0.0424
  470TIP3    H222902   0.932   6.296  12.482 -0.3133  0.3501 -0.6413
  471TIP3   OH222903   2.292   2.577  14.078  0.2628  0.1076 -0.2151
  471TIP3    H122904   2.335   2.562  14.162  2.6980  0.3593 -1.3638
  471TIP3    H222905   2.291   2.492  14.035 -1.5023 -0.1345  0.3068
  472TIP3   OH222906   0.185   4.788   1.123 -0.4775  0.3068 -0.0989
  472TIP3    H122907   0.212   4.712   1.173 -1.1410 -0.4959 -0.9282
  472TIP3    H222908   0.266   4.821   1.083 -0.1575  0.1631  0.4339
  473TIP3   OH222909   2.492   2.466   2.262 -0.8211 -0.2454  0.0078
  473TIP3    H122910   2.490   2.466   2.167  0.9672 -0.5708 -0.0324
  473TIP3    H222911   2.520   2.554   2.285  1.0443 -0.8745  0.1758
  474TIP3   OH222912   5.415   4.559  11.507  0.2603  0.2799  0.1034
  474TIP3    H122913   5.432   4.466  11.495 -2.2613 -0.2698  0.5356
  474TIP3    H222914   5.435   4.598  11.422 -0.1434 -0.8765 -0.5339
  475TIP3   OH222915   1.760   1.600  11.848  0.3027 -0.0402  0.0744
  475TIP3    H122916   1.790   1.691  11.851  0.3733 -0.0712  0.2759
  475TIP3    H222917   1.671   1.606  11.813  0.5580  0.0475 -0.5684
  476TIP3   OH222918   1.513   3.811  11.738  0.1213  0.5068  0.1915
  476TIP3    H122919   1.598   3.768  11.747 -0.5469 -0.8204  0.2180
  476TIP3    H222920   1.524   3.893  11.786  1.0815 -0.0962  1.0507
  477TIP3   OH222921   0.204   6.144   0.508  0.2552 -0.4802 -0.3558
  477TIP3    H122922   0.130   6.103   0.555  1.1853 -0.9547  0.7155
  477TIP3    H222923   0.179   6.138   0.416 -2.1166  1.4531  0.0933
  478TIP3   OH222924   4.973   6.239  13.078  0.8455  0.2711 -0.1572
  478TIP3    H122925   4.968   6.289  13.159 -2.6873 -1.8145  1.0007
  478TIP3    H222926   4.888   6.253  13.035  1.2787 -1.5438 -1.7123
  479TIP3   OH222927   4.823   0.037  14.411 -0.0593 -0.5049 -0.4135
  479TIP3    H122928   4.768   0.092  14.466  1.1219 -0.4319  0.7035
  479TIP3    H222929   4.799  -0.053  14.435 -0.7381 -0.4800 -0.9857
  480TIP3   OH222930   1.986   4.482   5.649 -0.0016 -0.4733 -0.1938
  480TIP3    H122931   1.901   4.443   5.627  0.0128 -1.9110  2.1219
  480TIP3    H222932   1.971   4.576   5.644 -0.9561 -0.7229 -2.5998
  481TIP3   OH222933   5.763   4.678   1.025  0.4003 -0.2283 -0.3842
  481TIP3    H122934   5.718   4.668   0.941  2.0507 -0.1743 -1.3067
  481TIP3    H222935   5.774   4.588   1.056 -0.8088 -0.2089  0.1024
  482TIP3   OH222936   4.690   0.628  15.618  0.5102 -0.0899 -0.3652
  482TIP3    H122937   4.599   0.657  15.616 -0.2520 -2.3835 -1.2033
  482TIP3    H222938   4.688   0.546  15.669  1.8775 -0.8691 -1.5282
  483TIP3   OH222939   2.149   0.023   3.087 -0.9042 -0.3655  0.2161
  483TIP3    H122940   2.064   0.013   3.044 -0.9099 -0.5299  0.2657
  483TIP3    H222941   2.129   0.016   3.181 -0.6888 -1.5148  0.1901
  484TIP3   OH222942   4.178   1.582  10.624  0.2237 -0.2293  0.2696
  484TIP3    H122943   4.163   1.672  10.594  0.9825 -0.2727 -0.2532
  484TIP3    H222944   4.146   1.527  10.552 -0.1814 -0.3827  0.5640
  485TIP3   OH222945   1.750   5.338   4.347 -0.2362 -0.3976  0.0039
  485TIP3    H122946   1.819   5.276   4.323  0.0855  0.6142 -1.8036
  485TIP3    H222947   1.683   5.325   4.280  0.5019  2.2393 -1.3375
  486TIP3   OH222948   2.771   3.719  13.528  0.2580  0.0039  0.3831
  486TIP3    H122949   2.675   3.714  13.536  0.4343 -0.7012  2.4375
  486TIP3    H222950   2.802   3.642  13.575  1.8502  0.4076  0.0033
  487TIP3   OH222951   4.492   3.752  12.262 -0.0347  0.3934  0.5869
  487TIP3    H122952   4.471   3.764  12.355  2.4735  1.5102  1.0426
  487TIP3    H222953   4.493   3.657  12.250 -1.2285  0.2469  1.4778
  488TIP3   OH222954   3.707   2.403  14.470 -0.0970  0.0430 -0.0557
  488TIP3    H122955   3.776   2.441  14.415 -0.7818 -1.1529 -1.8082
  488TIP3    H222956   3.754   2.358  14.540  0.8798  0.0519 -0.6962
  489TIP3   OH222957   0.834   6.378   2.377  0.2863  0.3377  0.3396
  489TIP3    H122958   0.799   6.288   2.377 -1.2452  0.9183 -0.5377
  489TIP3    H222959   0.834   6.403   2.469 -2.4765  0.6281  0.3050
  490TIP3   OH222960   1.946   3.802   3.095 -0.1974  0.1972 -0.5187
  490TIP3    H122961   2.020   3.798   3.157 -0.7689 -1.2159  0.1096
  490TIP3    H222962   1.973   3.866   3.029  1.9361 -0.8692 -0.7343
  491TIP3   OH222963   1.334   4.160  15.428  0.4303  0.1122 -0.5961
  491TIP3    H122964   1.273   4.090  15.450 -0.0457  1.0296  1.0710
  491TIP3    H222965   1.416   4.115  15.409  1.0029 -0.8110  3.4883
  492TIP3   OH222966   6.657   0.649   5.636 -0.1444 -0.1131 -0.3944
  492TIP3    H122967   6.733   0.675   5.689  1.0173 -0.2758 -1.9477
  492TIP3    H222968   6.678   0.679   5.548 -0.7945 -2.3138 -1.3319
  493TIP3   OH222969   2.028   1.059  16.312  0.2228 -0.1159  0.0963
  493TIP3    H122970   2.114   1.067  16.271 -0.1077 -0.8707 -0.7661
  493TIP3    H222971   2.047   1.053  16.406  1.3182 -2.8806 -0.2510
  494TIP3   OH222972   0.596   6.042  14.016 -0.0840 -0.0001 -0.6854
  494TIP3    H122973   0.634   6.085  14.092 -0.3124  0.4205 -0.8044
  494TIP3    H222974   0.600   5.949  14.036  0.1890  0.0891 -0.3180
  495TIP3   OH222975   3.721   3.947  12.543 -0.3484 -0.4358  0.1196
  495TIP3    H122976   3.698   3.997  12.621 -0.9508 -1.3258  0.5171
  495TIP3    H222977   3.638   3.917  12.508 -0.1017  0.1564 -1.0108
  496TIP3   OH222978   1.944   3.895  12.944  0.0767 -0.1218  0.4422
  496TIP3    H122979   1.975   3.980  12.912  2.8051 -1.0744  0.4225
  496TIP3    H222980   1.933   3.842  12.865 -0.7421 -0.0678  0.5200
  497TIP3   OH222981   4.956   6.181   5.550 -0.7318 -0.2703  1.0364
  497TIP3    H122982   4.872   6.140   5.568 -0.2596 -1.7789 -0.0491
  497TIP3    H222983   4.976   6.232   5.628 -2.0675 -0.9016  1.7910
  498TIP3   OH222984   4.339   5.306   4.189  0.2669 -0.2814 -0.0010
  498TIP3    H122985   4.297   5.222   4.169  0.7379  0.3401 -3.9315
  498TIP3    H222986   4.266   5.367   4.202 -0.0795 -0.5005 -0.8752
  499TIP3   OH222987   0.025   3.724  14.728 -0.7792 -0.0325  0.3952
  499TIP3    H122988   0.113   3.724  14.691 -1.0111 -1.0291 -0.1811
  499TIP3    H222989  -0.028   3.678  14.663 -1.8758  1.2170  0.3796
  500TIP3   OH222990   3.919   5.882   0.080  0.6160 -0.7029  0.1487
  500TIP3    H122991   3.917   5.940   0.156 -0.0549 -1.3252  0.6125
  500TIP3    H222992   3.958   5.801   0.113 -2.1300 -1.9370  0.5343
  501TIP3   OH222993   1.612   5.419   6.119 -0.7363  0.8614 -0.5408
  501TIP3    H122994   1.597   5.394   6.210  0.2003  0.9605 -0.3467
  501TIP3    H222995   1.609   5.515   6.120 -1.6602  0.8385 -0.7900
  502TIP3   OH222996   0.221   2.471   0.026 -0.0151  0.1352  0.8926
  502TIP3    H122997   0.191   2.471  -0.065  2.9232 -0.3932 -0.1335
  502TIP3    H222998   0.188   2.553   0.062 -1.4108  0.2443 -0.5702
  503TIP3   OH222999   1.415   3.165   1.198  0.3409  0.0916  0.2379
  503TIP3    H123000   1.421   3.099   1.128  0.5167 -0.2059  0.5362
  503TIP3    H223001   1.363   3.236   1.159  2.0580  0.7976 -0.8843
  504TIP3   OH223002   1.875   0.017   0.196  0.6311 -0.7034 -0.2771
  504TIP3    H123003   1.910   0.095   0.241  0.3698 -0.2405 -0.8696
  504TIP3    H223004   1.784   0.014   0.223  0.2906 -0.0226 -1.3124
  505TIP3   OH223005   4.199   4.997  16.402 -0.0577  0.2220  0.3909
  505TIP3    H123006   4.252   5.019  16.325 -2.0543  1.9853 -0.5186
  505TIP3    H223007   4.113   4.976  16.366 -0.7598  0.1764  2.0828
  506TIP3   OH223008   4.409   4.570   0.851 -0.0647  0.0801  0.3649
  506TIP3    H123009   4.382   4.635   0.916  0.3958  1.1492 -0.4781
  506TIP3    H223010   4.331   4.516   0.837 -0.6120  0.7633  0.7342
  507TIP3   OH223011   0.068   4.321  16.458 -0.7448 -0.4728  0.1533
  507TIP3    H123012   0.042   4.248  16.515 -1.0485  0.1704  0.8524
  507TIP3    H223013   0.018   4.308  16.377 -0.6196 -1.1698  0.1871
  508TIP3   OH223014   6.708   6.639   3.286  0.0354 -0.6012  0.7601
  508TIP3    H123015   6.705   6.697   3.362 -1.5645 -0.4307  0.5773
  508TIP3    H223016   6.671   6.556   3.318 -2.6996  0.1228 -0.3647
  509TIP3   OH223017   1.473   3.589  14.372  0.2757  0.3800  0.1031
  509TIP3    H123018   1.433   3.675  14.386  0.1023  0.3700 -0.3195
  509TIP3    H223019   1.408   3.540  14.321  0.5261  0.1199  0.0303
  510TIP3   OH223020   5.339   0.538  16.555  0.1886 -0.5067  0.3118
  510TIP3    H123021   5.401   0.467  16.568  1.7955  0.7099 -0.4674
  510TIP3    H223022   5.320   0.536  16.461  1.4598  1.0507  0.0043
  511TIP3   OH223023   2.211   1.109   4.150  0.4526 -0.1683 -0.0370
  511TIP3    H123024   2.233   1.066   4.233  0.9839  0.8235  0.3565
  511TIP3    H223025   2.170   1.041   4.097  2.3253 -1.4689  0.1166
  512TIP3   OH223026   1.547   5.139  10.905 -0.4265  0.3472 -0.0920
  512TIP3    H123027   1.470   5.150  10.962 -0.2671  0.5167  0.0930
  512TIP3    H223028   1.527   5.192  10.828  0.1342  1.5897  0.5910
  513TIP3   OH223029   1.409   3.120   6.013 -0.1852 -0.1493  0.2818
  513TIP3    H123030   1.455   3.041   6.040 -1.3095 -0.9636 -0.1230
  513TIP3    H223031   1.385   3.164   6.094  1.0649  0.1433  0.4947
  514TIP3   OH223032   5.848   6.649   5.748 -0.1522  0.9292 -1.0429
  514TIP3    H123033   5.811   6.720   5.801  0.1458 -0.2143  0.7550
  514TIP3    H223034   5.779   6.583   5.746  1.1997 -0.6184  1.1362
  515TIP3   OH223035   6.156   2.361  14.356  1.2526 -0.0551  0.0213
  515TIP3    H123036   6.181   2.269  14.353  2.5052  0.1733  2.2461
  515TIP3    H223037   6.061   2.361  14.363  1.2588 -1.1896  0.1316
  516TIP3   OH223038   1.058   0.315  13.775  0.1279  0.4356  0.4923
  516TIP3    H123039   1.050   0.225  13.743 -0.3225  1.4287 -2.3060
  516TIP3    H223040   0.978   0.330  13.825 -0.1390 -0.4520  0.3431
  517TIP3   OH223041   3.837   3.733   3.191  0.3891  0.2276 -0.2793
  517TIP3    H123042   3.782   3.659   3.166  1.0482  0.0792 -1.2819
  517TIP3    H223043   3.788   3.775   3.262  0.3266 -1.5542  0.7772
  518TIP3   OH223044   5.152   5.211  16.895  0.2697  0.4157 -0.1505
  518TIP3    H123045   5.151   5.181  16.986  0.3050  2.9769  0.7467
  518TIP3    H223046   5.060   5.224  16.873  0.1766 -1.4376 -0.9462
  519TIP3   OH223047   1.819   5.420   5.738  0.2372 -0.0945  0.2803
  519TIP3    H123048   1.755   5.491   5.740 -0.7254 -0.9457  0.0086
  519TIP3    H223049   1.803   5.370   5.818 -0.3029 -1.0461 -0.4045
  520TIP3   OH223050   4.610   5.685  14.092 -0.2703  0.0343  0.1941
  520TIP3    H123051   4.693   5.699  14.138 -0.8768  0.3769  1.1815
  520TIP3    H223052   4.613   5.592  14.066  1.6840  0.7239 -2.3192
  521TIP3   OH223053   4.842   1.827   0.126 -1.0670  0.7177 -0.0523
  521TIP3    H123054   4.922   1.869   0.095  0.1427  0.3673  2.5560
  521TIP3    H223055   4.847   1.738   0.092 -0.3779  0.7145  0.0523
  522TIP3   OH223056   1.758   3.407  13.195  0.3485  0.1679  0.3610
  522TIP3    H123057   1.688   3.442  13.250  0.6497  0.4403  0.5715
  522TIP3    H223058   1.797   3.484  13.154 -0.1862 -0.0633 -0.6172
  523TIP3   OH223059   0.089   2.924   5.201  0.1873 -0.6753  0.1163
  523TIP3    H123060   0.165   2.867   5.212  0.4724 -0.2960  0.1416
  523TIP3    H223061   0.096   2.956   5.111  0.5631  0.0731  0.4046
  524TIP3   OH223062   5.998   2.562   0.337  0.3695 -0.1385 -0.3473
  524TIP3    H123063   5.923   2.620   0.326 -1.0503 -1.7556  0.6177
  524TIP3    H223064   6.014   2.561   0.431  0.5716 -1.0584 -0.3873
  525TIP3   OH223065   2.100   0.556  13.570  0.2772  0.2245  0.4162
  525TIP3    H123066   2.085   0.486  13.506  3.2476  0.2386 -0.4076
  525TIP3    H223067   2.123   0.510  13.651  0.7852  0.2134  0.2703
  526TIP3   OH223068   4.925   4.574  12.177  0.3649  0.3078 -0.0141
  526TIP3    H123069   4.830   4.584  12.183  0.1917 -1.1915  0.0004
  526TIP3    H223070   4.961   4.655  12.212 -0.9224  1.2633 -0.8764
  527TIP3   OH223071   1.901   2.540   3.862 -0.1028  0.0685 -0.4461
  527TIP3    H123072   1.983   2.588   3.867  0.3571 -0.2406 -3.9260
  527TIP3    H223073   1.902   2.499   3.776 -2.7177 -2.1492  0.4989
  528TIP3   OH223074   2.036   0.007  15.386 -0.3396 -0.0246  0.2704
  528TIP3    H123075   2.102   0.041  15.446 -0.1942 -2.4589  1.5671
  528TIP3    H223076   1.953   0.041  15.419 -0.2707 -1.4177  1.9715
  529TIP3   OH223077   0.137   2.443   4.976  0.9297  0.2901  0.4612
  529TIP3    H123078   0.197   2.501   4.930  2.8423  0.2530  2.8003
  529TIP3    H223079   0.087   2.501   5.034  1.2536 -0.0829  1.1305
  530TIP3   OH223080   5.169   6.436  12.946  0.3324 -0.1407 -0.0267
  530TIP3    H123081   5.125   6.419  13.030  1.1309 -1.1618  0.1919
  530TIP3    H223082   5.103   6.414  12.880 -0.6483  1.6456  0.3293
  531TIP3   OH223083   3.972   2.359   2.981  0.6854 -0.4365 -0.2030
  531TIP3    H123084   4.025   2.425   2.936 -0.4448  0.3134 -0.4473
  531TIP3    H223085   3.886   2.366   2.940 -0.3358  0.1532  1.9717
  532TIP3   OH223086   3.405   1.284  13.289  0.5769 -0.1554  0.0078
  532TIP3    H123087   3.321   1.280  13.243 -1.0251  1.1294  2.6990
  532TIP3    H223088   3.451   1.357  13.248 -0.2225  0.0464 -0.5403
  533TIP3   OH223089   1.067   5.113  15.111  0.1861  0.6721  0.0623
  533TIP3    H123090   0.979   5.128  15.074 -0.5514 -1.5595  0.8756
  533TIP3    H223091   1.060   5.143  15.201  0.3389  0.6975  0.0646
  534TIP3   OH223092   6.237   0.365  13.890  0.5148  0.3291  0.5294
  534TIP3    H123093   6.160   0.395  13.841  0.6517 -1.8126 -1.0595
  534TIP3    H223094   6.226   0.404  13.977 -3.0438 -0.9777  0.7688
  535TIP3   OH223095   1.981   4.460   1.615  0.2383 -0.6536  0.1936
  535TIP3    H123096   2.000   4.367   1.628  1.3559 -0.8794 -2.5957
  535TIP3    H223097   1.890   4.462   1.585  0.1209 -0.8167  0.5359
  536TIP3   OH223098   1.929   5.640  10.825 -0.2907  0.6019  0.7721
  536TIP3    H123099   1.958   5.549  10.833 -1.2460  0.2128 -0.1289
  536TIP3    H223100   1.888   5.644  10.739 -0.4431  1.8403  0.9030
  537TIP3   OH223101   6.074   3.987  15.482 -0.0424 -0.2954 -0.3013
  537TIP3    H123102   6.098   3.928  15.554  1.2793  1.1484  0.4829
  537TIP3    H223103   6.151   4.044  15.472 -0.9193  0.6550 -1.6875
  538TIP3   OH223104   3.128   1.924   0.677  0.8244  0.2533 -0.2753
  538TIP3    H123105   3.089   1.959   0.757 -1.9312  2.1377 -2.3211
  538TIP3    H223106   3.197   1.987   0.655  0.9773  0.2262  0.1147
  539TIP3   OH223107   4.823   1.444  15.366  0.3464 -0.1137  0.1015
  539TIP3    H123108   4.848   1.430  15.275 -0.4372  1.4934 -0.3786
  539TIP3    H223109   4.905   1.438  15.415  0.9365  0.1413 -0.8458
  540TIP3   OH223110   3.684   4.029   1.582  0.3056 -0.0685  0.0879
  540TIP3    H123111   3.664   4.007   1.491 -0.9513 -2.6746  0.9400
  540TIP3    H223112   3.608   3.997   1.631  2.5158 -1.9170  2.4211
  541TIP3   OH223113   4.028   0.647  16.999  0.4663  0.2954 -0.1330
  541TIP3    H123114   4.089   0.614  16.933  1.5978  1.5500  0.2622
  541TIP3    H223115   3.962   0.578  17.007 -0.0493  0.3600 -3.0079
  542TIP3   OH223116   0.519   4.057   6.965  0.3586  0.2426 -0.1865
  542TIP3    H123117   0.614   4.065   6.976  0.7147 -0.2492 -2.6308
  542TIP3    H223118   0.483   4.134   7.009  1.7397 -0.5813  2.4611
  543TIP3   OH223119   6.682   5.407  16.177 -0.0391  0.1684  0.9992
  543TIP3    H123120   6.588   5.423  16.164  0.2218  0.2695 -0.8673
  543TIP3    H223121   6.687   5.317  16.209 -0.7604  0.1175  0.9750
  544TIP3   OH223122   4.084   4.721  12.000  0.2141  0.4133 -0.2322
  544TIP3    H123123   4.049   4.634  12.022  1.4378  0.1343  0.6922
  544TIP3    H223124   4.073   4.728  11.906 -0.2502 -0.5995 -0.2663
  545TIP3   OH223125   4.492   5.135  13.957 -0.2982  0.1186  0.0663
  545TIP3    H123126   4.447   5.168  13.879 -0.6371  1.2631  0.7272
  545TIP3    H223127   4.477   5.041  13.956  0.4214  0.0018 -1.7054
  546TIP3   OH223128   1.964   2.422   6.247  0.1179 -0.4829 -0.2156
  546TIP3    H123129   1.896   2.429   6.314  0.1633  1.2740 -0.3288
  546TIP3    H223130   1.956   2.333   6.214 -1.0707 -0.8038  0.8941
  547TIP3   OH223131   5.053   1.496  12.170  0.5852  0.1967  0.2964
  547TIP3    H123132   5.033   1.527  12.258  0.4097 -0.0943  0.3582
  547TIP3    H223133   5.094   1.571  12.127 -0.7381  0.8406  0.1306
  548TIP3   OH223134   3.199   4.445   2.775 -0.2008  0.1437  0.5481
  548TIP3    H123135   3.246   4.506   2.831 -1.4511  1.1408  0.5312
  548TIP3    H223136   3.261   4.423   2.705  0.4642  0.8984  0.9019
  549TIP3   OH223137   1.363   5.669   5.547  0.3582  0.6783  0.7372
  549TIP3    H123138   1.442   5.653   5.599  1.1136  2.7259  0.2881
  549TIP3    H223139   1.396   5.678   5.457 -0.8636 -2.3313 -0.0846
  550TIP3   OH223140   3.364   3.840  11.907 -0.2382 -0.2294 -0.5758
  550TIP3    H123141   3.406   3.780  11.969 -1.7764 -0.8011 -0.0590
  550TIP3    H223142   3.436   3.889  11.869  0.9471 -1.5793 -0.1230
  551TIP3   OH223143   6.088   2.698   4.471  0.1970 -0.2825  0.3270
  551TIP3    H123144   6.124   2.764   4.412  0.7676  0.0616  1.0586
  551TIP3    H223145   6.014   2.742   4.513  1.8105  0.5988  2.3335
  552TIP3   OH223146   2.019   4.063  12.317  0.3981 -0.3279 -0.0280
  552TIP3    H123147   2.022   3.972  12.345  0.2386 -1.2074 -2.7204
  552TIP3    H223148   2.096   4.073  12.261  0.3942  1.1808  0.2207
  553TIP3   OH223149   3.718   2.975  15.078  0.7690  0.7597 -1.0215
  553TIP3    H123150   3.710   2.961  15.172  0.2991 -1.2917 -1.3323
  553TIP3    H223151   3.807   2.945  15.057  0.7125  0.7849 -1.2945
  554TIP3   OH223152   5.035   5.671  14.829  0.2080 -0.7450  0.2238
  554TIP3    H123153   5.113   5.623  14.801 -1.2368 -3.1299  0.1328
  554TIP3    H223154   4.985   5.607  14.881 -1.8353  0.6269  0.0027
  555TIP3   OH223155   3.936   4.276  10.772 -0.0705  0.3449 -0.3791
  555TIP3    H123156   3.966   4.223  10.698 -0.6442 -1.2756  0.5177
  555TIP3    H223157   3.865   4.329  10.736 -2.1674 -2.3574 -0.4423
  556TIP3   OH223158   3.262   0.040   6.332  0.1295  0.4566  0.5601
  556TIP3    H123159   3.345   0.058   6.377 -0.0003  0.5123  0.7769
  556TIP3    H223160   3.268   0.091   6.251  0.4861  0.1263  0.3783
  557TIP3   OH223161   6.217   6.298   3.267  0.3752  0.1063 -0.2999
  557TIP3    H123162   6.231   6.252   3.350  1.5298  0.2162 -0.4326
  557TIP3    H223163   6.269   6.250   3.203  0.5450  0.8140 -0.6998
  558TIP3   OH223164   4.768   4.611   5.847 -0.3481  0.0690 -0.1074
  558TIP3    H123165   4.739   4.522   5.865 -2.2500  0.4671 -1.0159
  558TIP3    H223166   4.798   4.610   5.757 -0.7977  0.4253 -0.2685
  559TIP3   OH223167   1.150   2.146  16.485  0.0920  0.5249  0.1244
  559TIP3    H123168   1.117   2.185  16.405  0.7705  2.3024  0.6868
  559TIP3    H223169   1.141   2.215  16.551  0.8582 -0.4311  1.2483
  560TIP3   OH223170   6.309   2.699   4.974  0.1663 -0.3193  0.2730
  560TIP3    H123171   6.340   2.769   4.916  1.1668 -0.1408  0.9946
  560TIP3    H223172   6.316   2.619   4.922  0.3161 -0.0580 -0.1085
  561TIP3   OH223173   6.811   0.478   3.035  0.5061  0.0714 -0.0468
  561TIP3    H123174   6.851   0.555   3.075  2.4956 -1.1017  0.2551
  561TIP3    H223175   6.725   0.471   3.077  1.2439  0.7684  1.5942
  562TIP3   OH223176   1.581   2.825   1.591 -0.8009 -0.4169  0.2612
  562TIP3    H123177   1.622   2.907   1.618  1.1720 -1.1987 -0.3230
  562TIP3    H223178   1.545   2.844   1.504 -1.6779  0.2417  0.7466
  563TIP3   OH223179   1.092   1.971   1.348  0.2559  0.2884 -0.0646
  563TIP3    H123180   0.998   1.963   1.332  0.3588 -0.3968 -0.3465
  563TIP3    H223181   1.116   1.890   1.392  1.1408 -0.5805 -2.0966
  564TIP3   OH223182   1.318   1.202  16.320  0.0117  0.5871  0.0928
  564TIP3    H123183   1.236   1.203  16.271 -0.0714  0.5697  0.2307
  564TIP3    H223184   1.348   1.111  16.314  0.8206  0.9388 -1.2865
  565TIP3   OH223185   1.825   0.666   4.396 -0.3597  0.6289 -0.6460
  565TIP3    H123186   1.849   0.593   4.453  3.1606  1.0810 -1.4433
  565TIP3    H223187   1.756   0.631   4.339 -1.8990 -0.6614  1.9186
  566TIP3   OH223188   1.933   3.201   4.444 -0.2906 -0.3598 -0.1331
  566TIP3    H123189   1.998   3.185   4.512 -0.3350  1.6584  0.4214
  566TIP3    H223190   1.970   3.161   4.365  0.9979 -0.3992  0.4828
  567TIP3   OH223191   3.905   1.014  17.179 -0.5645  0.4133 -0.1680
  567TIP3    H123192   3.972   0.990  17.114 -0.5959 -0.9046  0.2747
  567TIP3    H223193   3.851   0.936  17.187 -1.8466  1.2907 -0.1109
  568TIP3   OH223194   0.202   4.836  11.174 -0.2049  0.1964 -0.4616
  568TIP3    H123195   0.195   4.789  11.091 -2.2994 -0.8824  0.2848
  568TIP3    H223196   0.226   4.769  11.237 -1.2721  0.4859  0.2635
  569TIP3   OH223197   5.585   1.073  11.829  0.0080 -0.1880 -0.1824
  569TIP3    H123198   5.628   1.067  11.915  1.8295  1.3668 -0.9345
  569TIP3    H223199   5.600   0.987  11.789  0.0930 -0.5609  0.6378
  570TIP3   OH223200   2.423   1.469   1.333 -0.7972  0.4532  0.3235
  570TIP3    H123201   2.441   1.525   1.257  0.5151  0.3621  0.5557
  570TIP3    H223202   2.441   1.525   1.409  0.2818 -0.2037  0.5583
  571TIP3   OH223203   5.993   6.386   2.489 -0.0148  0.1237 -0.1350
  571TIP3    H123204   6.062   6.320   2.500 -0.0275  0.3978  1.9430
  571TIP3    H223205   6.040   6.469   2.484 -0.1396  0.2761  0.9351
  572TIP3   OH223206   2.874   6.367   2.040 -0.2878  0.5600 -0.2397
  572TIP3    H123207   2.784   6.374   2.073 -0.8155 -0.2187 -1.4457
  572TIP3    H223208   2.884   6.274   2.017  1.3714  0.3284  1.3507
  573TIP3   OH223209   2.596   1.462  11.252 -0.4426 -0.4790 -0.7638
  573TIP3    H123210   2.570   1.370  11.258  3.1320 -1.5664 -0.1835
  573TIP3    H223211   2.657   1.464  11.177 -0.6128  1.4435 -0.8764
  574TIP3   OH223212   1.962   3.521   1.877 -0.0448  0.2947  0.0539
  574TIP3    H123213   2.035   3.463   1.855 -0.0371  0.0154  0.7729
  574TIP3    H223214   1.997   3.609   1.865 -0.0833  0.1548 -1.1408
  575TIP3   OH223215   3.345   3.740  13.794 -0.0516  1.0346 -0.1246
  575TIP3    H123216   3.308   3.693  13.869  0.4478  0.3872 -0.2804
  575TIP3    H223217   3.269   3.757  13.737 -0.0797 -0.5313 -0.5700
  576TIP3   OH223218   0.904   5.315   4.920 -0.2650  0.1275  0.0089
  576TIP3    H123219   0.953   5.392   4.949  0.7488 -1.0762  1.5893
  576TIP3    H223220   0.822   5.319   4.970  0.4540 -0.6381  1.2847
  577TIP3   OH223221   0.685   0.084   3.321  0.1738 -0.0675 -0.2367
  577TIP3    H123222   0.701   0.160   3.376  2.1105 -1.7106  1.5860
  577TIP3    H223223   0.620   0.032   3.369 -0.4239 -0.0439 -1.0047
  578TIP3   OH223224   0.252   0.238   1.499 -0.2896 -0.3944 -0.2646
  578TIP3    H123225   0.327   0.179   1.486 -0.2108 -0.3931  0.1999
  578TIP3    H223226   0.291   0.320   1.528 -0.4130 -0.1608 -0.7580
  579TIP3   OH223227   2.286   2.607   5.483 -1.0559 -0.6209  0.1956
  579TIP3    H123228   2.297   2.517   5.513 -2.0981 -0.7806  0.1059
  579TIP3    H223229   2.309   2.660   5.559 -0.9098 -0.9752  0.3998
  580TIP3   OH223230   4.557   5.912   2.699  0.1509 -0.2305 -0.3603
  580TIP3    H123231   4.482   5.894   2.755  1.3852  0.8734  1.7063
  580TIP3    H223232   4.591   5.996   2.730  1.3095  0.0523 -2.2909
  581TIP3   OH223233   5.972   5.141  12.052  0.5915  0.2611 -0.4048
  581TIP3    H123234   6.021   5.222  12.069 -1.4353  1.9236 -2.2023
  581TIP3    H223235   5.983   5.090  12.132 -0.2156  3.4030  1.8220
  582TIP3   OH223236   1.261   4.684   2.401  0.2060  0.1349 -0.5169
  582TIP3    H123237   1.307   4.765   2.382  0.6728 -0.7552 -3.4071
  582TIP3    H223238   1.323   4.615   2.377 -0.1511 -1.1138  1.9775
  583TIP3   OH223239   6.252   4.515  13.349  0.1141  0.1114 -0.0163
  583TIP3    H123240   6.235   4.549  13.437 -2.3848 -0.7517 -0.1252
  583TIP3    H223241   6.300   4.434  13.364 -1.8968 -0.9988  0.6968
  584TIP3   OH223242   6.192   3.012  15.195  0.4664  0.4470  0.1050
  584TIP3    H123243   6.134   3.006  15.271  2.4032  0.7011  1.6532
  584TIP3    H223244   6.215   2.921  15.175 -0.6032  0.3335 -0.6349
  585TIP3   OH223245   1.352   4.391  12.867  0.2309 -0.1430  0.2646
  585TIP3    H123246   1.430   4.370  12.817  1.1308  0.4781  1.3843
  585TIP3    H223247   1.372   4.475  12.909 -0.7162 -0.3645  1.1921
  586TIP3   OH223248   1.788   0.531   4.134  0.5619  0.0720  0.3778
  586TIP3    H123249   1.875   0.570   4.126  0.3867  0.2914 -0.4826
  586TIP3    H223250   1.781   0.473   4.057 -0.5493  1.0177 -0.2374
  587TIP3   OH223251   3.587   0.587   0.210 -0.1455 -0.4737 -0.0836
  587TIP3    H123252   3.635   0.667   0.229  2.7207 -2.5676  2.0021
  587TIP3    H223253   3.636   0.546   0.139  0.0589 -1.6900  0.7460
  588TIP3   OH223254   2.328   6.071   0.076  0.6427 -0.7348 -0.6905
  588TIP3    H123255   2.400   6.042   0.019  2.4292  0.8201  0.7056
  588TIP3    H223256   2.366   6.141   0.129 -1.1338 -1.7732  2.0620
  589TIP3   OH223257   3.581   5.664  15.696  0.8166 -0.0923 -0.3422
  589TIP3    H123258   3.574   5.753  15.663  0.5064  0.3480  0.8644
  589TIP3    H223259   3.655   5.667  15.757  0.5313 -0.5452  0.0334
  590TIP3   OH223260   1.226   4.416   2.545 -0.6829 -0.2317 -0.0540
  590TIP3    H123261   1.195   4.384   2.460 -0.0064  0.9120 -0.7557
  590TIP3    H223262   1.146   4.437   2.593 -1.0968 -1.8739 -0.0062
  591TIP3   OH223263   4.203   0.551   5.282 -0.0602 -0.2746 -0.0336
  591TIP3    H123264   4.237   0.613   5.217  2.0230  0.4710  1.6807
  591TIP3    H223265   4.256   0.472   5.269  1.6934  0.5159  1.9299
  592TIP3   OH223266   5.363   6.424  13.926 -0.3165  0.2109 -0.5366
  592TIP3    H123267   5.300   6.453  13.860 -0.3374 -1.9420 -1.4992
  592TIP3    H223268   5.444   6.408  13.877  0.8425  2.4007  0.6043
  593TIP3   OH223269   1.045   3.812   0.521  0.0549 -0.0564  0.3908
  593TIP3    H123270   0.966   3.758   0.520 -2.7258  3.7160  1.4297
  593TIP3    H223271   1.075   3.809   0.612 -0.9105  1.1381  0.7712
  594TIP3   OH223272   1.210   6.599  13.655  0.0979 -0.0194 -0.3297
  594TIP3    H123273   1.300   6.630  13.671 -0.1153 -0.7511  2.6682
  594TIP3    H223274   1.156   6.650  13.715 -1.0840 -1.6924  0.0681
  595TIP3   OH223275   0.652   3.408  16.795  0.3870  0.0147 -0.2652
  595TIP3    H123276   0.609   3.419  16.880  1.1054  1.9832 -0.1268
  595TIP3    H223277   0.692   3.493  16.778  0.6594 -0.5208 -2.3547
  596TIP3   OH223278   5.724   4.179  11.196  0.7500  0.4247 -0.6153
  596TIP3    H123279   5.741   4.098  11.148 -0.4738 -0.2280  0.0474
  596TIP3    H223280   5.629   4.180  11.209  0.6666  2.3171 -1.2328
  597TIP3   OH223281   0.224   2.504   1.569  0.0890  0.6278 -0.2731
  597TIP3    H123282   0.307   2.458   1.581 -0.2111 -0.3782 -1.8651
  597TIP3    H223283   0.248   2.589   1.531  0.4543  0.7210  0.1698
  598TIP3   OH223284   1.995   3.094  15.580 -0.4345  0.1951  0.1122
  598TIP3    H123285   1.903   3.113  15.598 -0.4509  1.2225 -1.0702
  598TIP3    H223286   1.994   3.004  15.547 -0.8746 -0.2181  1.2256
  599TIP3   OH223287   6.338   2.572  13.373 -0.4449 -0.3375  0.0159
  599TIP3    H123288   6.365   2.483  13.394 -0.3096 -0.3305 -0.1232
  599TIP3    H223289   6.382   2.591  13.290 -0.9366 -0.3497 -0.2467
  600TIP3   OH223290   2.695   4.640  14.674  0.0221  0.1375  0.1938
  600TIP3    H123291   2.714   4.687  14.755 -0.5180 -2.7553  2.0718
  600TIP3    H223292   2.604   4.661  14.655  0.8824  2.9115 -1.1747
  601TIP3   OH223293   1.884   4.155   3.974  0.6125  0.0902 -0.0281
  601TIP3    H123294   1.872   4.160   3.879 -0.2656 -0.8140  0.0313
  601TIP3    H223295   1.875   4.062   3.995 -3.0946  0.6829  1.4223
  602TIP3   OH223296   4.766   1.437   1.174  0.5869  0.0315  0.4162
  602TIP3    H123297   4.732   1.522   1.148  0.9001  0.0291  0.0076
  602TIP3    H223298   4.759   1.437   1.270  0.3571  0.4164  0.3996
  603TIP3   OH223299   6.074   0.943  15.679 -0.5194  0.1372  0.1033
  603TIP3    H123300   6.129   0.894  15.739 -0.1540 -1.3189 -1.3910
  603TIP3    H223301   5.993   0.958  15.728  0.5221  0.7725  1.6724
  604TIP3   OH223302   0.326   5.814   2.683  0.3016  0.0192  1.0980
  604TIP3    H123303   0.349   5.740   2.739  0.7048 -0.6308  0.0860
  604TIP3    H223304   0.383   5.805   2.607 -0.5761  0.6147  0.3594
  605TIP3   OH223305   3.464   0.202   2.240  0.1919 -0.0613 -0.0693
  605TIP3    H123306   3.488   0.130   2.181 -0.5765 -1.2160  1.0164
  605TIP3    H223307   3.399   0.252   2.191  0.2540 -0.4616 -0.5698
  606TIP3   OH223308   3.654   0.210  11.001 -0.3134 -0.4776  0.0049
  606TIP3    H123309   3.668   0.297  10.963  0.4035 -0.5990 -0.0015
  606TIP3    H223310   3.564   0.188  10.976 -0.3655  0.0956 -0.3288
  607TIP3   OH223311   6.418   5.037  12.696 -0.4984  0.2543  0.1358
  607TIP3    H123312   6.439   5.002  12.782  1.1659 -0.5344 -0.5673
  607TIP3    H223313   6.392   5.128  12.712 -0.9058 -0.1113  1.5436
  608TIP3   OH223314   2.813   4.268  16.289  0.2111 -0.1744 -0.1059
  608TIP3    H123315   2.861   4.308  16.362 -0.1116  0.5007 -0.2553
  608TIP3    H223316   2.740   4.328  16.272 -0.9294 -1.3915  0.3753
  609TIP3   OH223317   6.072   0.178  11.728  0.4439  0.2059 -0.2265
  609TIP3    H123318   5.979   0.170  11.751  0.6128  1.1656  0.8397
  609TIP3    H223319   6.077   0.152  11.636 -0.6867 -1.0714  0.0592
  610TIP3   OH223320   5.261   0.203  11.457 -0.0199  0.1186 -0.0745
  610TIP3    H123321   5.175   0.196  11.497  0.8970 -0.4127  1.8636
  610TIP3    H223322   5.259   0.285  11.409 -1.4551  0.3253  0.3336
  611TIP3   OH223323   2.523   4.535   1.300  0.8735  0.0671  0.0446
  611TIP3    H123324   2.432   4.562   1.283  1.3637  1.9676  0.2668
  611TIP3    H223325   2.530   4.533   1.395  0.2573 -3.0540  0.0739
  612TIP3   OH223326   2.879   5.757  14.245  0.2566 -0.3195 -0.5699
  612TIP3    H123327   2.895   5.717  14.330  1.6547  0.5203 -0.4360
  612TIP3    H223328   2.965   5.760  14.203  0.0779  1.9741 -0.8259
  613TIP3   OH223329   2.923   2.598   2.690 -0.0464  0.3875 -0.3346
  613TIP3    H123330   2.965   2.584   2.775 -0.5650 -0.2745 -0.1835
  613TIP3    H223331   2.981   2.554   2.628 -0.2349 -0.0656 -0.1909
  614TIP3   OH223332   3.288   4.830   2.891 -0.7166 -0.5233 -1.0136
  614TIP3    H123333   3.343   4.785   2.827 -0.0659  0.3203 -1.0622
  614TIP3    H223334   3.334   4.821   2.974 -0.7618 -0.2725 -0.9588
  615TIP3   OH223335   0.948   0.946   1.838  0.0564 -0.1655 -0.4974
  615TIP3    H123336   0.983   0.857   1.838  0.1397 -0.1469 -1.7220
  615TIP3    H223337   0.988   0.986   1.761 -2.1205  0.0887 -1.5133
  616TIP3   OH223338   6.090   2.621   5.350 -0.6218  0.0609  0.2187
  616TIP3    H123339   6.177   2.637   5.388 -0.6543 -0.6812  0.6121
  616TIP3    H223340   6.108   2.567   5.273 -0.6604  0.6066 -0.1725
  617TIP3   OH223341   3.945   0.475   4.745  1.0971  0.2552  0.1261
  617TIP3    H123342   3.875   0.514   4.797  1.0723  1.2137 -0.6159
  617TIP3    H223343   3.911   0.474   4.656  1.5177 -0.4970 -0.0320
  618TIP3   OH223344   3.422   3.371  11.594 -0.2373 -0.0152 -0.3006
  618TIP3    H123345   3.517   3.374  11.601 -0.1080  1.0889 -2.1305
  618TIP3    H223346   3.392   3.454  11.630 -0.5433 -0.5152  0.6130
  619TIP3   OH223347   3.964   1.960  16.400  0.9040 -0.4632 -0.0068
  619TIP3    H123348   3.967   1.953  16.495  0.6792 -0.9234 -0.0362
  619TIP3    H223349   3.893   2.021  16.382  1.6002  0.4132  0.1537
  620TIP3   OH223350   3.738   3.520  13.187  0.1762  0.5949 -0.3642
  620TIP3    H123351   3.829   3.493  13.179  0.6917  1.6540  1.4960
  620TIP3    H223352   3.711   3.488  13.274 -1.1280  0.5268 -0.7847
  621TIP3   OH223353   4.022   4.944   3.828  0.1244  0.4622  0.1132
  621TIP3    H123354   4.109   4.908   3.844  0.1317  0.3383 -0.1868
  621TIP3    H223355   3.993   4.900   3.747 -0.3364  0.2751  0.3758
  622TIP3   OH223356   4.773   2.634  12.118 -0.2477 -0.3819 -0.2581
  622TIP3    H123357   4.707   2.688  12.162  0.5824  0.3086  0.1507
  622TIP3    H223358   4.816   2.587  12.189  0.3462 -0.1052 -0.4328
  623TIP3   OH223359   3.046   3.013  12.254 -0.1342 -0.2311 -0.0358
  623TIP3    H123360   3.083   2.924  12.257  2.2964  0.6845 -1.3402
  623TIP3    H223361   3.064   3.049  12.341  1.5136 -0.0276 -0.4489
  624TIP3   OH223362   1.336   0.188  12.591  0.1181 -0.0715 -0.4752
  624TIP3    H123363   1.348   0.101  12.555  1.9750  0.3038 -0.8371
  624TIP3    H223364   1.299   0.239  12.519  0.1892 -0.2619 -0.6466
  625TIP3   OH223365   0.258   5.858   0.074  0.8871 -0.2150  0.6934
  625TIP3    H123366   0.307   5.791   0.026  1.0512  1.4531 -1.5542
  625TIP3    H223367   0.325   5.913   0.114  0.7602 -1.0027  2.0086
  626TIP3   OH223368   4.068   2.543   2.785  0.1167 -0.0617  0.0862
  626TIP3    H123369   4.042   2.635   2.784  1.5973  0.3667 -0.6506
  626TIP3    H223370   4.004   2.499   2.729 -0.4854  0.5503  0.2914
  627TIP3   OH223371   6.356   3.276  13.015  0.0910  0.2184 -0.0983
  627TIP3    H123372   6.330   3.331  13.089  0.5778 -0.6522  0.7347
  627TIP3    H223373   6.294   3.202  13.017  0.3271  0.0111 -0.3479
  628TIP3   OH223374   5.042   0.498  15.145  0.6459 -0.1089  0.1774
  628TIP3    H123375   5.126   0.470  15.108  0.5846 -0.4675  0.3067
  628TIP3    H223376   4.977   0.441  15.103  0.5469 -0.3337  0.6258
  629TIP3   OH223377   3.902   6.548  13.554 -0.1566  0.0937  0.7481
  629TIP3    H123378   3.996   6.547  13.574  0.0588 -0.4692 -0.2710
  629TIP3    H223379   3.863   6.594  13.629  1.0866  1.6278  0.4925
  630TIP3   OH223380   5.284   4.658  11.936 -0.2765 -0.6723  0.0628
  630TIP3    H123381   5.190   4.642  11.931 -0.2413 -0.5368 -1.0694
  630TIP3    H223382   5.305   4.706  11.856  0.8031 -0.9809  0.1503
  631TIP3   OH223383   6.763   6.632   0.465  0.4862 -0.3822  0.2030
  631TIP3    H123384   6.855   6.615   0.487  0.6927 -1.3762 -1.3683
  631TIP3    H223385   6.747   6.580   0.387 -1.3915 -0.0949  0.3755
  632TIP3   OH223386   5.644   6.467   1.281  1.1785  0.7689  0.4146
  632TIP3    H123387   5.680   6.450   1.193 -3.6752 -2.7220 -1.1053
  632TIP3    H223388   5.585   6.541   1.268 -0.3931 -0.4670  0.4683
  633TIP3   OH223389   4.799   6.693   4.835 -0.0876 -0.0953  0.6216
  633TIP3    H123390   4.739   6.664   4.767 -0.2648 -0.2635  0.8485
  633TIP3    H223391   4.818   6.784   4.813  1.7753 -0.8433 -1.0368
  634TIP3   OH223392   3.648   2.397  11.152 -0.2822  0.3125  0.3756
  634TIP3    H123393   3.706   2.329  11.186 -0.5324 -0.0131  0.1610
  634TIP3    H223394   3.562   2.354  11.147 -0.3326  0.4882 -0.2617
  635TIP3   OH223395   1.662   4.537   2.868  0.4585  0.5610 -0.1301
  635TIP3    H123396   1.705   4.605   2.816  0.3802  0.6364 -0.0967
  635TIP3    H223397   1.581   4.578   2.898  0.2136  0.3211 -0.4493
  636TIP3   OH223398   2.671   4.607  15.770  0.5830  0.1519  0.3298
  636TIP3    H123399   2.719   4.678  15.813 -0.0882  0.3606  0.7289
  636TIP3    H223400   2.626   4.649  15.696  0.3146  0.1088  0.4700
  637TIP3   OH223401   2.309   4.430   4.784  0.0409 -0.7552 -0.0810
  637TIP3    H123402   2.343   4.519   4.777  0.3792 -1.0473 -3.0568
  637TIP3    H223403   2.215   4.439   4.771 -0.1802 -0.6369  1.5659
  638TIP3   OH223404   6.440   1.596  16.783 -0.3566  0.5303 -0.1712
  638TIP3    H123405   6.439   1.606  16.878  0.7094 -0.0679 -0.0948
  638TIP3    H223406   6.418   1.683  16.749 -0.2987  0.8522  0.6127
  639TIP3   OH223407   2.171   4.431  16.023  0.3703 -0.2588 -0.0354
  639TIP3    H123408   2.222   4.448  16.103 -0.6630 -1.7403  0.9704
  639TIP3    H223409   2.117   4.356  16.045 -0.5900 -0.1271 -1.8576
  640TIP3   OH223410   2.242   3.470   5.454 -0.5201  0.2241  0.2085
  640TIP3    H123411   2.211   3.532   5.520 -0.3187 -1.0045  1.4890
  640TIP3    H223412   2.184   3.394   5.464  1.1824 -1.0258  0.7943
  641TIP3   OH223413   5.544   6.019  13.149 -0.3766  0.2069  0.3016
  641TIP3    H123414   5.559   5.935  13.191  2.7434 -0.1142 -1.2932
  641TIP3    H223415   5.473   6.003  13.086 -0.2118 -1.0542  0.4358
  642TIP3   OH223416   1.083   3.640   3.949  0.4610  0.0404  0.8364
  642TIP3    H123417   1.004   3.588   3.942  0.9505 -0.4179 -1.7207
  642TIP3    H223418   1.053   3.731   3.944  0.0423 -0.1088  0.6535
  643TIP3   OH223419   3.504   2.667  17.287 -0.7033 -0.2551  0.6701
  643TIP3    H123420   3.429   2.703  17.333 -0.8805  1.3809 -0.8268
  643TIP3    H223421   3.577   2.724  17.312 -0.2735 -0.9408  0.9759
  644TIP3   OH223422   1.202   0.692  15.233 -0.1981  0.4576 -0.2821
  644TIP3    H123423   1.136   0.703  15.165  1.8264  0.0770 -2.3837
  644TIP3    H223424   1.189   0.766  15.291 -2.4500  0.3888 -0.6648
  645TIP3   OH223425   3.484   4.219   5.889 -0.0875  0.4029 -0.3594
  645TIP3    H123426   3.552   4.231   5.955  0.2582  0.2723 -0.6914
  645TIP3    H223427   3.529   4.229   5.806 -0.4034 -0.0440 -0.5884
  646TIP3   OH223428   5.610   1.877   5.185 -0.3765 -0.3030  0.4344
  646TIP3    H123429   5.657   1.810   5.135  1.0171  0.7890  0.2330
  646TIP3    H223430   5.566   1.931   5.119  0.7033  0.5784  0.4182
  647TIP3   OH223431   6.104   0.818   3.202 -0.5348 -0.3705 -0.2347
  647TIP3    H123432   6.194   0.797   3.229  0.1004 -0.0594 -2.0159
  647TIP3    H223433   6.085   0.901   3.245  1.0009  0.8626 -1.7973
  648TIP3   OH223434   6.352   5.918  15.081 -0.1025 -1.0246  0.1224
  648TIP3    H123435   6.269   5.962  15.101  0.5286  0.2895 -0.1223
  648TIP3    H223436   6.325   5.835  15.042 -1.3472  0.2061 -1.7733
  649TIP3   OH223437   6.573   5.943  13.606  0.1409 -0.1288 -0.2110
  649TIP3    H123438   6.507   5.876  13.623  1.3216 -1.4189 -0.5853
  649TIP3    H223439   6.655   5.894  13.600  0.7555  1.1347 -2.4831
  650TIP3   OH223440   5.357   5.642  12.126 -0.2569  0.1807 -0.0329
  650TIP3    H123441   5.324   5.679  12.207 -0.1205 -1.1735  0.6563
  650TIP3    H223442   5.452   5.651  12.132 -0.2805  0.5870 -0.2897
  651TIP3   OH223443   2.497   2.458  15.105  0.2188  0.1624 -0.4930
  651TIP3    H123444   2.488   2.422  15.016  0.7662 -0.7777 -0.1707
  651TIP3    H223445   2.407   2.470  15.135  0.0290  0.3199 -1.1028
  652TIP3   OH223446   1.852   2.431   0.173 -0.8527  0.3917  0.2044
  652TIP3    H123447   1.808   2.371   0.113 -2.9728 -0.0854  2.1762
  652TIP3    H223448   1.793   2.505   0.181 -0.6321  0.4270  1.7438
  653TIP3   OH223449   0.800   3.112   0.162 -0.1117  0.3751  0.1377
  653TIP3    H123450   0.711   3.100   0.195 -0.1576  0.1105 -0.0831
  653TIP3    H223451   0.792   3.184   0.099 -0.7631 -1.6552 -2.1904
  654TIP3   OH223452   5.838   5.105   0.108 -0.0972  0.2269 -0.6497
  654TIP3    H123453   5.835   5.200   0.119  0.9489  0.4568 -2.1837
  654TIP3    H223454   5.760   5.084   0.056 -1.8334 -0.1205  2.0370
  655TIP3   OH223455   0.851   5.517   3.258 -0.7031  0.7166 -0.0324
  655TIP3    H123456   0.756   5.511   3.271 -0.2065 -1.2023  3.1867
  655TIP3    H223457   0.875   5.600   3.299 -0.6310 -0.1402  1.6890
  656TIP3   OH223458   4.061   2.125   0.217 -0.1794 -0.7592 -0.1402
  656TIP3    H123459   4.010   2.060   0.264 -0.1173 -1.7423 -1.4032
  656TIP3    H223460   4.094   2.184   0.285 -1.7321 -0.9838  0.8391
  657TIP3   OH223461   5.861   3.021   0.940  0.2566 -0.2393 -0.5408
  657TIP3    H123462   5.806   3.066   0.876 -0.8072 -0.5058  0.1711
  657TIP3    H223463   5.848   3.071   1.021  1.1149 -0.2639 -0.3884
  658TIP3   OH223464   4.192   0.821   3.577  0.4595  0.1364 -0.4063
  658TIP3    H123465   4.215   0.913   3.588  0.5196  0.2131 -1.1256
  658TIP3    H223466   4.262   0.785   3.523  0.1298 -0.1918 -0.6176
  659TIP3   OH223467   3.301   3.234   1.343  1.0866 -0.3170 -0.2051
  659TIP3    H123468   3.319   3.327   1.326  1.3779 -0.9460 -3.6495
  659TIP3    H223469   3.314   3.225   1.437  0.2737  3.3016  0.3605
  660TIP3   OH223470   4.106   2.413   0.623 -0.1732 -0.2069  0.4062
  660TIP3    H123471   4.096   2.507   0.611 -0.7655 -0.1757  1.1066
  660TIP3    H223472   4.027   2.386   0.670  0.5097 -0.8705  1.1873
  661TIP3   OH223473   3.487   2.006   0.858 -0.1663  0.1624  0.1474
  661TIP3    H123474   3.458   1.916   0.868  2.2614 -0.7107 -0.3516
  661TIP3    H223475   3.450   2.033   0.774 -0.4595 -0.5417  0.0455
  662TIP3   OH223476   4.949   2.453  11.488  0.0218 -0.5131 -0.6055
  662TIP3    H123477   4.945   2.516  11.560 -0.1136  0.4611 -1.4639
  662TIP3    H223478   4.997   2.379  11.524 -0.1183 -0.0663  0.5165
  663TIP3   OH223479   2.693   0.654   4.866 -0.1285 -0.1820  0.1357
  663TIP3    H123480   2.719   0.744   4.883 -1.2053  0.1744 -0.0654
  663TIP3    H223481   2.717   0.639   4.774  0.4943 -0.2654  0.3087
  664TIP3   OH223482   2.607   0.718  14.800  0.4686 -0.0250  0.1738
  664TIP3    H123483   2.570   0.699  14.714 -0.4200  1.4906  0.2069
  664TIP3    H223484   2.698   0.688  14.794 -0.0272 -1.3723 -0.7675
  665TIP3   OH223485   2.065   5.189   2.442 -0.1717 -0.2195  0.1713
  665TIP3    H123486   2.065   5.115   2.502  0.1466  0.1407  0.6184
  665TIP3    H223487   2.153   5.225   2.448 -0.3672  0.2840  0.0695
  666TIP3   OH223488   2.341   0.480  13.177 -0.2649  0.1582  0.3727
  666TIP3    H123489   2.325   0.433  13.259  0.3473  0.1537  0.4950
  666TIP3    H223490   2.254   0.491  13.138 -0.3385 -1.8842 -0.1016
  667TIP3   OH223491   5.297   0.667   2.755 -0.0811 -0.1630  0.3264
  667TIP3    H123492   5.270   0.708   2.672  0.7657 -2.2094 -1.0038
  667TIP3    H223493   5.387   0.696   2.768 -0.1679  0.0447  0.4736
  668TIP3   OH223494   4.202   5.380  15.148  0.0930  0.3671  0.3977
  668TIP3    H123495   4.228   5.291  15.122  0.3711  0.2035  1.2170
  668TIP3    H223496   4.276   5.435  15.121 -0.9266  0.6551 -1.9194
  669TIP3   OH223497   1.489   6.113  16.076 -0.6356 -0.2721  0.3463
  669TIP3    H123498   1.403   6.149  16.056 -0.9881  0.1986  2.5719
  669TIP3    H223499   1.486   6.093  16.169  1.2253 -1.4946  0.1842
  670TIP3   OH223500   2.753   1.242  16.699  0.1993  0.0780  0.3221
  670TIP3    H123501   2.775   1.334  16.713 -0.4748  0.2285  0.3815
  670TIP3    H223502   2.811   1.215  16.627  1.2057  0.2301  1.0616
  671TIP3   OH223503   2.922   5.446   0.215  0.4947 -0.0775  0.5296
  671TIP3    H123504   2.907   5.358   0.252  0.1224  0.3969  1.5189
  671TIP3    H223505   2.848   5.498   0.246  0.3028  0.3973 -0.6992
  672TIP3   OH223506   3.607   2.689  12.418 -0.2474 -0.2647 -0.1727
  672TIP3    H123507   3.606   2.601  12.381 -0.5818  0.1636 -1.1698
  672TIP3    H223508   3.636   2.675  12.509  0.8230 -1.2738 -0.6512
  673TIP3   OH223509   1.498   3.519   2.507 -0.1824 -0.2982 -0.3441
  673TIP3    H123510   1.451   3.590   2.464  1.3706  0.2817 -1.1263
  673TIP3    H223511   1.588   3.550   2.513  0.2882 -1.7557  0.2851
  674TIP3   OH223512   5.616   3.655   6.017  0.4555 -0.2225 -0.2630
  674TIP3    H123513   5.662   3.677   5.936 -0.1222  0.8009 -0.3250
  674TIP3    H223514   5.680   3.606   6.069  0.5206 -1.7463 -1.7361
  675TIP3   OH223515   1.611   6.432   0.408 -0.6755  0.2001  0.0438
  675TIP3    H123516   1.706   6.434   0.393 -0.4680  0.0787  1.3197
  675TIP3    H223517   1.573   6.451   0.322  0.5279  2.0351 -0.1216
  676TIP3   OH223518   4.541   1.432  12.733 -0.0455  0.6912 -0.6238
  676TIP3    H123519   4.574   1.451  12.645 -0.4276  1.9248 -0.5095
  676TIP3    H223520   4.448   1.455  12.729  0.1021  1.4498  0.3054
  677TIP3   OH223521   3.141   2.031   1.239  0.5075 -0.1761  0.1034
  677TIP3    H123522   3.050   2.039   1.269  0.5140 -2.8711  0.9439
  677TIP3    H223523   3.134   2.038   1.143 -0.3348  1.5645  0.2725
  678TIP3   OH223524   2.845   5.936  15.918 -0.0131 -0.2653  0.0081
  678TIP3    H123525   2.765   5.889  15.893  0.5326 -1.3254  0.2493
  678TIP3    H223526   2.816   5.996  15.987 -0.9791  0.7373 -1.2360
  679TIP3   OH223527   6.140   4.620  15.777  0.2018  0.6082 -0.2640
  679TIP3    H123528   6.144   4.572  15.860 -1.3285 -0.2088 -0.6554
  679TIP3    H223529   6.155   4.554  15.710  1.2332  1.2373 -0.6652
  680TIP3   OH223530   1.584   6.087  14.079  0.5707 -0.1366 -0.2671
  680TIP3    H123531   1.496   6.123  14.090  0.5380  0.3072 -1.9452
  680TIP3    H223532   1.637   6.161  14.049  1.3615 -0.5622  0.0815
  681TIP3   OH223533   4.924   2.238   2.560  0.5815 -0.4680  0.3224
  681TIP3    H123534   4.864   2.242   2.635  0.3211 -1.6137  0.1856
  681TIP3    H223535   4.924   2.327   2.524 -1.5610 -0.5997 -0.0666
  682TIP3   OH223536   1.773   5.614   2.882 -0.1841 -0.1449  0.1595
  682TIP3    H123537   1.822   5.532   2.876 -1.1830 -0.7007 -0.4613
  682TIP3    H223538   1.684   5.592   2.855 -0.1836  1.3956 -1.2063
  683TIP3   OH223539   1.288   0.034  15.376 -0.2258 -0.3660 -0.2512
  683TIP3    H123540   1.265   0.100  15.442 -1.1903 -0.1022 -0.8335
  683TIP3    H223541   1.383   0.030  15.379 -0.1800  0.6691  0.1826
  684TIP3   OH223542   0.591   0.425  12.260 -0.0903 -0.2187  0.2292
  684TIP3    H123543   0.670   0.399  12.307  0.6032  0.0837 -0.7445
  684TIP3    H223544   0.531   0.351  12.269  1.7808 -2.1228 -2.3524
  685TIP3   OH223545   1.446   4.898  15.161 -0.4657 -0.1135 -0.4127
  685TIP3    H123546   1.449   4.810  15.198 -1.1797 -0.1200 -0.3529
  685TIP3    H223547   1.471   4.956  15.232 -1.2674 -0.1723 -0.0716
  686TIP3   OH223548   4.007   0.188   3.544 -0.0962 -0.0130 -0.1689
  686TIP3    H123549   4.016   0.204   3.450 -0.0066 -0.6283 -0.2628
  686TIP3    H223550   4.070   0.248   3.584  0.1692 -0.0537 -0.5205
  687TIP3   OH223551   0.495   6.177  16.871 -0.0035 -0.1013  0.0497
  687TIP3    H123552   0.431   6.246  16.852  0.1032  0.0337  0.1790
  687TIP3    H223553   0.553   6.178  16.796 -1.0317 -1.2392 -0.7674
  688TIP3   OH223554   1.753   4.926   0.689  0.4782  0.0114 -0.2760
  688TIP3    H123555   1.687   4.975   0.640  0.2542 -0.6149 -0.6051
  688TIP3    H223556   1.759   4.971   0.773  1.3589  1.5011 -1.1270
  689TIP3   OH223557   4.450   0.878  13.646  0.1267 -0.2028  0.3393
  689TIP3    H123558   4.531   0.828  13.640  0.0156 -0.7026  2.5975
  689TIP3    H223559   4.475   0.967  13.623  1.0105 -0.6349 -0.4076
  690TIP3   OH223560   1.054   2.447   5.623  0.4169  0.4446 -0.7220
  690TIP3    H123561   1.086   2.449   5.533  0.8777  0.1375 -0.5694
  690TIP3    H223562   1.001   2.526   5.632  0.0341  0.2748 -1.3827
  691TIP3   OH223563   3.124   6.680   4.417 -0.0545 -0.0035  0.2448
  691TIP3    H123564   3.058   6.611   4.414 -0.3490  0.1583  2.2583
  691TIP3    H223565   3.207   6.634   4.411 -0.3291 -0.1731 -2.7216
  692TIP3   OH223566   2.168   1.521   1.244  0.1813 -0.1289  0.0419
  692TIP3    H123567   2.255   1.518   1.283 -0.2371 -1.8438  0.8841
  692TIP3    H223568   2.178   1.480   1.159  0.3803  0.5316 -0.2590
  693TIP3   OH223569   1.084   2.086  15.567  0.0836 -0.6998 -0.1212
  693TIP3    H123570   1.123   2.066  15.652  1.0960 -2.8593 -1.0446
  693TIP3    H223571   1.158   2.086  15.506 -0.7262  0.1185 -1.1171
  694TIP3   OH223572   3.303   1.105  14.999  0.0494 -0.5767  0.2265
  694TIP3    H123573   3.302   1.072  14.909  1.1555 -1.4962  0.5458
  694TIP3    H223574   3.218   1.079  15.035  0.0787 -1.2399 -0.1739
  695TIP3   OH223575   2.161   6.703  10.870 -0.3178  0.1079 -0.2926
  695TIP3    H123576   2.071   6.690  10.838  1.1178 -2.4923 -3.5280
  695TIP3    H223577   2.212   6.635  10.826  3.5175  2.4266  0.3642
  696TIP3   OH223578   3.275   2.341  11.572  0.2138  0.3834  0.2029
  696TIP3    H123579   3.263   2.434  11.593 -0.1284  0.3359  0.2134
  696TIP3    H223580   3.252   2.334  11.479 -0.0192  0.2593  0.2700
  697TIP3   OH223581   3.923   1.714  13.368 -0.2817 -0.0944 -0.0574
  697TIP3    H123582   3.991   1.780  13.355 -0.3887  0.0199 -0.0384
  697TIP3    H223583   3.964   1.632  13.342 -0.0979 -0.0424  0.0671
  698TIP3   OH223584   1.075   3.726  11.121  1.0249  0.7488 -0.0611
  698TIP3    H123585   1.001   3.667  11.135 -0.2695  2.7084  1.6805
  698TIP3    H223586   1.045   3.787  11.053  1.9877  0.0493 -1.1442
  699TIP3   OH223587   5.050   4.207   3.539  0.0500 -0.8447 -0.3738
  699TIP3    H123588   5.037   4.267   3.612  0.5272 -0.1986 -0.8143
  699TIP3    H223589   5.010   4.125   3.568 -1.6878  0.0292 -0.2417
  700TIP3   OH223590   2.025   0.694  11.791  0.4898  0.1112 -0.5750
  700TIP3    H123591   2.061   0.778  11.819  0.2849 -0.3716  1.2397
  700TIP3    H223592   2.034   0.694  11.696  0.3830  2.2266 -0.6102
  701TIP3   OH223593   5.985   2.911   2.603 -0.2635 -0.2181 -0.1985
  701TIP3    H123594   5.906   2.961   2.624  0.8931  1.6839 -0.2098
  701TIP3    H223595   6.003   2.932   2.512  0.4890 -0.2711 -0.0651
  702TIP3   OH223596   2.711   1.810   2.518  0.1668 -0.0917 -0.2287
  702TIP3    H123597   2.763   1.864   2.459  0.2221 -1.3452 -1.3662
  702TIP3    H223598   2.640   1.777   2.463  1.1462 -2.6126 -0.0299
  703TIP3   OH223599   3.102   6.166  11.875 -0.4143  0.1816 -0.0190
  703TIP3    H123600   3.038   6.232  11.903  0.2540  1.0320 -0.4631
  703TIP3    H223601   3.092   6.162  11.780  1.1298  1.3214 -0.2434
  704TIP3   OH223602   5.147   5.152   2.668 -0.2097 -0.2709  0.1583
  704TIP3    H123603   5.069   5.108   2.702  0.0958 -0.5359  0.5096
  704TIP3    H223604   5.112   5.216   2.606 -0.7332 -0.1538  0.5657
  705TIP3   OH223605   5.029   1.588  12.439  0.2007  0.2189 -0.2631
  705TIP3    H123606   4.982   1.669  12.460 -1.0229 -0.5263 -0.0688
  705TIP3    H223607   5.121   1.608  12.455 -0.0779  1.6187 -0.3791
  706TIP3   OH223608   5.056   3.372  15.529 -0.4273  0.5789 -0.3088
  706TIP3    H123609   5.033   3.443  15.470 -1.4016  0.6149  0.1017
  706TIP3    H223610   5.075   3.414  15.613  0.2910  0.4678 -0.4094
  707TIP3   OH223611   6.105   1.590   4.874  0.1545  0.1148 -0.3715
  707TIP3    H123612   6.118   1.630   4.787 -0.0552 -0.1435 -0.5196
  707TIP3    H223613   6.176   1.526   4.881  0.0076 -0.0608 -0.4676
  708TIP3   OH223614   0.389   4.850   5.533 -0.3541  0.0550  0.0355
  708TIP3    H123615   0.310   4.798   5.517 -1.2569  1.9507 -1.9826
  708TIP3    H223616   0.461   4.792   5.507 -1.2430 -0.7028 -0.7914
  709TIP3   OH223617   5.261   2.894  13.195  0.2671 -0.0775  0.3300
  709TIP3    H123618   5.275   2.821  13.135  2.3260  1.8684 -1.7056
  709TIP3    H223619   5.330   2.885  13.261 -0.7056 -1.0561  1.2221
  710TIP3   OH223620   1.360   6.672  17.085 -0.0742  0.2151  0.3047
  710TIP3    H123621   1.449   6.692  17.054 -0.0065 -1.8125 -0.9059
  710TIP3    H223622   1.307   6.672  17.006 -1.5994  3.3193  1.2296
  711TIP3   OH223623   0.995   0.636   3.545 -0.4128 -0.1541 -0.5653
  711TIP3    H123624   1.027   0.555   3.506  1.5999  1.0321 -1.4529
  711TIP3    H223625   0.982   0.695   3.470 -1.2222  0.5644  0.1260
  712TIP3   OH223626   3.684   1.158  16.626  0.1677 -0.4600 -0.0741
  712TIP3    H123627   3.706   1.137  16.717 -0.1410 -0.0648  0.0922
  712TIP3    H223628   3.606   1.213  16.633  0.5376  0.1174 -0.5541
  713TIP3   OH223629   3.204   4.001   6.384 -0.3462  0.2843 -0.0211
  713TIP3    H123630   3.299   3.989   6.379 -0.3059  1.0153 -1.5099
  713TIP3    H223631   3.190   4.053   6.463  0.4391 -0.2401  0.4724
  714TIP3   OH223632   1.529   5.627  11.818 -0.5198 -0.0307  0.3986
  714TIP3    H123633   1.588   5.614  11.744  0.5528 -0.3981  1.3002
  714TIP3    H223634   1.494   5.715  11.805 -0.4411 -0.1403 -0.6099
  715TIP3   OH223635   6.351   0.989  12.929 -0.5827  0.0649  0.2276
  715TIP3    H123636   6.355   0.936  12.849 -1.4627  0.7619 -0.2882
  715TIP3    H223637   6.424   0.958  12.982 -0.1288 -0.5608 -0.7503
  716TIP3   OH223638   0.235   4.163  11.683 -0.1181  0.0505  0.3391
  716TIP3    H123639   0.283   4.243  11.705 -0.7266  0.4700  0.1444
  716TIP3    H223640   0.160   4.193  11.631  0.4275 -0.7827 -0.9333
  717TIP3   OH223641   5.669   5.894   2.379  0.1572 -0.4215 -0.7772
  717TIP3    H123642   5.735   5.944   2.427  1.2735 -0.4688 -2.2454
  717TIP3    H223643   5.594   5.952   2.373  0.1673 -0.2358  0.5910
  718TIP3   OH223644   2.944   4.051  15.723  0.1561 -0.3069  0.0886
  718TIP3    H123645   2.856   4.025  15.694 -0.0705  0.6525 -0.1133
  718TIP3    H223646   2.930   4.088  15.811  0.3288 -0.0194 -0.0021
  719TIP3   OH223647   4.743   0.936  12.189  0.9403  0.1631  0.0402
  719TIP3    H123648   4.752   1.032  12.192  1.2978  0.1105  0.7755
  719TIP3    H223649   4.704   0.913  12.274 -0.0233 -0.2542 -0.5074
  720TIP3   OH223650   2.178   5.967   6.543 -0.3048  0.1671  0.3974
  720TIP3    H123651   2.272   5.960   6.554 -0.3542  0.2519  0.8573
  720TIP3    H223652   2.148   5.877   6.527 -0.3049 -0.0151  1.4382
  721TIP3   OH223653   0.565   6.602   0.720  0.0927 -0.2795 -0.6837
  721TIP3    H123654   0.514   6.596   0.801  0.5271 -0.5514 -0.4285
  721TIP3    H223655   0.656   6.598   0.749  0.2993  1.4225 -1.0231
  722TIP3   OH223656   4.544   1.298   5.536  0.3521 -0.6018  0.0305
  722TIP3    H123657   4.637   1.298   5.511  0.3970  0.6864  0.1838
  722TIP3    H223658   4.545   1.313   5.631 -0.0358  0.0141 -0.0634
  723TIP3   OH223659   3.577   5.268  16.857  0.6470  0.1841 -0.6960
  723TIP3    H123660   3.628   5.290  16.935  0.4805  0.3179 -0.6242
  723TIP3    H223661   3.550   5.352  16.820 -1.6014  0.0602  0.6331
  724TIP3   OH223662   3.636   1.344   4.811 -0.5703  0.1339 -0.2009
  724TIP3    H123663   3.732   1.342   4.815 -0.6135 -1.2340  0.2569
  724TIP3    H223664   3.614   1.284   4.739 -0.9862  2.5485 -2.1629
  725TIP3   OH223665   3.658   5.228   4.838  0.2230  0.0984  0.0334
  725TIP3    H123666   3.705   5.291   4.893  1.7404 -0.0296 -1.1014
  725TIP3    H223667   3.703   5.145   4.852  0.1196 -0.1034 -0.7927
  726TIP3   OH223668   0.230   3.699   2.904  0.8626  0.2163 -0.5058
  726TIP3    H123669   0.305   3.750   2.935  0.1030  1.9595 -1.4558
  726TIP3    H223670   0.256   3.608   2.917  2.6080  0.8179  0.4123
  727TIP3   OH223671   3.082   0.755  13.342  0.2111  0.2674 -0.1351
  727TIP3    H123672   3.136   0.708  13.279  0.4597 -1.3837  1.2716
  727TIP3    H223673   3.003   0.702  13.350  0.2159  0.4135  0.9930
  728TIP3   OH223674   6.482   3.112   3.019 -0.1437 -0.3080  0.0291
  728TIP3    H123675   6.477   3.040   3.081  3.1365 -0.9647 -0.3749
  728TIP3    H223676   6.564   3.157   3.040  1.0713 -0.5552 -3.7617
  729TIP3   OH223677   6.071   3.802   0.904 -0.4360 -0.0506  0.4140
  729TIP3    H123678   6.092   3.710   0.886 -0.3770 -0.0330  0.3902
  729TIP3    H223679   6.149   3.850   0.874 -0.2027 -0.0493  1.0206
  730TIP3   OH223680   1.101   1.434  14.769  0.2151  0.3404 -0.4965
  730TIP3    H123681   1.127   1.503  14.830 -2.2476  2.1295 -1.3652
  730TIP3    H223682   1.102   1.477  14.683  0.4256 -1.2223 -1.2840
  731TIP3   OH223683   6.750   2.363   1.723  0.2474  0.2381 -0.2032
  731TIP3    H123684   6.695   2.380   1.799  0.7810 -3.8910  1.2430
  731TIP3    H223685   6.688   2.350   1.651 -0.3928  1.2239  0.1680
  732TIP3   OH223686   4.082   5.607   3.619  0.3134  0.2282 -0.0610
  732TIP3    H123687   4.051   5.663   3.547  0.0971 -0.0298 -0.1666
  732TIP3    H223688   4.178   5.616   3.616  0.3900 -0.8664 -1.2600
  733TIP3   OH223689   5.521   3.939   5.761 -0.0840  0.2758  0.0076
  733TIP3    H123690   5.588   3.877   5.792  0.4763  0.0233 -1.6678
  733TIP3    H223691   5.440   3.908   5.800  0.0969 -1.8501 -1.2340
  734TIP3   OH223692   1.444   6.238  15.072 -0.0303 -0.3148  0.4001
  734TIP3    H123693   1.368   6.200  15.029 -0.1024  0.0902  0.1679
  734TIP3    H223694   1.409   6.311  15.122 -0.2900 -2.1249  2.9529
  735TIP3   OH223695   1.936   0.857  10.633 -0.5509 -0.2863 -0.6011
  735TIP3    H123696   1.850   0.898  10.645 -0.7508 -0.5569 -1.0785
  735TIP3    H223697   1.935   0.826  10.542  2.0012  4.1318 -2.2770
  736TIP3   OH223698   6.695   3.398  15.913 -0.0514 -0.0145  0.5443
  736TIP3    H123699   6.643   3.325  15.947  0.6204 -0.4351  0.6640
  736TIP3    H223700   6.780   3.360  15.891 -0.1238  0.4657 -0.6137
  737TIP3   OH223701   0.773   1.926  14.445 -0.5626  0.0982  0.2192
  737TIP3    H123702   0.761   2.020  14.460 -1.5137  0.3302 -1.8124
  737TIP3    H223703   0.698   1.901  14.391 -0.2911 -1.8373  0.7060
  738TIP3   OH223704   2.059   3.564  16.028  0.5424 -0.2916  1.0834
  738TIP3    H123705   2.028   3.600  16.111 -0.3554 -1.0270  1.0880
  738TIP3    H223706   1.988   3.505  16.001 -0.0874  1.4499 -1.2112
  739TIP3   OH223707   3.339   6.009  14.459 -0.4701  0.6327  0.0961
  739TIP3    H123708   3.337   6.015  14.363 -0.5868 -0.0710  0.0524
  739TIP3    H223709   3.288   6.084  14.488 -0.5145  0.8007 -0.4001
  740TIP3   OH223710   1.334   0.709  16.423  0.0945  0.7565  0.0703
  740TIP3    H123711   1.388   0.643  16.380 -0.2616 -0.3979  1.3802
  740TIP3    H223712   1.392   0.784  16.435  1.0170  0.0207  0.2286
  741TIP3   OH223713   6.614   1.418   5.655  0.0235 -0.5177  0.0210
  741TIP3    H123714   6.520   1.407   5.639  0.1913  1.2701 -2.5285
  741TIP3    H223715   6.656   1.378   5.579  1.1140  2.8305 -1.2573
  742TIP3   OH223716   6.564   2.193   5.337 -0.0373 -0.3316 -0.0726
  742TIP3    H123717   6.637   2.184   5.398  0.5829 -0.3771 -0.8268
  742TIP3    H223718   6.603   2.189   5.250 -0.8829  0.0888 -0.4828
  743TIP3   OH223719   5.586   6.025  10.410 -0.8397  0.6098  0.3862
  743TIP3    H123720   5.676   6.046  10.385 -0.5767 -0.1177  0.6933
  743TIP3    H223721   5.533   6.089  10.363 -0.0675  2.0560  1.4150
  744TIP3   OH223722   2.836   6.632   0.703 -0.0921  0.2705  0.0872
  744TIP3    H123723   2.742   6.628   0.721 -0.0726 -0.7381  0.0141
  744TIP3    H223724   2.842   6.628   0.607 -0.0184  1.4092  0.0406
  745TIP3   OH223725   5.829   4.815  10.886 -0.0917 -0.1030 -0.1212
  745TIP3    H123726   5.740   4.782  10.874  0.4825 -1.8054  0.1836
  745TIP3    H223727   5.849   4.801  10.978  0.2665  0.8853 -0.0329
  746TIP3   OH223728   6.642   2.897   5.049  0.7582  0.6337 -0.0544
  746TIP3    H123729   6.638   2.862   4.960  0.8624  0.3080  0.0695
  746TIP3    H223730   6.726   2.866   5.083 -0.0476 -0.6845  0.7682
  747TIP3   OH223731   5.396   4.527  12.430  0.2276 -0.3154  0.7648
  747TIP3    H123732   5.366   4.537  12.520  0.2190 -1.3531  0.8804
  747TIP3    H223733   5.317   4.508  12.380  0.1554  0.7735  0.4432
  748TIP3   OH223734   4.960   5.716  15.559 -0.3025  0.3242  0.1158
  748TIP3    H123735   5.000   5.726  15.645 -1.5521 -0.3389  0.7891
  748TIP3    H223736   4.894   5.648  15.571  0.4424 -0.7687 -1.6923
  749TIP3   OH223737   6.804   0.659  15.660 -0.0386  0.1173 -0.3804
  749TIP3    H123738   6.829   0.595  15.594 -0.6114  0.4150 -0.8893
  749TIP3    H223739   6.843   0.627  15.741  0.2032 -0.5398 -0.7590
  750TIP3   OH223740   5.348   2.139  15.327  0.2322 -0.0284  0.7844
  750TIP3    H123741   5.313   2.156  15.415  0.2829  0.2874  0.7442
  750TIP3    H223742   5.417   2.204  15.316 -0.3480  0.4807  0.1735
  751TIP3   OH223743   2.800   1.433   1.435 -0.2781  0.7760 -0.3922
  751TIP3    H123744   2.793   1.362   1.499  0.6980  0.7927 -0.2714
  751TIP3    H223745   2.745   1.503   1.471 -2.8278 -0.5988 -1.4569
  752TIP3   OH223746   3.037   5.704   1.305 -0.0415  0.4519  0.3619
  752TIP3    H123747   3.056   5.623   1.351  0.7379 -0.2883 -1.2270
  752TIP3    H223748   3.080   5.695   1.220 -2.5475  1.1872 -1.0731
  753TIP3   OH223749   5.838   3.241   1.134 -0.0343 -0.1436  0.6910
  753TIP3    H123750   5.791   3.313   1.093  2.1638  1.8585  1.5801
  753TIP3    H223751   5.825   3.254   1.228 -1.2459 -2.0523  0.8056
  754TIP3   OH223752   6.417   6.207   5.978 -0.0618  0.0991 -0.5326
  754TIP3    H123753   6.365   6.209   6.058 -1.5821  1.7525 -1.5309
  754TIP3    H223754   6.507   6.221   6.008 -0.5081 -0.1028  0.9653
  755TIP3   OH223755   5.028   6.264   5.154 -0.3390 -0.2664  0.0017
  755TIP3    H123756   4.940   6.287   5.185  0.5957  0.7458  1.9625
  755TIP3    H223757   5.087   6.308   5.214  1.5277 -2.8109  0.1076
  756TIP3   OH223758   3.059   3.726  15.867 -0.4348 -0.2250 -0.3052
  756TIP3    H123759   3.125   3.785  15.830 -0.1363 -0.7583 -0.6360
  756TIP3    H223760   3.060   3.650  15.809 -0.4175 -0.7994  0.4412
  757TIP3   OH223761   3.344   3.732   1.149 -0.3264  0.4770  0.4446
  757TIP3    H123762   3.265   3.776   1.119 -0.5476  0.1964  0.6113
  757TIP3    H223763   3.415   3.775   1.102 -0.7674 -0.7992 -1.4824
  758TIP3   OH223764   0.491   5.621  16.290 -0.1477 -0.1502 -0.1855
  758TIP3    H123765   0.538   5.627  16.373 -1.6203 -1.7756  0.8000
  758TIP3    H223766   0.478   5.527  16.276 -0.4749  0.1455 -1.9222
  759TIP3   OH223767   3.860   1.370   5.236 -0.3235 -0.2925  0.0658
  759TIP3    H123768   3.877   1.309   5.307 -1.9062  1.0701  1.6455
  759TIP3    H223769   3.773   1.347   5.204 -0.0913 -0.1641 -0.6850
  760TIP3   OH223770   6.310   2.916   2.794 -0.1851  0.1936 -0.1395
  760TIP3    H123771   6.404   2.915   2.778 -0.1234  3.2883 -0.1983
  760TIP3    H223772   6.271   2.925   2.707 -0.4799  0.5502  0.0301
  761TIP3   OH223773   2.226   2.314   1.367 -0.2487  0.4318 -0.1670
  761TIP3    H123774   2.315   2.292   1.397 -1.0139  1.0526  2.8027
  761TIP3    H223775   2.232   2.407   1.343  0.0825  0.2597 -0.7699
  762TIP3   OH223776   0.341   0.391  12.977  0.0745  0.4813 -0.5961
  762TIP3    H123777   0.417   0.421  13.027  0.3884 -2.6237  0.9404
  762TIP3    H223778   0.378   0.331  12.912 -1.0722 -1.4791  0.5154
  763TIP3   OH223779   0.756   1.674   0.996  0.3137  0.3143  0.2738
  763TIP3    H123780   0.709   1.590   0.999  2.9291 -1.3004 -2.0431
  763TIP3    H223781   0.694   1.734   0.954 -1.4207 -0.5013  1.5723
  764TIP3   OH223782   1.045   2.870  14.196 -0.3915 -0.4173 -0.1828
  764TIP3    H123783   1.031   2.792  14.144 -2.3273  0.0406 -0.3591
  764TIP3    H223784   1.013   2.847  14.284  1.2666 -0.6146  0.3928
  765TIP3   OH223785   3.714   3.175   3.952 -0.6467  0.0778  0.1104
  765TIP3    H123786   3.676   3.257   3.921 -1.1675  0.0540  0.6658
  765TIP3    H223787   3.675   3.163   4.039 -0.3309 -0.5933  0.1582
  766TIP3   OH223788   4.233   4.062   3.358 -0.3084  0.4798 -0.4623
  766TIP3    H123789   4.322   4.048   3.326 -0.6848 -2.9468 -0.2007
  766TIP3    H223790   4.181   4.080   3.279 -0.0328 -1.1782 -1.0229
  767TIP3   OH223791   6.035   3.484   0.548  0.4158 -0.1499 -0.1528
  767TIP3    H123792   6.080   3.413   0.503  0.0575  0.7552 -1.9925
  767TIP3    H223793   6.011   3.545   0.478 -3.1385 -0.3260  0.8441
  768TIP3   OH223794   2.629   1.387  16.939  0.2003 -0.0931  0.2277
  768TIP3    H123795   2.698   1.323  16.923 -1.3322 -1.9455  0.7488
  768TIP3    H223796   2.573   1.383  16.861 -0.4612 -0.1495  0.6956
  769TIP3   OH223797   6.482   6.291   2.255 -0.2905  0.7861 -0.2473
  769TIP3    H123798   6.452   6.326   2.171  3.4491  1.4805 -1.4085
  769TIP3    H223799   6.531   6.212   2.231  0.7962  0.9785  1.2934
  770TIP3   OH223800   6.234   5.780  15.598  0.0821 -0.0006 -0.0552
  770TIP3    H123801   6.224   5.732  15.680  2.1882 -0.4549 -0.0384
  770TIP3    H223802   6.153   5.761  15.549  0.8520 -3.6735 -0.0748
  771TIP3   OH223803   2.229   1.049   2.083 -0.1231  0.3379  0.0486
  771TIP3    H123804   2.184   1.133   2.091  0.3215  0.4285  2.0790
  771TIP3    H223805   2.201   1.000   2.161 -0.4825 -1.4539 -1.1845
  772TIP3   OH223806   1.765   4.671   1.258  0.7320  0.5643 -0.0132
  772TIP3    H123807   1.713   4.622   1.322  1.3981  2.2504  1.8918
  772TIP3    H223808   1.723   4.654   1.174 -1.8860  0.5411  1.2597
  773TIP3   OH223809   0.705   4.363   3.407  0.0051 -0.1860 -0.2533
  773TIP3    H123810   0.771   4.356   3.338 -0.6232 -0.2973 -0.8388
  773TIP3    H223811   0.706   4.278   3.450  1.4157  0.3401  0.8120
  774TIP3   OH223812   6.723   1.703  16.822 -0.1134  0.1582 -0.6084
  774TIP3    H123813   6.766   1.641  16.880 -0.4793  0.3760 -0.1012
  774TIP3    H223814   6.680   1.649  16.756 -0.6305 -0.1323 -0.0259
  775TIP3   OH223815   4.026   1.582   2.504 -0.1822  0.2025  0.2339
  775TIP3    H123816   4.108   1.633   2.503 -0.6382  0.9380 -0.9362
  775TIP3    H223817   4.048   1.502   2.551  1.1617  0.4883  0.1123
  776TIP3   OH223818   6.384   5.907   6.090 -0.2289  0.5178 -0.4899
  776TIP3    H123819   6.366   5.857   6.170  0.2874 -0.2977 -0.8757
  776TIP3    H223820   6.368   5.998   6.114 -1.7479  0.1136  0.0623
  777TIP3   OH223821   2.397   0.608  10.884 -0.3468  0.1515 -0.0609
  777TIP3    H123822   2.371   0.607  10.976 -1.5305  1.0373 -0.3695
  777TIP3    H223823   2.488   0.578  10.884 -0.9246 -1.6611  1.1963
  778TIP3   OH223824   5.975   4.642   2.541 -0.4288 -0.1064 -0.1531
  778TIP3    H123825   6.064   4.626   2.510 -0.6454  0.7735 -1.2521
  778TIP3    H223826   5.966   4.585   2.617  1.6805  1.1129  1.0608
  779TIP3   OH223827   5.934   2.248  13.796  0.0613  0.6657  0.0920
  779TIP3    H123828   5.932   2.234  13.891 -1.7580 -1.6944 -0.2630
  779TIP3    H223829   6.024   2.278  13.779  0.5086  0.8370  2.4961
  780TIP3   OH223830   3.449   2.224  17.207 -0.1814 -0.3735 -0.2898
  780TIP3    H123831   3.453   2.145  17.152  2.4888 -0.2068 -0.4161
  780TIP3    H223832   3.486   2.293  17.153 -1.2530  0.6952  0.3121
  781TIP3   OH223833   5.389   1.262   5.253  0.0818 -0.0958 -0.5583
  781TIP3    H123834   5.455   1.258   5.184  1.4002 -0.4588  0.6946
  781TIP3    H223835   5.440   1.270   5.334 -1.4475  0.6916  0.3385
  782TIP3   OH223836   5.823   1.314  13.737 -0.5188 -0.1775 -0.6162
  782TIP3    H123837   5.813   1.263  13.657 -0.5544  2.2853 -2.2426
  782TIP3    H223838   5.892   1.269  13.785  1.7477  0.0094 -3.5131
  783TIP3   OH223839   1.794   1.390   4.003  0.5618  0.0520  0.3624
  783TIP3    H123840   1.783   1.339   4.084 -0.5321 -1.0117 -0.4497
  783TIP3    H223841   1.864   1.345   3.956  0.4769  0.0622  0.2279
  784TIP3   OH223842   1.479   0.788  11.168 -0.2577 -0.1615 -0.1269
  784TIP3    H123843   1.499   0.747  11.083  0.5726  0.2984 -0.1585
  784TIP3    H223844   1.408   0.849  11.149  0.2929  0.3356 -0.6057
  785TIP3   OH223845   5.882   2.361   4.836 -0.3712  0.2209 -0.2001
  785TIP3    H123846   5.940   2.432   4.808 -1.1640 -0.1220 -2.8277
  785TIP3    H223847   5.798   2.404   4.854  0.0264  0.3829  1.3139
  786TIP3   OH223848   3.482   3.195  14.588  0.1571 -0.2318  0.4149
  786TIP3    H123849   3.521   3.274  14.625 -2.1696  1.2450 -0.1251
  786TIP3    H223850   3.518   3.190  14.499  1.5240 -0.6734  0.9915
  787TIP3   OH223851   5.773   0.605  15.169  0.3058 -0.1366  0.5843
  787TIP3    H123852   5.820   0.672  15.120 -1.3048  1.8878  1.7509
  787TIP3    H223853   5.831   0.583  15.242  1.0957 -0.4731 -0.1319
  788TIP3   OH223854   2.437   2.185  14.238  0.5086  0.2728  0.4775
  788TIP3    H123855   2.480   2.258  14.283  3.0794 -1.5341  1.0775
  788TIP3    H223856   2.500   2.113  14.244 -1.3748 -1.5925 -1.3269
  789TIP3   OH223857   5.603   2.656   1.015  0.0056 -0.3327  0.1774
  789TIP3    H123858   5.657   2.641   0.937  2.2270  1.5057  1.3005
  789TIP3    H223859   5.584   2.750   1.013 -0.7979 -0.4665  1.3009
  790TIP3   OH223860   2.750   2.147   4.176 -0.2961  0.9827 -0.5307
  790TIP3    H123861   2.745   2.240   4.156  1.2063  0.8779 -1.5193
  790TIP3    H223862   2.667   2.111   4.147 -1.1480  2.1057  0.4518
  791TIP3   OH223863   4.076   5.763   5.591  0.2927 -0.2019 -0.4256
  791TIP3    H123864   4.100   5.738   5.680  0.2134 -1.4514 -0.7503
  791TIP3    H223865   4.158   5.791   5.551  0.7578 -1.8767 -0.6847
  792TIP3   OH223866   3.040   5.329  14.081 -0.2566  0.5877 -0.3538
  792TIP3    H123867   3.114   5.319  14.021  1.0300  0.8005  1.1594
  792TIP3    H223868   2.972   5.372  14.029 -0.1128 -1.5760 -2.3910
  793TIP3   OH223869   3.322   4.822  16.476  0.7235  0.0195  0.9427
  793TIP3    H123870   3.228   4.837  16.466  0.6546 -0.6565  0.4959
  793TIP3    H223871   3.357   4.904  16.510 -0.1301  0.0574  1.7344
  794TIP3   OH223872   4.094   3.409   4.947  0.2013  0.0954  0.9176
  794TIP3    H123873   4.185   3.383   4.941  0.4951  1.4327 -0.8623
  794TIP3    H223874   4.065   3.418   4.856 -1.8267 -0.7210  1.4495
  795TIP3   OH223875   1.911   3.262   3.575  0.6720  0.2238  0.6414
  795TIP3    H123876   1.955   3.177   3.578  0.9086  0.2156 -1.8676
  795TIP3    H223877   1.818   3.241   3.578  0.7451  0.0018  1.7326
  796TIP3   OH223878   6.179   3.270   2.590  0.1881 -0.8262 -0.2200
  796TIP3    H123879   6.231   3.326   2.648  0.1407  1.2519 -2.1154
  796TIP3    H223880   6.093   3.267   2.630  0.5187 -0.5025  0.5218
  797TIP3   OH223881   3.843   4.408   2.158 -0.0665  0.1621  0.3047
  797TIP3    H123882   3.893   4.339   2.201 -0.9057 -0.6900 -0.0631
  797TIP3    H223883   3.840   4.381   2.066  0.3719  1.1504  0.0035
  798TIP3   OH223884   6.450   4.797  12.110 -0.8295 -0.3245  0.5535
  798TIP3    H123885   6.428   4.757  12.195 -1.8599 -0.6735  0.1269
  798TIP3    H223886   6.406   4.742  12.046 -0.1934  0.0503 -0.2011
  799TIP3   OH223887   0.386   5.785   4.450  0.0426 -0.2266  1.1731
  799TIP3    H123888   0.468   5.807   4.495 -0.0963  1.3852  0.6740
  799TIP3    H223889   0.412   5.719   4.385  1.0788  0.7498  0.5784
  800TIP3   OH223890   6.322   5.185   6.534  0.1740  0.0358 -0.2770
  800TIP3    H123891   6.322   5.231   6.450  2.0120  0.4932 -0.0571
  800TIP3    H223892   6.235   5.146   6.540 -0.0562  0.1794 -2.2891
  801TIP3   OH223893   4.461   5.462   0.027  0.5635  0.4031 -0.3346
  801TIP3    H123894   4.431   5.457  -0.063  0.0611  1.8216 -0.2479
  801TIP3    H223895   4.430   5.380   0.067 -0.8108  0.6160 -0.9542
  802TIP3   OH223896   3.929   3.517   4.016 -0.2257 -0.1658  0.9152
  802TIP3    H123897   3.887   3.547   3.936 -0.0039 -1.3778  0.3342
  802TIP3    H223898   4.010   3.475   3.987  0.4424  0.4358  1.8658
  803TIP3   OH223899   2.390   6.362  12.839  0.3509 -0.1605 -0.1814
  803TIP3    H123900   2.313   6.309  12.860  0.1275 -0.5752 -1.9541
  803TIP3    H223901   2.403   6.417  12.916 -0.6067 -1.3967  0.8819
  804TIP3   OH223902   5.675   5.747   3.489  0.0963  0.1876  0.8559
  804TIP3    H123903   5.759   5.725   3.531 -0.2709  0.2319  1.6205
  804TIP3    H223904   5.611   5.690   3.530 -0.3376  0.5093  0.6377
  805TIP3   OH223905   5.775   6.056   5.786  0.0374 -0.0033  0.0558
  805TIP3    H123906   5.806   6.083   5.699 -1.7528  4.1292  0.5834
  805TIP3    H223907   5.685   6.088   5.790  0.2777  0.4249  3.6686
  806TIP3   OH223908   5.428   2.192  14.113 -1.2844 -0.2841  0.2369
  806TIP3    H123909   5.520   2.195  14.137 -0.5918 -1.9543 -2.0019
  806TIP3    H223910   5.424   2.229  14.025 -2.7162 -0.3576  0.2535
  807TIP3   OH223911   4.724   0.450  15.954 -0.9794  0.1427 -0.1885
  807TIP3    H123912   4.745   0.538  15.925 -2.6527  1.1071  1.4267
  807TIP3    H223913   4.795   0.428  16.015 -0.1367  0.0441 -1.1916
  808TIP3   OH223914   5.676   4.987  11.259  0.4133 -0.4360  0.6113
  808TIP3    H123915   5.671   4.903  11.303  0.2172  0.4764  2.3914
  808TIP3    H223916   5.638   5.049  11.322  0.9769  1.0384 -0.4735
  809TIP3   OH223917   6.394   1.932   1.042  0.2399 -0.5999  0.0200
  809TIP3    H123918   6.326   1.998   1.053  0.0894 -0.9299  1.0913
  809TIP3    H223919   6.398   1.887   1.126  1.7223 -0.6369 -0.0530
  810TIP3   OH223920   1.661   6.184   1.902  0.1342 -0.6886 -0.2106
  810TIP3    H123921   1.703   6.115   1.953 -0.4814 -0.5143  0.5266
  810TIP3    H223922   1.594   6.220   1.959 -0.0465  0.0283 -0.8583
  811TIP3   OH223923   1.538   3.735  13.846 -0.3748  0.3433  0.0823
  811TIP3    H123924   1.470   3.727  13.913 -0.3973  2.5046  0.3408
  811TIP3    H223925   1.550   3.829  13.835  2.0567 -0.0182 -0.5126
  812TIP3   OH223926   5.322   0.172   4.290 -0.1103  0.5342 -0.3777
  812TIP3    H123927   5.373   0.099   4.324  0.3483  0.6034 -0.9083
  812TIP3    H223928   5.307   0.228   4.366 -2.4765 -1.2649  0.5353
  813TIP3   OH223929   4.313   0.361  14.471  0.0341 -0.1003 -0.2382
  813TIP3    H123930   4.289   0.399  14.555  1.3597  0.1512  0.0357
  813TIP3    H223931   4.307   0.435  14.409  2.2479  0.4980  0.2271
  814TIP3   OH223932   1.985   3.461  11.954 -0.3943  0.4596 -0.4913
  814TIP3    H123933   2.030   3.541  11.982 -1.5673  1.2606 -0.8359
  814TIP3    H223934   1.935   3.434  12.030 -0.1230  0.1451 -0.4253
  815TIP3   OH223935   3.554   6.006   3.735  0.3109 -0.2259  0.5503
  815TIP3    H123936   3.568   6.100   3.718 -2.8126  0.8883  3.5783
  815TIP3    H223937   3.571   5.996   3.829 -0.3640 -2.5098  0.4563
  816TIP3   OH223938   0.951   1.541   3.683  0.0864  0.2087  0.4140
  816TIP3    H123939   0.979   1.450   3.700 -0.1621  0.0913  0.1966
  816TIP3    H223940   0.866   1.532   3.639 -0.6614  0.5804  1.7599
  817TIP3   OH223941   3.011   5.200  12.972  0.1858 -0.2223 -0.2132
  817TIP3    H123942   3.052   5.231  13.053  1.1539 -0.2309 -0.6878
  817TIP3    H223943   3.004   5.105  12.984 -0.6101 -0.1092  0.2705
  818TIP3   OH223944   6.049   5.128  11.481  0.5039 -0.0556  0.2609
  818TIP3    H123945   6.048   5.140  11.576  1.3494 -0.2881  0.3009
  818TIP3    H223946   5.977   5.183  11.450 -1.4382 -1.9841  1.2613
  819TIP3   OH223947   6.273   5.667  15.024 -0.0562  0.6402  0.0022
  819TIP3    H123948   6.351   5.612  15.023 -0.3495  0.2286 -0.2779
  819TIP3    H223949   6.215   5.625  15.088 -0.2367  0.6836 -0.1311
  820TIP3   OH223950   0.262   0.107  13.058 -0.4943  0.0944  0.1442
  820TIP3    H123951   0.213   0.090  12.978 -0.7564  1.9607 -0.1133
  820TIP3    H223952   0.284   0.201  13.053  0.6863 -0.0888  1.5817
  821TIP3   OH223953   4.528   1.305  14.891  0.2569  0.0311  0.0187
  821TIP3    H123954   4.549   1.361  14.816 -1.0041  0.3860 -0.0876
  821TIP3    H223955   4.583   1.228  14.879  1.2741  0.8092 -0.3787
  822TIP3   OH223956   5.905   1.637   2.063  0.5087  0.3532  0.0202
  822TIP3    H123957   5.847   1.690   2.118 -0.4054 -0.0134 -0.5781
  822TIP3    H223958   5.883   1.546   2.085 -0.4148  0.1886 -1.4772
  823TIP3   OH223959   5.384   0.744  15.778  0.6116 -0.0908 -0.2324
  823TIP3    H123960   5.421   0.764  15.692 -1.0018  1.2142 -0.6709
  823TIP3    H223961   5.387   0.828  15.825 -0.8678 -0.1832  0.0499
  824TIP3   OH223962   6.613   2.818   1.485  0.2156 -0.3452  0.3685
  824TIP3    H123963   6.622   2.748   1.421  0.8677 -0.0221  0.1001
  824TIP3    H223964   6.686   2.805   1.546  1.7654  1.4576 -1.0116
  825TIP3   OH223965   3.289   4.856  12.730  0.1052  0.3877 -0.1684
  825TIP3    H123966   3.260   4.770  12.761 -2.2567  0.9623 -0.6769
  825TIP3    H223967   3.350   4.836  12.659 -0.0806 -0.8864  0.0202
  826TIP3   OH223968   2.754   5.627   5.292  0.3470 -0.1844  0.1179
  826TIP3    H123969   2.779   5.541   5.257 -1.6621 -0.9114  0.3453
  826TIP3    H223970   2.740   5.611   5.385 -0.9992  0.1517 -0.0142
  827TIP3   OH223971   2.178   5.869  15.270 -0.1317  0.3847 -0.0638
  827TIP3    H123972   2.094   5.907  15.242  1.1538  0.9058 -3.4108
  827TIP3    H223973   2.229   5.944  15.299  0.4216  0.5292 -1.3903
  828TIP3   OH223974   5.605   5.611   2.815  0.0779  0.8802  0.2722
  828TIP3    H123975   5.599   5.519   2.843 -0.6815  0.0973 -2.3283
  828TIP3    H223976   5.560   5.613   2.730 -1.0532  3.9170  0.8755
  829TIP3   OH223977   2.536   4.141  13.193 -0.1547  0.2018 -0.1274
  829TIP3    H123978   2.505   4.053  13.216 -0.4701 -0.0397 -1.4226
  829TIP3    H223979   2.628   4.128  13.170 -0.0108  0.3344  0.3677
  830TIP3   OH223980   4.452   2.657   5.560 -0.6720  0.3241  0.5733
  830TIP3    H123981   4.472   2.707   5.639 -1.1135  1.0335  0.2394
  830TIP3    H223982   4.377   2.702   5.522 -1.3026 -0.8059  0.4578
  831TIP3   OH223983   5.743   5.678   2.230 -0.0449 -0.1635  0.5060
  831TIP3    H123984   5.684   5.607   2.255  0.8393 -1.4015 -0.8661
  831TIP3    H223985   5.706   5.755   2.273 -0.6171 -1.5478  2.5753
  832TIP3   OH223986   0.554   0.603   2.370 -0.0691  0.0062  0.3092
  832TIP3    H123987   0.528   0.513   2.392 -0.4394  0.2187  0.7267
  832TIP3    H223988   0.565   0.647   2.454  2.1131 -0.2060  0.1696
  833TIP3   OH223989   3.380   3.332  13.734  0.1871 -0.1233 -0.0542
  833TIP3    H123990   3.346   3.253  13.776  0.8945 -0.0503  0.6516
  833TIP3    H223991   3.463   3.305  13.695  0.8528  0.4881  0.9310
  834TIP3   OH223992   1.232   2.863  13.131 -0.2593  0.4681  0.0888
  834TIP3    H123993   1.230   2.930  13.200 -2.6629 -0.0838  0.5854
  834TIP3    H223994   1.142   2.860  13.098  0.0761 -1.7653 -0.6530
  835TIP3   OH223995   3.790   4.991  14.076 -0.6926 -0.1067 -0.2984
  835TIP3    H123996   3.868   4.937  14.080 -0.6933 -0.1063 -0.2820
  835TIP3    H223997   3.720   4.930  14.051 -0.6896 -0.1092 -0.3010
  836TIP3   OH223998   0.133   1.669   4.112 -0.6932 -0.9013  0.8238
  836TIP3    H123999   0.085   1.747   4.084 -0.9340 -2.4622 -3.4084
  836TIP3    H224000   0.225   1.696   4.113 -0.4833 -1.1012 -3.1703
  837TIP3   OH224001   2.660   6.379   0.169 -0.4742  0.2304  0.0117
  837TIP3    H124002   2.666   6.381   0.264 -2.0160  0.1351  0.1121
  837TIP3    H224003   2.641   6.469   0.144 -1.7103 -0.0529 -0.0883
  838TIP3   OH224004   1.047   4.232   3.514 -0.4065  0.5662 -0.3314
  838TIP3    H124005   0.980   4.171   3.545  1.8168 -0.6339  2.3003
  838TIP3    H224006   1.068   4.202   3.425 -0.9623 -1.0964  0.0890
  839TIP3   OH224007   2.870   2.576   5.909  0.6054 -0.2453  0.0963
  839TIP3    H124008   2.815   2.528   5.848  1.2952 -1.9052  0.7636
  839TIP3    H224009   2.960   2.553   5.884  0.9222 -0.1529  1.1063
  840TIP3   OH224010   4.376   2.162  15.580  0.0696  0.3033  0.1415
  840TIP3    H124011   4.442   2.112  15.628  0.0087  0.5236  0.4490
  840TIP3    H224012   4.369   2.244  15.627 -1.0441 -0.0512  0.5982
  841TIP3   OH224013   4.661   3.907   0.562  0.8733 -0.4480 -0.7618
  841TIP3    H124014   4.606   3.958   0.503  0.7662 -0.6846 -0.8703
  841TIP3    H224015   4.641   3.941   0.649 -0.2320 -1.2283 -0.6892
  842TIP3   OH224016   6.078   3.987   0.273  0.2960 -0.0585  0.1562
  842TIP3    H124017   6.045   3.989   0.363 -0.1627 -1.5026  0.0370
  842TIP3    H224018   6.044   4.067   0.234  1.0811  0.9306  1.4641
  843TIP3   OH224019   5.247   5.233   2.904  0.0116  0.8300 -0.1457
  843TIP3    H124020   5.199   5.198   2.829  1.1051  0.1896 -0.5497
  843TIP3    H224021   5.202   5.315   2.924 -2.5147 -0.6852  0.7432
  844TIP3   OH224022   1.677   4.300  15.223 -0.3343 -0.5040  0.4896
  844TIP3    H124023   1.595   4.343  15.247 -0.8950 -0.5838 -1.2463
  844TIP3    H224024   1.741   4.337  15.283 -1.1742  1.4026  0.2418
  845TIP3   OH224025   1.170   1.759  17.081 -0.0763  0.2129 -0.3931
  845TIP3    H124026   1.123   1.841  17.070  0.8862  0.6042 -1.6726
  845TIP3    H224027   1.253   1.784  17.123 -0.5746 -0.3449  0.9444
  846TIP3   OH224028   2.973   1.578   5.520 -0.4030  0.6581  0.6956
  846TIP3    H124029   2.973   1.532   5.436  0.9069  2.8916 -0.5945
  846TIP3    H224030   3.062   1.567   5.554 -0.8039  0.1277  1.5810
  847TIP3   OH224031   6.545   0.944   0.484 -0.2541 -0.0179  0.0830
  847TIP3    H124032   6.451   0.932   0.497 -0.4737  0.6359 -0.8301
  847TIP3    H224033   6.569   0.879   0.418  0.0770 -0.6493  0.8163
  848TIP3   OH224034   6.747   4.085   5.009  0.2756 -0.4876  0.2940
  848TIP3    H124035   6.806   4.153   5.040  1.3832 -1.2826 -0.0281
  848TIP3    H224036   6.801   4.029   4.953 -1.1524 -0.3421 -1.2849
  849TIP3   OH224037   5.379   3.368   5.089 -0.0200  0.3568  0.6353
  849TIP3    H124038   5.461   3.394   5.046  0.0607 -0.5034  0.2627
  849TIP3    H224039   5.311   3.413   5.039  0.1269 -0.0481  0.0688
  850TIP3   OH224040   3.577   4.291  12.040 -0.0135  0.0900 -0.3205
  850TIP3    H124041   3.663   4.333  12.045 -0.5355  1.3411 -1.3825
  850TIP3    H224042   3.585   4.212  12.092  1.6595  0.4202 -0.0634
  851TIP3   OH224043   6.699   5.382   4.876 -0.0568 -0.2780 -0.0344
  851TIP3    H124044   6.627   5.348   4.822 -0.1103  0.0534 -0.1752
  851TIP3    H224045   6.665   5.384   4.965 -0.1994 -0.1823 -0.0919
  852TIP3   OH224046   3.085   5.784  14.538 -0.3279 -0.4323 -0.4677
  852TIP3    H124047   3.037   5.766  14.619  0.4106  0.5398  0.1995
  852TIP3    H224048   3.140   5.860  14.559  1.7532 -1.7178 -1.0979
  853TIP3   OH224049   5.237   4.709   0.398 -0.8317  0.6560  0.7687
  853TIP3    H124050   5.311   4.649   0.408 -0.6168  0.6996 -0.4032
  853TIP3    H224051   5.161   4.651   0.385 -0.5771  0.6169 -0.6683
  854TIP3   OH224052   6.526   0.191   1.030  0.0000 -1.0469  0.0588
  854TIP3    H124053   6.532   0.137   0.952  0.5375 -0.9915  0.0644
  854TIP3    H224054   6.453   0.154   1.079 -0.2203 -1.1952 -0.3799
  855TIP3   OH224055   1.995   3.262  12.712 -0.2174  0.0284 -0.1757
  855TIP3    H124056   2.088   3.281  12.730  0.1740 -1.1449 -0.9178
  855TIP3    H224057   1.953   3.347  12.714  1.0052  0.6571 -0.5621
  856TIP3   OH224058   0.523   2.430  15.076 -0.5110 -0.0747 -0.2825
  856TIP3    H124059   0.476   2.365  15.128 -0.4237  0.7313  0.8360
  856TIP3    H224060   0.485   2.514  15.102  1.2938  0.5686  0.4185
  857TIP3   OH224061   1.075   4.549   3.135  0.2908 -0.9673  0.5045
  857TIP3    H124062   1.151   4.525   3.081 -0.6892 -0.7514 -0.9914
  857TIP3    H224063   1.062   4.642   3.117  1.2311 -0.3757  2.7422
  858TIP3   OH224064   5.879   1.740   5.564 -0.4359  0.0140 -0.1118
  858TIP3    H124065   5.805   1.696   5.606 -0.6248  0.5703  0.1495
  858TIP3    H224066   5.894   1.691   5.483 -0.7429 -0.4286  0.1006
  859TIP3   OH224067   3.984   3.087   2.977  0.1397  0.0618  0.3504
  859TIP3    H124068   3.928   3.162   2.995 -1.0756 -0.8606  0.5248
  859TIP3    H224069   4.010   3.055   3.064  0.8095  0.3902  0.2734
  860TIP3   OH224070   6.677   5.452   2.036 -0.4811 -0.2346 -0.2631
  860TIP3    H124071   6.744   5.521   2.035 -1.2060  0.5208  1.2562
  860TIP3    H224072   6.664   5.433   2.129 -4.5357  1.8207 -0.2747
  861TIP3   OH224073   5.113   6.586  13.755  0.0505 -0.6461 -0.1627
  861TIP3    H124074   5.088   6.674  13.730  0.4893 -1.4740 -3.7632
  861TIP3    H224075   5.207   6.581  13.736 -0.2317 -2.2747 -1.2191
  862TIP3   OH224076   2.187   2.032   2.694 -0.0547 -0.6431 -0.3541
  862TIP3    H124077   2.259   2.084   2.659  0.4497 -2.0812 -1.4944
  862TIP3    H224078   2.140   2.092   2.751  1.9055  0.3725  0.2240
  863TIP3   OH224079   0.435   0.295   4.376 -0.1543 -0.6682  0.3642
  863TIP3    H124080   0.428   0.388   4.394  1.8417 -0.4251 -0.0893
  863TIP3    H224081   0.351   0.273   4.335 -1.1011  0.6579  1.5308
  864TIP3   OH224082   1.854   6.257   2.861  0.0514 -0.0894 -0.0204
  864TIP3    H124083   1.925   6.291   2.807 -0.0351  2.3968  1.3601
  864TIP3    H224084   1.894   6.185   2.910  0.9860 -0.2218 -0.9538
  865TIP3   OH224085   3.850   2.026   2.801  0.2860  0.2964  0.7610
  865TIP3    H124086   3.796   2.031   2.722  0.8904 -1.1793  0.2296
  865TIP3    H224087   3.790   1.998   2.869  0.2940 -1.0714  0.2287
  866TIP3   OH224088   3.823   6.795   1.085  0.3289  1.2385 -0.9813
  866TIP3    H124089   3.913   6.828   1.084  0.6087  0.4980 -0.7483
  866TIP3    H224090   3.803   6.782   1.177 -0.5754  2.8735 -0.9307
  867TIP3   OH224091   3.814   3.023   1.464  0.1009  0.0352 -0.7057
  867TIP3    H124092   3.762   3.093   1.423  0.3596  1.0412  0.6354
  867TIP3    H224093   3.848   3.063   1.544  0.8845 -1.4075 -0.3083
  868TIP3   OH224094   4.209   4.314   1.595 -0.7770 -0.3901  0.2843
  868TIP3    H124095   4.117   4.323   1.570 -0.9670 -1.2395  0.6884
  868TIP3    H224096   4.255   4.297   1.512 -0.6199  2.5756 -0.2975
  869TIP3   OH224097   1.326   3.784  15.208 -0.1194 -0.9390  0.9372
  869TIP3    H124098   1.389   3.713  15.196  0.7020 -0.4958  2.4178
  869TIP3    H224099   1.351   3.824  15.291 -0.5824  1.0874  0.1227
  870TIP3   OH224100   4.130   1.819   4.681  0.0905  0.1282 -0.2116
  870TIP3    H124101   4.162   1.908   4.666 -1.3810  0.5448 -1.0269
  870TIP3    H224102   4.206   1.770   4.712  1.1845  1.3868 -0.9000
  871TIP3   OH224103   1.225   3.929   3.046 -0.2508  0.1087  0.0718
  871TIP3    H124104   1.173   3.855   3.079 -1.3626  0.8201 -0.0692
  871TIP3    H224105   1.256   3.974   3.124  1.3190 -1.0969  0.1769
  872TIP3   OH224106   6.326   3.653  16.780  0.1645 -0.3344  0.1936
  872TIP3    H124107   6.335   3.557  16.782  1.5300 -0.2203  3.4070
  872TIP3    H224108   6.415   3.685  16.798  0.0201  1.6159 -2.2323
  873TIP3   OH224109   4.382   1.644   4.968  0.0382  0.0663 -0.1472
  873TIP3    H124110   4.402   1.658   5.060  0.3701  0.9797 -0.3588
  873TIP3    H224111   4.365   1.550   4.961  0.7357 -0.1242  0.7005
  874TIP3   OH224112   4.818   4.994  14.738 -0.1395  0.2096  0.0625
  874TIP3    H124113   4.907   4.988  14.702 -0.7558  1.2217 -1.7139
  874TIP3    H224114   4.761   4.973  14.664 -1.3582 -1.9492  1.5782
  875TIP3   OH224115   6.246   0.646  16.163  0.2356  0.5001 -0.1652
  875TIP3    H124116   6.152   0.648  16.149  0.2142 -0.6678 -0.1661
  875TIP3    H224117   6.260   0.697  16.243 -0.6681 -1.6264  1.3786
  876TIP3   OH224118   5.885   4.095  16.160  0.2367  0.3849  0.3550
  876TIP3    H124119   5.832   4.163  16.120  1.0589  0.6524 -0.2978
  876TIP3    H224120   5.832   4.063  16.233 -0.3667  1.3733  0.3639
  877TIP3   OH224121   0.391   1.605  16.127 -0.2140  0.2284 -0.1012
  877TIP3    H124122   0.401   1.559  16.210 -1.1484  0.1048 -0.0555
  877TIP3    H224123   0.481   1.612  16.093  0.0331 -0.8967  0.2835
  878TIP3   OH224124   5.669   6.293   2.094 -0.5468  0.6615 -0.3549
  878TIP3    H124125   5.669   6.230   2.166  0.9239 -0.5142 -1.3579
  878TIP3    H224126   5.584   6.281   2.051 -0.1998 -0.8069 -0.6642
  879TIP3   OH224127   6.062   4.172  16.930  0.1748 -0.2192  0.1105
  879TIP3    H124128   6.049   4.112  16.856 -0.6603  0.1816 -0.0713
  879TIP3    H224129   6.071   4.258  16.889  1.1602 -0.1765  0.3881
  880TIP3   OH224130   3.933   5.118  13.063 -0.4360 -0.1318  0.0080
  880TIP3    H124131   3.977   5.169  12.995  1.9262  0.6253  2.0154
  880TIP3    H224132   4.004   5.070  13.106 -2.0821 -1.7801  0.9504
  881TIP3   OH224133   0.132   6.479  12.188  0.1465  0.3356  0.1020
  881TIP3    H124134   0.148   6.555  12.131  1.2756 -0.7780 -1.0956
  881TIP3    H224135   0.154   6.510  12.276  0.2873  1.4999 -0.3307
  882TIP3   OH224136   0.248   0.981  13.182  0.2753  0.0404 -0.0502
  882TIP3    H124137   0.342   0.970  13.199 -0.2149 -3.0672  1.1319
  882TIP3    H224138   0.231   0.924  13.107 -1.0707 -1.3228  1.2562
  883TIP3   OH224139   4.201   5.098   3.174 -0.5821  0.5550 -1.1005
  883TIP3    H124140   4.134   5.051   3.125 -0.1990 -1.8248  0.5748
  883TIP3    H224141   4.153   5.146   3.242 -0.8732  1.7365 -2.1222
  884TIP3   OH224142   1.797   4.878   2.347 -0.5260  0.1673  0.0589
  884TIP3    H124143   1.869   4.930   2.311 -0.9663  0.8143  0.1037
  884TIP3    H224144   1.838   4.795   2.372 -0.0576  0.0214 -1.1635
  885TIP3   OH224145   4.122   4.330  16.741 -0.1206 -0.6155  0.3577
  885TIP3    H124146   4.109   4.248  16.692 -0.9009 -1.3478  1.7507
  885TIP3    H224147   4.125   4.302  16.833  0.1413  0.8654  0.8019
  886TIP3   OH224148   0.571   5.518   4.388  0.2867 -0.1972  0.0102
  886TIP3    H124149   0.654   5.556   4.360  1.0486 -0.3953  1.9225
  886TIP3    H224150   0.586   5.491   4.478 -1.3841 -1.6680 -0.1180
  887TIP3   OH224151   1.129   4.740   5.110 -0.4001  0.0326  0.0610
  887TIP3    H124152   1.214   4.701   5.130  0.1487  0.7086 -0.9451
  887TIP3    H224153   1.092   4.684   5.041 -0.9314 -0.4627  0.7350
  888TIP3   OH224154   3.438   3.767  13.281 -0.0351 -0.1817  0.3875
  888TIP3    H124155   3.530   3.781  13.306 -0.1467  0.2347  0.5748
  888TIP3    H224156   3.442   3.747  13.187  0.1062  1.6781 -0.0427
  889TIP3   OH224157   0.569   3.726  13.587 -0.5619 -0.2884 -0.2439
  889TIP3    H124158   0.529   3.669  13.521 -0.6885 -2.5445  1.7074
  889TIP3    H224159   0.651   3.755  13.547 -1.6236  0.0748 -2.2008
  890TIP3   OH224160   1.616   6.771  12.420  0.4351  0.0799 -0.0755
  890TIP3    H124161   1.683   6.703  12.410 -0.0720 -0.1657 -2.0092
  890TIP3    H224162   1.535   6.728  12.393  0.2244  1.6333 -2.0341
  891TIP3   OH224163   5.857   4.947   0.999  0.1899  0.3949 -0.4349
  891TIP3    H124164   5.793   4.957   0.929 -1.3884  2.0176  1.2213
  891TIP3    H224165   5.823   4.877   1.054  0.2482  0.6982 -0.0073
  892TIP3   OH224166   6.183   3.016  13.617 -0.1094 -0.1924  0.1344
  892TIP3    H124167   6.222   3.091  13.663 -1.6890  0.7048  0.0265
  892TIP3    H224168   6.218   2.940  13.663  2.2025  0.5599 -0.2903
  893TIP3   OH224169   4.641   3.027   1.052 -0.4672 -0.3643  0.1103
  893TIP3    H124170   4.571   3.008   1.115 -0.9695 -0.5758 -0.5081
  893TIP3    H224171   4.632   2.959   0.985  0.0411 -0.1113 -0.2148
  894TIP3   OH224172   6.742   4.112  13.565 -0.5426 -0.0542  0.0380
  894TIP3    H124173   6.676   4.075  13.506 -0.9415 -1.0048  1.0372
  894TIP3    H224174   6.778   4.187  13.519 -1.3968 -0.3254 -1.0759
  895TIP3   OH224175   4.347   0.607  15.346  0.1337 -0.7389 -0.2721
  895TIP3    H124176   4.318   0.575  15.260  1.2339 -1.0468 -0.5331
  895TIP3    H224177   4.404   0.681  15.327  0.3681 -0.7940  0.1936
  896TIP3   OH224178   6.819   3.686  14.337  0.2224 -0.1253 -0.3590
  896TIP3    H124179   6.800   3.603  14.380  2.3869 -0.3649  0.1954
  896TIP3    H224180   6.752   3.746  14.370 -0.0579 -1.1020  0.8713
  897TIP3   OH224181   2.268   1.267  13.657  0.2234 -0.6944  0.6267
  897TIP3    H124182   2.179   1.269  13.624  0.5724 -1.9130 -0.4373
  897TIP3    H224183   2.259   1.252  13.751 -0.6774 -1.6918  0.3874
  898TIP3   OH224184   3.226   6.611   3.944  0.9579 -0.3293 -0.0650
  898TIP3    H124185   3.284   6.639   3.874  0.1799 -0.2528 -0.6912
  898TIP3    H224186   3.147   6.580   3.899  0.9386 -1.4342  0.7285
  899TIP3   OH224187   1.896   6.808   3.006  0.4070 -0.1346 -0.6801
  899TIP3    H124188   1.844   6.766   2.938 -0.9542  1.2439 -0.5355
  899TIP3    H224189   1.860   6.897   3.012  2.4633  0.7047 -0.2190
  900TIP3   OH224190   3.698   1.477  14.961  0.0152  0.3540 -0.5371
  900TIP3    H124191   3.674   1.551  15.017  1.0443  0.5080 -0.2787
  900TIP3    H224192   3.785   1.500  14.927  0.4183 -0.8097 -0.3166
  901TIP3   OH224193   6.326   5.251  17.035 -0.2771 -0.2215 -0.6983
  901TIP3    H124194   6.411   5.242  17.079  0.2376 -0.0117 -1.6073
  901TIP3    H224195   6.265   5.200  17.088  0.5939 -1.0686 -0.4903
  902TIP3   OH224196   0.001   6.166   3.527 -0.1801  0.1493 -0.4763
  902TIP3    H124197   0.074   6.153   3.588  1.7189  0.9562 -2.4639
  902TIP3    H224198  -0.073   6.189   3.582  0.8860 -1.4399  1.6770
  903TIP3   OH224199   0.002   1.463   2.120 -0.3299  0.0908  0.5743
  903TIP3    H124200  -0.062   1.493   2.054  0.7120 -2.2791 -1.5840
  903TIP3    H224201  -0.017   1.370   2.131  0.9886 -0.0173  1.9720
  904TIP3   OH224202   4.939   0.206  13.322 -0.5143 -0.3353  0.0973
  904TIP3    H124203   5.010   0.252  13.279 -0.9651 -0.8048 -1.1638
  904TIP3    H224204   4.863   0.220  13.265 -0.8758 -1.8079  0.2056
  905TIP3   OH224205   0.591   6.146  15.282 -0.1456  0.0349 -0.0887
  905TIP3    H124206   0.608   6.200  15.359 -0.1344 -1.8049  1.2254
  905TIP3    H224207   0.604   6.056  15.312 -3.1422 -0.9273 -1.4110
  906TIP3   OH224208   3.549   6.398  15.460 -0.2577 -0.3211 -0.2089
  906TIP3    H124209   3.595   6.343  15.397 -0.5074 -1.2247  0.3913
  906TIP3    H224210   3.619   6.446  15.506 -0.0927  0.5829 -1.3805
  907TIP3   OH224211   4.445   5.342  16.483  0.0471 -0.4057 -0.0705
  907TIP3    H124212   4.351   5.322  16.479 -0.0815 -0.0237  0.9462
  907TIP3    H224213   4.461   5.363  16.575  1.1662 -0.6406 -0.2061
  908TIP3   OH224214   1.766   1.623   3.655 -0.0714 -0.1557  0.0703
  908TIP3    H124215   1.860   1.631   3.669  0.3890 -2.2123 -1.6909
  908TIP3    H224216   1.727   1.649   3.739  2.0039  1.5978  0.5261
  909TIP3   OH224217   3.071   3.095  12.516 -0.1758  0.1306 -0.3244
  909TIP3    H124218   3.086   3.003  12.539 -1.6180 -0.2168 -0.7386
  909TIP3    H224219   2.976   3.103  12.511 -0.0179  1.1939 -2.0871
  910TIP3   OH224220   4.887   2.232   2.959  0.4218 -0.3746  0.6723
  910TIP3    H124221   4.897   2.285   3.038  0.8894 -0.2875  0.5576
  910TIP3    H224222   4.965   2.176   2.957  0.7300  0.0699 -0.0629
  911TIP3   OH224223   4.011   5.164  11.332 -0.5754 -0.2024 -0.1892
  911TIP3    H124224   4.031   5.145  11.424 -0.6617 -0.1669 -0.1618
  911TIP3    H224225   3.976   5.253  11.334  2.2188  0.9591 -0.6344
  912TIP3   OH224226   1.671   3.458   4.124  0.0740  0.1214 -0.5132
  912TIP3    H124227   1.657   3.425   4.036 -1.4264 -2.7895  0.7316
  912TIP3    H224228   1.764   3.480   4.128  0.0733  0.5931 -2.9017
  913TIP3   OH224229   5.019   4.747   4.886  0.0373 -0.0428  0.9223
  913TIP3    H124230   5.023   4.723   4.794  0.1232 -0.2319  0.9750
  913TIP3    H224231   4.947   4.810   4.891  0.2958  0.2772  0.6590
  914TIP3   OH224232   4.379   5.622   2.875  0.2043 -0.0117  0.3743
  914TIP3    H124233   4.354   5.695   2.819  1.2384  0.4753  0.5186
  914TIP3    H224234   4.302   5.565   2.878  0.2164 -0.1828 -1.7500
  915TIP3   OH224235   3.141   4.644   6.479  0.1078 -0.2492 -0.1916
  915TIP3    H124236   3.079   4.684   6.417  0.2922  0.1923 -0.0939
  915TIP3    H224237   3.099   4.562   6.505  0.0491 -0.4632 -0.9409
  916TIP3   OH224238   5.556   1.949  15.358  0.3677 -0.1539 -0.8948
  916TIP3    H124239   5.604   1.971  15.438  0.3747  0.7587 -1.1489
  916TIP3    H224240   5.469   1.986  15.371  0.0908 -0.7813 -0.9375
  917TIP3   OH224241   2.610   4.729   2.459  0.5043 -0.1120  0.1421
  917TIP3    H124242   2.517   4.724   2.436  0.2619  1.6049  0.6853
  917TIP3    H224243   2.656   4.711   2.377 -0.2709 -2.5829  0.2046
  918TIP3   OH224244   0.547   1.486  15.486  0.1506 -0.2363 -0.0345
  918TIP3    H124245   0.499   1.409  15.454 -0.4044 -0.2387  0.7961
  918TIP3    H224246   0.590   1.521  15.408  3.0628 -3.2425  0.1486
  919TIP3   OH224247   5.243   6.075   3.506 -0.0207  0.2528 -0.3992
  919TIP3    H124248   5.219   6.025   3.584 -1.1084  1.8105  0.3003
  919TIP3    H224249   5.296   6.015   3.454 -0.5963 -1.3371  0.8046
  920TIP3   OH224250   6.622   1.597   4.817  0.3839 -0.2094 -0.3043
  920TIP3    H124251   6.622   1.692   4.822  0.8491 -0.1607 -1.0453
  920TIP3    H224252   6.704   1.575   4.774 -0.0078 -0.9092 -0.7205
  921TIP3   OH224253   3.967   3.445  10.965 -0.0242  0.2199 -0.3990
  921TIP3    H124254   3.929   3.494  10.892 -2.2930 -0.5373  0.2116
  921TIP3    H224255   3.900   3.450  11.034  0.8006 -1.5593  0.5615
  922TIP3   OH224256   2.841   3.313  15.096 -0.4122 -0.2297  0.7083
  922TIP3    H124257   2.890   3.375  15.150 -2.8706  1.6579  0.8528
  922TIP3    H224258   2.795   3.258  15.159 -2.5205  1.3523  0.5963
  923TIP3   OH224259   5.330   2.965  16.854 -1.0680  0.3548 -0.7505
  923TIP3    H124260   5.328   2.938  16.762 -0.1484 -0.0794 -0.6383
  923TIP3    H224261   5.238   2.979  16.876 -1.1955  1.8740 -2.1516
  924TIP3   OH224262   5.195   4.824   5.082 -0.2587 -0.2151 -0.5009
  924TIP3    H124263   5.173   4.751   5.141 -1.2079 -0.9960 -1.7770
  924TIP3    H224264   5.139   4.810   5.006 -0.3543  1.7894 -0.8283
  925TIP3   OH224265   3.355   2.037   3.913 -0.2895 -0.0467  0.1753
  925TIP3    H124266   3.379   2.021   4.005  1.0590  0.1997 -0.1187
  925TIP3    H224267   3.337   1.950   3.877 -0.5067 -0.1722  0.5819
  926TIP3   OH224268   5.300   3.985   5.504  0.2577  0.4142 -0.1318
  926TIP3    H124269   5.283   3.905   5.555  1.1793 -0.3989 -1.0725
  926TIP3    H224270   5.382   3.966   5.457  0.7720  2.1227  0.0496
  927TIP3   OH224271   3.697   6.299  10.825 -0.3047 -0.0603  0.5256
  927TIP3    H124272   3.671   6.210  10.801  0.1532 -0.6058  1.9942
  927TIP3    H224273   3.678   6.351  10.747 -1.6906 -1.2255  0.0533
  928TIP3   OH224274   3.937   3.280  13.168 -0.3489 -0.6701 -0.4677
  928TIP3    H124275   3.880   3.302  13.243 -0.9687 -0.2458 -1.0524
  928TIP3    H224276   3.877   3.277  13.093  0.2609 -1.1606 -0.9324
  929TIP3   OH224277   1.399   3.732   2.889 -0.0595 -0.1514  0.1957
  929TIP3    H124278   1.319   3.784   2.902 -1.6030 -2.3223 -0.4607
  929TIP3    H224279   1.456   3.789   2.837 -1.0671  1.5124  0.8701
  930TIP3   OH224280   4.456   1.979   2.954  0.4228 -0.3018 -0.0868
  930TIP3    H124281   4.464   1.936   3.039  0.7485  2.8932  1.5540
  930TIP3    H224282   4.545   2.004   2.930  0.0381  1.0725 -0.1389
  931TIP3   OH224283   6.355   6.177  11.450  0.4275 -0.1744 -0.0703
  931TIP3    H124284   6.417   6.250  11.454  1.2223 -0.8446  0.2230
  931TIP3    H224285   6.393   6.112  11.510 -1.6331  0.2128  1.6945
  932TIP3   OH224286   2.093   0.185   1.771 -0.2362  0.3721 -0.4516
  932TIP3    H124287   2.185   0.189   1.797 -0.3042  0.8196 -0.2654
  932TIP3    H224288   2.069   0.276   1.755 -0.1568  0.0937 -2.2515
  933TIP3   OH224289   3.015   3.592   0.934  0.1294  0.3206  0.0701
  933TIP3    H124290   2.951   3.658   0.904  1.0901  0.1457 -2.5394
  933TIP3    H224291   3.098   3.639   0.938  0.2789 -0.0246  1.1676
  934TIP3   OH224292   6.420   5.025  15.926 -0.1900 -0.6443  0.7325
  934TIP3    H124293   6.432   5.107  15.878  0.9355 -1.6470 -0.7734
  934TIP3    H224294   6.383   4.965  15.860 -2.6691 -0.8879  2.2694
  935TIP3   OH224295   0.336   0.398  14.520 -0.0113  0.0771 -0.2757
  935TIP3    H124296   0.250   0.364  14.497  0.2296 -0.0728 -0.9593
  935TIP3    H224297   0.398   0.344  14.470  0.4917  0.0464  0.3639
  936TIP3   OH224298   3.930   1.299   3.950 -0.2416 -0.3686  0.1843
  936TIP3    H124299   3.891   1.386   3.945 -0.3114 -0.4345 -0.4746
  936TIP3    H224300   4.005   1.309   4.009 -0.7348 -0.0503  0.7744
  937TIP3   OH224301   3.152   1.733   2.279 -0.0781  0.1430 -0.2841
  937TIP3    H124302   3.222   1.719   2.344  1.2471  2.0112 -1.2756
  937TIP3    H224303   3.182   1.686   2.201  0.6202  1.8879 -1.0742
  938TIP3   OH224304   3.538   5.427   1.709  0.0175  0.7447  0.0107
  938TIP3    H124305   3.616   5.380   1.679 -0.5488 -1.0203  1.1700
  938TIP3    H224306   3.572   5.507   1.750  1.1072  0.7194 -0.8193
  939TIP3   OH224307   0.842   1.728   0.269 -0.7622 -0.1832  0.0439
  939TIP3    H124308   0.788   1.804   0.248 -0.4591  0.3167  1.0413
  939TIP3    H224309   0.822   1.664   0.200 -2.6193 -0.0107  0.4076
  940TIP3   OH224310   2.872   4.294   3.185 -0.2306  0.2021  0.3366
  940TIP3    H124311   2.905   4.329   3.102 -0.0181  0.8486  0.6999
  940TIP3    H224312   2.785   4.332   3.194 -1.1430 -1.5434 -0.6503
  941TIP3   OH224313   4.606   0.018  15.718 -0.2045 -0.1866  0.1648
  941TIP3    H124314   4.652   0.098  15.746 -2.3306  1.5190 -1.0294
  941TIP3    H224315   4.620  -0.044  15.789  0.5507  1.6322  1.6384
  942TIP3   OH224316   4.262   5.547  16.678 -0.1943  1.3595 -0.0043
  942TIP3    H124317   4.250   5.615  16.745  0.7368  0.9668  0.5640
  942TIP3    H224318   4.230   5.467  16.719  1.8583  0.8122  0.5604
  943TIP3   OH224319   4.621   6.432   4.341  0.4986  0.4185 -0.7385
  943TIP3    H124320   4.715   6.450   4.348  0.6660 -0.6894  0.1619
  943TIP3    H224321   4.593   6.479   4.263  1.2332  3.0693  0.5445
  944TIP3   OH224322   6.738   4.398   3.277  0.3167  0.6413  0.1450
  944TIP3    H124323   6.695   4.403   3.363 -2.3489 -1.1407 -1.0162
  944TIP3    H224324   6.817   4.347   3.294  1.3626  2.7902  2.0695
  945TIP3   OH224325   0.114   0.948  12.518  0.8773  0.2645  0.0523
  945TIP3    H124326   0.031   0.993  12.532  0.2955  0.2228 -2.9789
  945TIP3    H224327   0.120   0.886  12.590 -2.3307 -0.5691 -0.3313
  946TIP3   OH224328   4.678   0.796  12.402 -0.3114  0.1522 -0.3634
  946TIP3    H124329   4.598   0.751  12.430 -0.7426  0.9926 -0.2268
  946TIP3    H224330   4.747   0.758  12.456 -0.9137  0.7314  0.8518
  947TIP3   OH224331   3.203   0.666  12.758 -0.1802 -0.2681  0.2084
  947TIP3    H124332   3.273   0.619  12.712 -0.3264  0.6981 -1.0340
  947TIP3    H224333   3.249   0.738  12.802 -0.3906  0.4085 -0.6665
  948TIP3   OH224334   0.132   3.987  15.714  0.1556  0.2113 -1.0138
  948TIP3    H124335   0.176   4.025  15.790 -0.5245  0.4779 -0.7510
  948TIP3    H224336   0.173   4.030  15.639  1.6510 -0.9094 -0.8567
  949TIP3   OH224337   5.658   6.653  15.216  0.1017  0.6664 -0.4073
  949TIP3    H124338   5.697   6.738  15.239  0.8099 -0.0607  1.0957
  949TIP3    H224339   5.724   6.611  15.161  0.5710  0.3062  0.4193
  950TIP3   OH224340   1.198   4.387   1.480  0.2511 -0.0056  0.6249
  950TIP3    H124341   1.135   4.459   1.491  0.4809  0.4842 -1.1520
  950TIP3    H224342   1.283   4.426   1.499  0.3602  0.1773 -0.2014
  951TIP3   OH224343   6.674   0.089  12.477 -0.0126 -0.0529  0.2186
  951TIP3    H124344   6.665   0.086  12.572  1.0690  1.0041  0.3710
  951TIP3    H224345   6.731   0.016  12.455 -0.6463 -0.5847  0.3230
  952TIP3   OH224346   3.684   3.288  11.627 -0.2336  0.2817 -0.4786
  952TIP3    H124347   3.750   3.291  11.697 -0.5641  2.2764 -0.2130
  952TIP3    H224348   3.711   3.358  11.567 -1.0671 -0.1235 -1.3307
  953TIP3   OH224349   3.905   3.244   5.903 -0.1562 -0.6998  0.2198
  953TIP3    H124350   3.844   3.205   5.841  0.2622 -1.8087  0.4914
  953TIP3    H224351   3.979   3.183   5.906  1.9554  1.6248 -1.6993
  954TIP3   OH224352   4.704   2.949   0.202  0.1907 -0.1458 -0.3264
  954TIP3    H124353   4.691   3.005   0.126  2.2276  0.7711 -0.0513
  954TIP3    H224354   4.632   2.970   0.261 -1.6481 -1.1739 -2.1338
  955TIP3   OH224355   5.621   2.276   0.690 -0.0644 -0.2111  0.1599
  955TIP3    H124356   5.708   2.273   0.728 -0.3030 -0.0624  0.7290
  955TIP3    H224357   5.625   2.215   0.616  0.7962  0.5389 -0.4225
  956TIP3   OH224358   3.850   1.872  16.114 -0.1238  0.4509  0.2270
  956TIP3    H124359   3.941   1.901  16.109  0.3373 -0.8142  1.1473
  956TIP3    H224360   3.846   1.820  16.194 -1.5995  0.2964  0.0522
  957TIP3   OH224361   6.394   3.582   6.622  0.1277 -0.0572  0.4024
  957TIP3    H124362   6.470   3.583   6.681  0.9573 -1.9246 -0.6194
  957TIP3    H224363   6.324   3.543   6.674 -0.4987  2.6842  1.7253
  958TIP3   OH224364   4.626   0.195   3.757  0.5169  0.2231  0.1139
  958TIP3    H124365   4.670   0.117   3.791 -0.3976 -1.2702 -1.9855
  958TIP3    H224366   4.542   0.163   3.723  0.3693  2.0019 -1.3166
  959TIP3   OH224367   5.441   2.796  12.839 -0.5567  0.0027 -0.0233
  959TIP3    H124368   5.432   2.884  12.801  0.6748 -0.7578 -2.1899
  959TIP3    H224369   5.521   2.801  12.892 -0.6869  0.2995  0.1444
  960TIP3   OH224370   0.577   0.335  15.400 -0.3727  1.1953 -0.0630
  960TIP3    H124371   0.618   0.413  15.362 -0.5982  0.2525 -2.3218
  960TIP3    H224372   0.635   0.263  15.374  0.1771  0.6446  2.5334
  961TIP3   OH224373   6.515   6.702   2.046  0.0517  0.5478 -0.1964
  961TIP3    H124374   6.491   6.733   1.959  0.7702  1.5433 -0.0442
  961TIP3    H224375   6.603   6.736   2.061  1.1809 -2.1827 -0.3230
  962TIP3   OH224376   0.175   6.534  13.749  0.6339  0.6608  0.1243
  962TIP3    H124377   0.203   6.572  13.832  0.1610 -0.6977  0.9166
  962TIP3    H224378   0.244   6.472  13.726 -0.6452 -1.1706  1.0409
  963TIP3   OH224379   5.301   5.438   1.964  0.1812  0.1129 -1.0544
  963TIP3    H124380   5.315   5.356   1.915 -0.2801  0.8285 -2.4086
  963TIP3    H224381   5.362   5.433   2.037 -1.0429 -2.2354 -0.1384
  964TIP3   OH224382   6.715   2.229   0.218 -0.0682 -0.2802 -0.1510
  964TIP3    H124383   6.666   2.146   0.222  1.2351 -1.0451  0.1365
  964TIP3    H224384   6.713   2.262   0.308  1.1085 -1.0063  0.1528
  965TIP3   OH224385   6.648   2.539   0.086  0.0429  0.5868  0.3576
  965TIP3    H124386   6.611   2.458   0.121  1.7838 -0.9603 -1.2701
  965TIP3    H224387   6.581   2.573   0.027  0.3388 -1.1037 -0.9818
  966TIP3   OH224388   6.549   5.423   3.746 -0.7156 -0.7677  0.4068
  966TIP3    H124389   6.534   5.430   3.841 -2.4634  2.7637 -0.0344
  966TIP3    H224390   6.630   5.471   3.731 -1.6316  0.6089 -0.1536
  967TIP3   OH224391   0.397   1.525   4.833 -0.3736 -0.0064  0.4119
  967TIP3    H124392   0.352   1.442   4.817 -0.6866  0.0849  0.8004
  967TIP3    H224393   0.484   1.512   4.797  0.4457 -1.4412  2.8232
  968TIP3   OH224394   1.593   3.682   5.219 -0.0089  0.2059 -0.1477
  968TIP3    H124395   1.510   3.726   5.236 -0.7612 -1.3494  0.2639
  968TIP3    H224396   1.659   3.744   5.251 -1.1437  0.1335  2.4994
  969TIP3   OH224397   6.432   6.236   5.642 -0.1314 -0.0503  0.1047
  969TIP3    H124398   6.492   6.189   5.584 -0.0202 -0.0366  0.2086
  969TIP3    H224399   6.469   6.225   5.730 -0.6566 -0.6444  0.2608
  970TIP3   OH224400   0.315   5.268  15.079 -0.0815 -0.5681 -0.0171
  970TIP3    H124401   0.276   5.190  15.040  1.0750 -1.4447  0.5783
  970TIP3    H224402   0.369   5.236  15.150  0.6623  0.7488  0.0342
  971TIP3   OH224403   5.054   5.937   5.431  0.0278 -0.6654 -0.2262
  971TIP3    H124404   5.044   6.031   5.446  0.7884 -0.4912 -0.7800
  971TIP3    H224405   5.057   5.928   5.336 -1.5418 -1.4196 -0.2099
  972TIP3   OH224406   3.604   5.223   2.318 -0.1750 -0.1004 -0.0210
  972TIP3    H124407   3.639   5.235   2.406 -0.8645  2.0321 -0.0027
  972TIP3    H224408   3.680   5.229   2.260  0.2685 -1.4523  0.4142
  973TIP3   OH224409   6.446   5.024   3.472 -0.2986 -0.4622  0.5988
  973TIP3    H124410   6.477   5.113   3.452 -1.1293 -0.2481  0.2485
  973TIP3    H224411   6.354   5.035   3.493 -0.7111 -1.3939 -0.6499
  974TIP3   OH224412   4.753   5.641   4.351 -0.0126 -0.1427  0.0038
  974TIP3    H124413   4.699   5.720   4.344  0.2001  0.0710  0.7535
  974TIP3    H224414   4.727   5.588   4.275 -0.1684  0.6338 -0.4946
  975TIP3   OH224415   5.565   4.411   1.028 -0.0739  0.1060 -0.7000
  975TIP3    H124416   5.639   4.415   0.967 -0.5969  0.6905 -1.3106
  975TIP3    H224417   5.507   4.344   0.991  0.4601 -0.8379  0.1442
  976TIP3   OH224418   1.741   2.120  12.728  0.4189 -0.4456 -0.1406
  976TIP3    H124419   1.752   2.190  12.793  0.1240  0.5388 -1.1281
  976TIP3    H224420   1.700   2.048  12.777 -0.6566  0.6185  0.5694
  977TIP3   OH224421   5.280   2.799   1.613 -0.3348  0.0844 -0.1536
  977TIP3    H124422   5.208   2.736   1.619 -0.1638 -0.0474  0.5364
  977TIP3    H224423   5.334   2.782   1.690  0.8738 -0.3484 -1.0752
  978TIP3   OH224424   2.154   1.687   4.700 -0.3457  0.2045 -0.2108
  978TIP3    H124425   2.109   1.646   4.775 -2.1783 -1.1361 -1.9868
  978TIP3    H224426   2.235   1.636   4.691 -0.7643 -0.5162  0.0208
  979TIP3   OH224427   2.436   1.841  11.650  0.2692  0.0015  0.1344
  979TIP3    H124428   2.379   1.792  11.591 -1.0290 -1.6482  2.6651
  979TIP3    H224429   2.443   1.786  11.728  0.5730  2.8206  2.2056
  980TIP3   OH224430   2.241   2.415   0.627  0.4850 -0.4557 -0.1239
  980TIP3    H124431   2.255   2.372   0.543  2.7058 -1.2395  0.5914
  980TIP3    H224432   2.197   2.350   0.681  0.9975 -0.7288 -0.0284
  981TIP3   OH224433   0.285   5.104  13.877 -0.1123  0.4300  0.6862
  981TIP3    H124434   0.238   5.183  13.902 -0.7671  0.7330 -1.3730
  981TIP3    H224435   0.219   5.035  13.877  0.0013  0.3186  0.3957
  982TIP3   OH224436   2.557   0.304   3.133 -0.1473 -0.2452  0.0953
  982TIP3    H124437   2.522   0.234   3.078 -1.2452 -0.9366  1.6333
  982TIP3    H224438   2.651   0.285   3.137  0.0305  0.1047 -1.9148
  983TIP3   OH224439   6.585   1.435   3.605  0.8148  0.3991  0.2078
  983TIP3    H124440   6.528   1.378   3.554  0.0040  0.4385  1.0743
  983TIP3    H224441   6.646   1.375   3.648  0.5430  0.2585  0.3941
  984TIP3   OH224442   5.842   5.744  17.001  0.3293 -0.4405 -0.7903
  984TIP3    H124443   5.920   5.711  17.045 -0.1478 -0.6661 -0.1044
  984TIP3    H224444   5.875   5.800  16.931  1.0992 -0.4123 -0.4025
  985TIP3   OH224445   3.752   6.297   2.887 -1.1546 -0.4844  0.2420
  985TIP3    H124446   3.704   6.263   2.811  0.0960 -0.6464 -0.4899
  985TIP3    H224447   3.822   6.350   2.848  1.1019 -2.6967  1.2243
  986TIP3   OH224448   4.601   2.662   4.945 -0.0234 -0.3533 -0.0022
  986TIP3    H124449   4.597   2.689   5.037 -0.3852 -0.2889 -0.0359
  986TIP3    H224450   4.671   2.716   4.908 -1.1738  1.0235 -0.2156
  987TIP3   OH224451   5.480   5.375   5.882 -0.2061 -0.3156  0.2037
  987TIP3    H124452   5.475   5.452   5.825  0.3227 -0.9796 -0.7578
  987TIP3    H224453   5.504   5.410   5.968 -0.0487  0.5990 -0.2101
  988TIP3   OH224454   0.011   2.783  12.989 -0.3810  0.5786  0.4850
  988TIP3    H124455   0.033   2.806  12.899 -0.7811  1.3035  0.5693
  988TIP3    H224456  -0.035   2.699  12.982  0.0083  0.3948  0.0647
  989TIP3   OH224457   3.480   2.739  15.696 -0.6496  0.4298 -0.4673
  989TIP3    H124458   3.493   2.830  15.724 -1.8618  0.3592  0.3506
  989TIP3    H224459   3.554   2.692  15.734 -0.0138  1.0704 -0.8912
  990TIP3   OH224460   4.874   0.226   2.814  0.1123 -0.3768  0.3093
  990TIP3    H124461   4.898   0.318   2.814  1.1241 -0.6356 -0.9144
  990TIP3    H224462   4.941   0.184   2.867  0.7714 -0.6921 -0.7670
  991TIP3   OH224463   2.703   5.900  15.559 -0.5105  0.3241  0.5095
  991TIP3    H124464   2.688   5.975  15.502  0.0208 -1.0080 -1.4367
  991TIP3    H224465   2.615   5.871  15.584 -0.8418 -0.1508 -1.0991
  992TIP3   OH224466   2.073   0.590   4.175 -0.1907 -0.0055  0.1207
  992TIP3    H124467   2.160   0.567   4.143 -0.0180  0.4466  0.2682
  992TIP3    H224468   2.089   0.635   4.258 -0.5463  0.3493 -0.0016
  993TIP3   OH224469   2.214   2.384  14.788  0.2804  0.2263  0.5925
  993TIP3    H124470   2.133   2.335  14.799  0.3177  0.4271  1.7392
  993TIP3    H224471   2.204   2.462  14.843  1.4778 -0.0347  1.2030
  994TIP3   OH224472   0.686   3.690   5.468 -0.6164  0.6697 -0.1135
  994TIP3    H124473   0.613   3.714   5.525  0.6890  1.4638  1.2355
  994TIP3    H224474   0.665   3.601   5.439 -1.9004  0.7235  0.6040
  995TIP3   OH224475   1.300   2.333  12.874 -0.4534 -0.4443 -1.1294
  995TIP3    H124476   1.242   2.321  12.799 -1.8171  1.4815 -0.4264
  995TIP3    H224477   1.242   2.354  12.947  1.0271  0.3844 -0.1525
  996TIP3   OH224478   6.154   1.840  13.322 -0.9501  0.3886 -0.3764
  996TIP3    H124479   6.158   1.819  13.415  1.7034  2.3868  0.0085
  996TIP3    H224480   6.093   1.775  13.286 -1.4580 -0.8823  2.5854
  997TIP3   OH224481   1.941   3.524  15.524 -0.2570 -0.1547  0.6354
  997TIP3    H124482   1.988   3.501  15.604 -0.6861  1.0062  1.2383
  997TIP3    H224483   1.924   3.618  15.533 -0.0730  0.0378 -0.9446
  998TIP3   OH224484   4.177   1.629  12.371  0.4871  0.5168  0.2007
  998TIP3    H124485   4.272   1.620  12.383  0.5683 -0.8646 -1.3362
  998TIP3    H224486   4.167   1.709  12.320  0.8233  0.7358  0.4759
  999TIP3   OH224487   1.408   6.255   4.797 -0.3618  0.3256 -0.1225
  999TIP3    H124488   1.381   6.167   4.770 -0.8322  0.8182 -1.2549
  999TIP3    H224489   1.337   6.286   4.852 -0.8625  0.5549 -0.8932
 1000TIP3   OH224490   0.750   3.622   5.809  0.0891 -0.0088  0.4143
 1000TIP3    H124491   0.661   3.598   5.784  0.5576 -0.5993 -0.7227
 1000TIP3    H224492   0.769   3.565   5.884 -0.4413  0.0098  0.5624
 1001TIP3   OH224493   4.627   5.791  13.306  0.2891 -0.3981  0.2535
 1001TIP3    H124494   4.552   5.805  13.247 -0.6551 -1.1644  1.2547
 1001TIP3    H224495   4.701   5.779  13.247 -0.8991 -2.6861 -0.8807
 1002TIP3   OH224496   1.257   0.908   1.757 -0.6298  0.1214 -0.4374
 1002TIP3    H124497   1.212   0.984   1.720 -0.6648 -0.2880 -1.2447
 1002TIP3    H224498   1.235   0.836   1.698 -1.2969 -0.7112  0.7943
 1003TIP3   OH224499   1.383   3.859   1.997  0.1139 -0.7751 -0.3915
 1003TIP3    H124500   1.314   3.831   2.057  0.5672 -1.9152 -0.3958
 1003TIP3    H224501   1.429   3.928   2.045  0.8750 -2.1165  0.8687
 1004TIP3   OH224502   4.943   3.519  15.336  0.1753 -0.1263  0.2467
 1004TIP3    H124503   4.944   3.592  15.398 -0.5694  2.9072 -3.1831
 1004TIP3    H224504   4.857   3.480  15.347 -0.1179  0.6503  0.8022
 1005TIP3   OH224505   4.491   3.095   2.263 -0.2443 -0.7483 -0.2759
 1005TIP3    H124506   4.427   3.162   2.241  0.2314 -0.2046 -0.0025
 1005TIP3    H224507   4.576   3.139   2.259  0.0107 -1.1160  0.7257
 1006TIP3   OH224508   2.195   3.320  10.764 -0.2079 -0.2291  0.3728
 1006TIP3    H124509   2.257   3.281  10.826 -1.7270 -2.0765  0.7800
 1006TIP3    H224510   2.249   3.342  10.688  1.3172  0.1372  1.5239
 1007TIP3   OH224511   4.652   6.204   1.116 -0.4056 -0.4624 -0.4223
 1007TIP3    H124512   4.665   6.112   1.091 -0.1493 -0.5552  0.0582
 1007TIP3    H224513   4.633   6.202   1.209 -2.3618 -0.1917 -0.7831
 1008TIP3   OH224514   6.299   3.891  14.520  0.1416 -0.7795  0.0217
 1008TIP3    H124515   6.231   3.838  14.562 -0.1557 -0.0471  0.4693
 1008TIP3    H224516   6.251   3.959  14.473  0.5320 -0.7828 -0.3901
 1009TIP3   OH224517   6.377   3.205  16.531 -0.2972 -0.6997  0.3161
 1009TIP3    H124518   6.468   3.182  16.552 -0.8667 -1.8864  1.5745
 1009TIP3    H224519   6.325   3.155  16.594 -1.8451 -0.2990 -0.6294
 1010TIP3   OH224520   0.010   6.615   3.794  0.4001  0.2160 -0.1820
 1010TIP3    H124521   0.048   6.697   3.760  1.5655  0.6443  2.1114
 1010TIP3    H224522  -0.078   6.640   3.824  1.5371  1.1178  2.4768
 1011TIP3   OH224523   3.140   6.751   2.930  0.0905  0.2377  0.7280
 1011TIP3    H124524   3.158   6.813   2.860  0.6592 -0.7423 -0.0094
 1011TIP3    H224525   3.046   6.760   2.947  0.2268  1.5234  0.8698
 1012TIP3   OH224526   4.345   0.520   0.657  0.3793  0.1080  0.0657
 1012TIP3    H124527   4.276   0.467   0.697  0.8520 -0.9267 -0.4758
 1012TIP3    H224528   4.297   0.591   0.614 -0.0810  1.6718  3.0375
 1013TIP3   OH224529   6.393   0.361   0.666 -0.5555  0.0267 -0.4890
 1013TIP3    H124530   6.439   0.424   0.610  0.0786  0.2941  0.3108
 1013TIP3    H224531   6.350   0.301   0.606  1.6916 -0.8394 -1.2870
 1014TIP3   OH224532   4.085   5.846   2.569  0.1928  0.0883 -0.2262
 1014TIP3    H124533   4.065   5.929   2.526  1.7115  0.9496  0.6513
 1014TIP3    H224534   4.016   5.835   2.634 -2.0593 -1.1713 -2.7296
 1015TIP3   OH224535   2.247   1.203  16.794 -0.3071 -0.3278 -0.3357
 1015TIP3    H124536   2.234   1.152  16.874  0.6187  0.1481  0.1177
 1015TIP3    H224537   2.202   1.286  16.812 -1.6402 -0.8841 -0.9982
 1016TIP3   OH224538   4.310   0.039  14.213 -0.1016 -0.8338 -0.3495
 1016TIP3    H124539   4.276  -0.049  14.199  0.9218 -1.8964  3.0871
 1016TIP3    H224540   4.405   0.029  14.207  0.1468 -0.4912  2.1744
 1017TIP3   OH224541   3.040   4.779  16.415  0.3227  0.1477  0.1948
 1017TIP3    H124542   3.037   4.829  16.496 -3.4251  0.4041 -0.0339
 1017TIP3    H224543   3.036   4.688  16.442  0.6113  0.1869  0.3667
 1018TIP3   OH224544   5.962   0.792  16.378 -0.2139 -0.2393 -0.0044
 1018TIP3    H124545   5.890   0.753  16.427 -0.5389  0.5460  0.1465
 1018TIP3    H224546   5.930   0.797  16.288 -0.8012  1.2029  0.2785
 1019TIP3   OH224547   6.060   0.095   5.837  0.0691  0.4450  0.1529
 1019TIP3    H124548   6.068   0.135   5.750 -0.8690 -0.9693 -0.6024
 1019TIP3    H224549   5.975   0.051   5.835 -0.1349  0.7366  1.9404
 1020TIP3   OH224550   3.614   5.039  11.720 -0.3225  0.0736 -0.4743
 1020TIP3    H124551   3.642   5.051  11.629  0.1777 -0.6151 -0.4102
 1020TIP3    H224552   3.690   5.002  11.765 -0.1773  1.5140  0.4985
 1021TIP3   OH224553   2.906   4.031   2.521 -0.1121 -0.6842 -0.4505
 1021TIP3    H124554   2.937   4.090   2.590 -0.2502 -0.3159 -0.7046
 1021TIP3    H224555   2.986   3.997   2.481 -0.0287 -0.3117 -0.6079
 1022TIP3   OH224556   3.212   0.290   1.012 -0.1693 -0.2327  0.9618
 1022TIP3    H124557   3.201   0.258   0.922 -0.4435  1.0395  0.5365
 1022TIP3    H224558   3.216   0.385   1.004  1.0178 -0.1511  2.1729
 1023TIP3   OH224559   1.335   0.790   4.014  0.0075 -0.3527 -0.7826
 1023TIP3    H124560   1.396   0.851   3.972 -0.6278 -0.6086 -2.1043
 1023TIP3    H224561   1.267   0.775   3.949 -1.6422  0.1559  0.7763
 1024TIP3   OH224562   2.350   4.275  14.690 -0.2822 -0.1470 -0.9101
 1024TIP3    H124563   2.444   4.290  14.679 -0.0017 -1.9683 -1.2067
 1024TIP3    H224564   2.341   4.254  14.783 -0.3718 -0.0773 -0.9033
 1025TIP3   OH224565   1.197   0.334  11.876 -0.2931 -0.1609  0.0187
 1025TIP3    H124566   1.161   0.248  11.854 -2.3333  0.3290  1.3307
 1025TIP3    H224567   1.286   0.315  11.905 -0.0125 -1.5916 -1.7090
 1026TIP3   OH224568   5.188   5.248  14.408  0.3642  0.7761 -0.1746
 1026TIP3    H124569   5.164   5.326  14.459 -0.9247  0.1814  0.1406
 1026TIP3    H224570   5.264   5.212  14.455 -0.5672  0.4532  1.0981
 1027TIP3   OH224571   5.409   2.462  16.528  0.1068 -0.1678  0.3229
 1027TIP3    H124572   5.355   2.384  16.514  0.0770 -0.2083  0.6471
 1027TIP3    H224573   5.479   2.454  16.464  0.1951 -0.5497  0.4623
 1028TIP3   OH224574   2.508   4.289   2.593  0.9446 -0.4783  0.5242
 1028TIP3    H124575   2.577   4.345   2.559  1.2799 -1.6896 -0.8548
 1028TIP3    H224576   2.483   4.234   2.519 -0.7315 -0.8126  1.3134
 1029TIP3   OH224577   1.372   5.552  16.292 -0.2336 -0.2729 -0.1458
 1029TIP3    H124578   1.387   5.562  16.198 -0.4463  1.9319  0.0256
 1029TIP3    H224579   1.453   5.515  16.326  1.0528  1.8672 -0.7633
 1030TIP3   OH224580   1.095   5.581  12.740 -0.5967  0.4501  0.4897
 1030TIP3    H124581   1.004   5.602  12.716 -0.9585 -1.6920 -0.0507
 1030TIP3    H224582   1.142   5.581  12.657 -0.2080  0.9646  0.7059
 1031TIP3   OH224583   0.435   0.710  11.464 -0.1478 -0.2339  0.1067
 1031TIP3    H124584   0.487   0.638  11.431 -0.4787 -0.5584  0.2893
 1031TIP3    H224585   0.423   0.691  11.557 -0.1764  0.0903  0.1709
 1032TIP3   OH224586   1.730   6.297  14.060  0.8979  0.2825 -0.9266
 1032TIP3    H124587   1.742   6.335  14.147  1.1035 -0.9010 -0.4276
 1032TIP3    H224588   1.748   6.369  14.000 -0.3063  1.3992  0.0188
 1033TIP3   OH224589   6.719   5.637   0.274  0.1626  0.4211 -0.5557
 1033TIP3    H124590   6.813   5.641   0.292  0.0651  0.2207  0.0252
 1033TIP3    H224591   6.691   5.728   0.270  0.1907  0.4771  0.3336
 1034TIP3   OH224592   4.223   1.842   5.454  0.1806 -0.3976  0.1231
 1034TIP3    H124593   4.247   1.803   5.538  0.3391 -0.2369  0.1511
 1034TIP3    H224594   4.236   1.771   5.391  0.7291 -0.3110  0.1373
 1035TIP3   OH224595   3.473   0.046  13.181  0.3456  0.5788 -0.0936
 1035TIP3    H124596   3.563   0.059  13.152  0.3767 -0.6246 -0.5680
 1035TIP3    H224597   3.434  -0.012  13.115 -0.7730  1.0819  0.1129
 1036TIP3   OH224598   0.206   6.313  14.766 -0.6245 -0.2200  0.3698
 1036TIP3    H124599   0.184   6.222  14.744 -2.1740  0.2194  0.0157
 1036TIP3    H224600   0.299   6.321  14.746 -0.0988 -2.1619  1.8873
 1037TIP3   OH224601   2.271   5.879  16.247  0.1451  0.2543  0.5189
 1037TIP3    H124602   2.323   5.926  16.182 -1.2003  1.0263 -0.0208
 1037TIP3    H224603   2.197   5.844  16.198  0.3092 -1.1175  1.2166
 1038TIP3   OH224604   2.997   4.293  11.605 -0.0501 -0.2759  0.0640
 1038TIP3    H124605   3.075   4.342  11.578  0.0323 -0.9988 -1.0349
 1038TIP3    H224606   2.925   4.355  11.593  0.5038  0.9386  2.6137
 1039TIP3   OH224607   6.704   0.932   1.354 -0.3280 -0.1220 -0.2671
 1039TIP3    H124608   6.793   0.904   1.333  0.1134  1.8040 -1.0771
 1039TIP3    H224609   6.691   0.904   1.445  2.3700  2.4857  1.0231
 1040TIP3   OH224610   3.938   5.108   1.624  0.2925  0.6316  0.0305
 1040TIP3    H124611   4.032   5.115   1.610  0.0726  1.1186 -1.2499
 1040TIP3    H224612   3.911   5.032   1.572 -0.2390  1.3588 -0.7861
 1041TIP3   OH224613   1.182   0.810  16.842 -0.0546 -0.0376  0.1453
 1041TIP3    H124614   1.227   0.881  16.796 -1.7875  0.5200 -0.7178
 1041TIP3    H224615   1.211   0.731  16.798  0.0727  0.3210 -0.4189
 1042TIP3   OH224616   2.497   4.573   3.389  0.1858 -0.1838 -0.3945
 1042TIP3    H124617   2.571   4.617   3.431  0.5096  0.6283 -1.8111
 1042TIP3    H224618   2.535   4.527   3.314 -0.7544  0.3930 -1.2368
 1043TIP3   OH224619   5.107   5.021   5.631  0.0255 -0.2741 -0.0763
 1043TIP3    H124620   5.173   5.082   5.664 -3.0539  2.3203  1.5508
 1043TIP3    H224621   5.039   5.078   5.593 -2.3230 -2.7528  0.3013
 1044TIP3   OH224622   2.498   2.011   4.537 -0.0714 -0.1390  0.5446
 1044TIP3    H124623   2.542   2.096   4.544  1.0621 -0.5047 -1.6343
 1044TIP3    H224624   2.445   2.005   4.616 -1.5052  3.3520 -0.0735
 1045TIP3   OH224625   1.698   2.102  15.192  0.0148  1.0337 -0.5204
 1045TIP3    H124626   1.603   2.111  15.187  0.1269  1.7346 -1.4943
 1045TIP3    H224627   1.723   2.160  15.264 -0.1888  1.6820 -0.9624
 1046TIP3   OH224628   1.086   1.292  16.082 -0.3389 -0.6805 -0.0654
 1046TIP3    H124629   1.088   1.277  15.988  0.0577  0.6128 -0.2747
 1046TIP3    H224630   0.993   1.303  16.103 -0.4449 -1.1967 -0.2646
 1047TIP3   OH224631   2.698   1.550   2.098 -0.5091  0.2788 -0.1775
 1047TIP3    H124632   2.780   1.599   2.098 -0.3500  0.0097 -0.0133
 1047TIP3    H224633   2.702   1.497   2.018 -0.1166 -0.4203  0.3051
 1048TIP3   OH224634   4.074   2.235  15.438 -0.3475  0.0873  0.6168
 1048TIP3    H124635   4.039   2.234  15.349 -2.7398 -1.4753  1.5250
 1048TIP3    H224636   4.118   2.319  15.445 -0.8950  0.6189 -1.7415
 1049TIP3   OH224637   5.497   2.178   2.855  0.3161 -0.1316  0.4107
 1049TIP3    H124638   5.584   2.191   2.893  0.3745  0.8434 -0.0507
 1049TIP3    H224639   5.469   2.093   2.889  2.0995 -1.1704 -0.6586
 1050TIP3   OH224640   1.480   3.482   3.419 -0.9150 -0.5392  0.0614
 1050TIP3    H124641   1.435   3.562   3.446  0.4615 -0.7112  2.9938
 1050TIP3    H224642   1.414   3.413   3.428 -1.3517 -0.1319 -0.0040
 1051TIP3   OH224643   4.467   4.991  14.875 -0.2800 -0.1356 -0.0658
 1051TIP3    H124644   4.411   4.952  14.807  1.1686 -1.2197 -0.6568
 1051TIP3    H224645   4.548   4.940  14.872  1.1627  2.0870  0.0446
 1052TIP3   OH224646   4.158   6.196   6.033  0.1202 -0.0614 -0.0797
 1052TIP3    H124647   4.151   6.103   6.008 -0.4922 -0.3093  1.0207
 1052TIP3    H224648   4.241   6.201   6.081 -1.6608 -0.8117  3.1874
 1053TIP3   OH224649   4.434   1.728  16.827  0.2570 -0.6957 -0.0412
 1053TIP3    H124650   4.345   1.744  16.860  0.3667 -0.4914  0.1621
 1053TIP3    H224651   4.476   1.814  16.831  0.1824 -0.6123 -0.9916
 1054TIP3   OH224652   5.460   2.977   0.251 -0.5651  0.1996  0.3667
 1054TIP3    H124653   5.376   2.959   0.294  0.0110  1.5448  2.0877
 1054TIP3    H224654   5.482   3.066   0.277  1.0121  0.1627 -0.7661
 1055TIP3   OH224655   2.654   5.063   1.778  0.4995  0.3569  0.6139
 1055TIP3    H124656   2.582   5.035   1.834  0.5342  0.1967  0.5771
 1055TIP3    H224657   2.656   4.999   1.706 -0.2189  1.1525 -0.1317
 1056TIP3   OH224658   5.927   3.647   4.427 -0.1478 -0.0004 -0.3631
 1056TIP3    H124659   5.872   3.721   4.401  0.5125  1.2742  1.7107
 1056TIP3    H224660   6.013   3.668   4.391  0.0082  0.1794  0.1115
 1057TIP3   OH224661   6.467   5.700  12.123 -0.2421 -0.5181 -0.1687
 1057TIP3    H124662   6.467   5.750  12.205 -3.5141 -0.9526  0.1422
 1057TIP3    H224663   6.473   5.766  12.054 -0.9467  0.0711  0.3365
 1058TIP3   OH224664   2.978   1.863  13.120  0.2846 -0.1577  0.0326
 1058TIP3    H124665   2.980   1.777  13.161 -0.8044 -0.5006 -0.6103
 1058TIP3    H224666   2.885   1.888  13.120  0.3909  0.2999 -1.2322
 1059TIP3   OH224667   3.884   2.722   1.941  0.1607  0.7459  0.1719
 1059TIP3    H124668   3.944   2.713   1.867 -0.3011 -3.4994  0.2409
 1059TIP3    H224669   3.798   2.701   1.905 -0.2018 -0.5005  1.7180
 1060TIP3   OH224670   6.324   1.110   0.926 -0.1643 -0.5386  0.3099
 1060TIP3    H124671   6.390   1.043   0.905  0.5533  0.2960 -0.1454
 1060TIP3    H224672   6.365   1.162   0.996 -0.1436  0.2702 -0.2991
 1061TIP3   OH224673   0.547   0.460   6.428  0.2733 -0.0081  0.0250
 1061TIP3    H124674   0.462   0.474   6.388  0.5626  1.8312  0.0030
 1061TIP3    H224675   0.604   0.433   6.355 -0.0846 -0.4184 -0.1053
 1062TIP3   OH224676   1.669   5.711  13.177 -0.5582 -0.6659 -0.0652
 1062TIP3    H124677   1.601   5.732  13.241 -0.1518 -2.1750  0.8903
 1062TIP3    H224678   1.749   5.701  13.229 -0.1218 -1.4010 -0.8510
 1063TIP3   OH224679   6.432   4.310   0.730 -0.1657  0.2644  0.4820
 1063TIP3    H124680   6.526   4.303   0.710 -0.1774 -0.3471  0.6256
 1063TIP3    H224681   6.406   4.394   0.692  0.4862  0.5394  0.6226
 1064TIP3   OH224682   3.290   2.487  13.757  0.4926 -0.6077 -0.2620
 1064TIP3    H124683   3.321   2.489  13.847  1.0361  1.9749 -0.4430
 1064TIP3    H224684   3.369   2.505  13.705  0.0887 -1.5751 -1.2215
 1065TIP3   OH224685   0.864   1.366   5.772 -0.2374  1.0191 -0.7825
 1065TIP3    H124686   0.860   1.324   5.686  0.5117  0.3166 -0.4739
 1065TIP3    H224687   0.947   1.337   5.810 -0.4233  1.5624  0.0575
 1066TIP3   OH224688   5.677   4.512  14.551 -0.5271 -0.1832  0.2162
 1066TIP3    H124689   5.672   4.588  14.610 -0.1673 -1.4729  1.9711
 1066TIP3    H224690   5.771   4.502  14.534 -0.6944  0.6364 -1.1866
 1067TIP3   OH224691   6.733   1.966  14.400  0.1077 -0.6551 -0.1108
 1067TIP3    H124692   6.666   1.971  14.332 -0.5030 -0.9375  0.4653
 1067TIP3    H224693   6.685   1.952  14.481  0.7749  0.5980  0.5161
 1068TIP3   OH224694   4.507   3.104   4.486 -0.4375 -0.5619  0.0145
 1068TIP3    H124695   4.419   3.091   4.450 -0.1072 -0.0472 -1.0178
 1068TIP3    H224696   4.546   3.016   4.484 -1.1848 -0.9293  1.1976
 1069TIP3   OH224697   5.376   3.542  12.207 -0.3883 -0.3952 -0.3125
 1069TIP3    H124698   5.337   3.455  12.201 -1.4217 -0.0576  1.2526
 1069TIP3    H224699   5.371   3.565  12.299  2.1713  0.3065 -0.3203
 1070TIP3   OH224700   5.833   5.371   0.158 -0.5849 -0.1692 -0.7298
 1070TIP3    H124701   5.836   5.454   0.111 -2.5863 -0.2826 -1.0747
 1070TIP3    H224702   5.921   5.362   0.196  0.9788  0.0766 -4.1261
 1071TIP3   OH224703   3.813   0.380   0.526  0.1831 -0.0340  0.2780
 1071TIP3    H124704   3.855   0.365   0.441  1.7937 -1.8137  1.3492
 1071TIP3    H224705   3.721   0.360   0.511  0.1963  1.0856 -1.4064
 1072TIP3   OH224706   2.485   2.126   0.286 -0.7459  0.2191  0.1497
 1072TIP3    H124707   2.470   2.090   0.199 -0.8475  1.4945 -0.3547
 1072TIP3    H224708   2.580   2.141   0.289 -0.6973 -0.1262  0.3786
 1073TIP3   OH224709   4.741   5.658   3.388 -0.4027 -0.0937  0.1475
 1073TIP3    H124710   4.694   5.642   3.470 -1.2102  0.0226 -0.2836
 1073TIP3    H224711   4.706   5.741   3.355 -0.0073 -0.0830 -0.2577
 1074TIP3   OH224712   1.625   1.430  11.248 -0.3426 -0.3954 -0.0106
 1074TIP3    H124713   1.639   1.462  11.159 -1.0842  0.8963  0.3215
 1074TIP3    H224714   1.704   1.379  11.268  0.6071  0.7280 -0.7849
 1075TIP3   OH224715   4.272   2.908   1.546 -0.4379  0.2369 -0.7055
 1075TIP3    H124716   4.321   2.879   1.622 -2.0156 -1.8428 -0.4467
 1075TIP3    H224717   4.311   2.861   1.472 -2.9992 -2.6881 -0.2858
 1076TIP3   OH224718   1.703   0.033   1.744 -0.5720 -0.4160  0.3304
 1076TIP3    H124719   1.721   0.124   1.722  0.6261 -0.8356 -0.4697
 1076TIP3    H224720   1.778   0.005   1.796 -0.7088 -1.0946  0.1710
 1077TIP3   OH224721   2.168   1.705   6.200 -0.5706 -0.1429 -0.3664
 1077TIP3    H124722   2.159   1.702   6.104  0.4769 -3.0880 -0.4390
 1077TIP3    H224723   2.107   1.639   6.232 -0.9010  0.8154  1.0286
 1078TIP3   OH224724   6.074   3.713  14.568  0.7198  0.1845 -0.3207
 1078TIP3    H124725   6.006   3.776  14.594 -0.4555 -1.4204  0.5634
 1078TIP3    H224726   6.110   3.681  14.650  1.5931 -0.0082 -0.7726
 1079TIP3   OH224727   5.978   6.458  13.225  0.4857  0.1652  0.1304
 1079TIP3    H124728   6.054   6.399  13.223  0.2952 -0.0958  0.5614
 1079TIP3    H224729   5.979   6.495  13.313 -0.9163 -1.1928  0.7332
 1080TIP3   OH224730   0.103   2.882   0.271  0.0164 -0.1360 -0.0853
 1080TIP3    H124731   0.068   2.879   0.182  1.8527 -0.9441 -0.8180
 1080TIP3    H224732   0.088   2.794   0.306 -0.6424  0.1608  0.3786
 1081TIP3   OH224733   0.446   5.130  13.254 -0.5262  0.3155 -0.1116
 1081TIP3    H124734   0.464   5.067  13.325  0.6518 -0.6317 -1.2302
 1081TIP3    H224735   0.369   5.177  13.284 -0.9238 -1.0809  1.1632
 1082TIP3   OH224736   5.984   0.342  17.061  0.5832 -0.1155 -0.7328
 1082TIP3    H124737   5.932   0.301  17.131 -1.0710  1.9915 -0.6939
 1082TIP3    H224738   6.072   0.349  17.097 -0.4723  1.8618  1.5677
 1083TIP3   OH224739   0.291   6.139   4.358 -0.3625  0.5525 -0.1410
 1083TIP3    H124740   0.361   6.200   4.336 -0.7966  0.2135 -2.5726
 1083TIP3    H224741   0.215   6.169   4.308 -1.0886 -0.9087  0.0472
 1084TIP3   OH224742   1.502   5.074  17.159  0.2296 -0.1185  0.5113
 1084TIP3    H124743   1.431   5.055  17.098  1.2903 -2.9889  0.1225
 1084TIP3    H224744   1.553   5.142  17.115 -0.5090 -0.2496 -0.5818
 1085TIP3   OH224745   4.736   6.320  11.912 -0.2455 -0.1167 -0.2902
 1085TIP3    H124746   4.794   6.312  11.988  3.0488 -0.0802 -2.6974
 1085TIP3    H224747   4.745   6.412  11.885 -0.8328 -0.3120 -1.1654
 1086TIP3   OH224748   4.267   2.328   4.986  0.1734 -0.4940 -0.2277
 1086TIP3    H124749   4.297   2.365   5.069 -1.5152  1.2182 -0.3459
 1086TIP3    H224750   4.223   2.247   5.010 -0.4904  0.0960  0.5959
 1087TIP3   OH224751   2.640   6.058   4.387 -0.1204 -0.0398  0.1844
 1087TIP3    H124752   2.557   6.103   4.376  0.2965  0.4267 -1.0579
 1087TIP3    H224753   2.690   6.077   4.308  0.9426 -0.8133  0.6414
 1088TIP3   OH224754   4.691   0.208  14.576 -0.3464 -0.2517  0.0267
 1088TIP3    H124755   4.741   0.274  14.623 -0.4574 -0.0704 -0.1112
 1088TIP3    H224756   4.661   0.252  14.496  1.0903 -1.0033 -0.9442
 1089TIP3   OH224757   3.390   2.031  13.549 -0.4707 -0.1675  0.6293
 1089TIP3    H124758   3.335   2.039  13.471  2.0303  0.0971 -1.1786
 1089TIP3    H224759   3.361   1.950  13.591 -1.7018 -0.4345 -0.6974
 1090TIP3   OH224760   3.277   0.492  10.507 -0.1393  0.1345  0.2794
 1090TIP3    H124761   3.236   0.427  10.564  1.2248 -1.3812 -0.4301
 1090TIP3    H224762   3.215   0.503  10.435 -0.0702 -0.9141  0.0494
 1091TIP3   OH224763   4.931   1.553  15.658 -0.6289 -0.3896  0.6260
 1091TIP3    H124764   4.880   1.607  15.597  0.4669 -1.7551 -1.5809
 1091TIP3    H224765   4.885   1.560  15.741 -1.8365  2.0214 -0.2096
 1092TIP3   OH224766   0.898   6.717  16.971 -0.4308  0.1224 -0.3866
 1092TIP3    H124767   0.928   6.774  17.041 -2.7403  0.0424  0.6910
 1092TIP3    H224768   0.852   6.775  16.910 -2.3337 -0.4919  0.4508
 1093TIP3   OH224769   5.348   1.738  15.140  0.7325  0.2964  0.2885
 1093TIP3    H124770   5.438   1.719  15.113  0.6026  0.9426 -0.6408
 1093TIP3    H224771   5.322   1.812  15.084  0.0772  0.9558  1.4616
 1094TIP3   OH224772   6.008   0.246  13.510  0.2382 -0.0279  0.5335
 1094TIP3    H124773   6.103   0.250  13.515  0.3904 -1.2981 -0.8628
 1094TIP3    H224774   5.990   0.194  13.432 -1.6363  3.0557 -1.1967
 1095TIP3   OH224775   0.055   1.847   2.000  0.3144  0.1419  0.2347
 1095TIP3    H124776   0.019   1.803   2.077 -0.4978  3.4250  1.8102
 1095TIP3    H224777   0.107   1.920   2.035  1.8115  0.3478 -2.2709
 1096TIP3   OH224778   6.814   5.588   5.174 -0.9175 -0.1307 -0.0317
 1096TIP3    H124779   6.862   5.586   5.257 -0.3587 -1.0397 -0.3705
 1096TIP3    H224780   6.804   5.681   5.154  3.3125  0.0870 -1.4695
 1097TIP3   OH224781   2.533   4.990   3.554  0.6646 -0.3328  0.3178
 1097TIP3    H124782   2.453   4.982   3.502 -0.7279  1.3244  2.1254
 1097TIP3    H224783   2.603   4.998   3.490 -0.9943  1.6364 -1.3153
 1098TIP3   OH224784   0.869   4.743  12.843 -0.8440 -0.1262  0.1824
 1098TIP3    H124785   0.892   4.651  12.830  0.3235  0.3375 -1.2295
 1098TIP3    H224786   0.950   4.785  12.870 -1.2853  0.5546  0.4679
 1099TIP3   OH224787   5.953   2.633   6.001 -0.0835 -0.4036 -0.6817
 1099TIP3    H124788   5.950   2.653   6.095 -2.7643  0.2912 -0.8699
 1099TIP3    H224789   5.914   2.546   5.994  2.2366 -1.4825 -0.9674
 1100TIP3   OH224790   5.773   4.795  12.035  0.4140  0.0685  0.4064
 1100TIP3    H124791   5.764   4.818  12.128 -3.7792  0.4299 -0.0159
 1100TIP3    H224792   5.698   4.739  12.017  0.4327  1.0915 -3.1129
 1101TIP3   OH224793   0.576   0.589   4.709  0.3044  0.0938  0.7165
 1101TIP3    H124794   0.569   0.586   4.804 -0.6680 -0.9644  0.6232
 1101TIP3    H224795   0.585   0.497   4.683  0.7098  0.3884 -0.2019
 1102TIP3   OH224796   2.783   3.937  14.637  0.5434  0.0520  0.1579
 1102TIP3    H124797   2.776   3.947  14.542  1.8669  1.8751  0.2500
 1102TIP3    H224798   2.786   4.026  14.671  2.6221 -0.5901  1.7250
 1103TIP3   OH224799   4.665   5.590   0.224  0.3013  0.0221 -0.4742
 1103TIP3    H124800   4.618   5.574   0.306  0.5467 -1.5892 -0.6287
 1103TIP3    H224801   4.691   5.681   0.229 -0.5118  0.1942  0.8256
 1104TIP3   OH224802   5.515   6.038   2.914 -0.2490  0.1574  0.0070
 1104TIP3    H124803   5.517   5.947   2.943  0.2104  0.5366  1.1870
 1104TIP3    H224804   5.441   6.077   2.960 -0.2438  0.4709 -0.2422
 1105TIP3   OH224805   6.571   3.639  11.026  0.1502  0.3586  0.0606
 1105TIP3    H124806   6.481   3.667  11.045  0.6677  2.0607  0.0380
 1105TIP3    H224807   6.576   3.638  10.931  0.0985  0.0435  0.0605
 1106TIP3   OH224808   1.145   4.703  12.967  0.3606 -0.3178  0.3172
 1106TIP3    H124809   1.227   4.675  13.008  0.6713 -1.2380 -0.9313
 1106TIP3    H224810   1.093   4.738  13.040  1.9552  0.5147  1.0736
 1107TIP3   OH224811   6.698   6.415   2.733 -0.0448  0.2692 -0.4568
 1107TIP3    H124812   6.771   6.472   2.759  1.3013 -1.5081 -0.3031
 1107TIP3    H224813   6.732   6.326   2.742 -2.4062 -0.6104  0.1486
 1108TIP3   OH224814   0.715   2.979  14.285 -0.1215 -0.1752  0.2462
 1108TIP3    H124815   0.668   3.016  14.359  0.4932  0.2089  0.4521
 1108TIP3    H224816   0.733   3.055  14.228 -0.9847 -0.5324 -0.5154
 1109TIP3   OH224817   2.181   3.240  11.838  0.6398  0.1600  0.2333
 1109TIP3    H124818   2.124   3.315  11.855 -0.3176 -0.0416 -1.9015
 1109TIP3    H224819   2.157   3.211  11.750  3.2134 -0.6851 -0.2455
 1110TIP3   OH224820   6.293   4.406  13.989 -0.0028  0.2370  0.4486
 1110TIP3    H124821   6.230   4.454  13.935  0.2092  1.0500  0.9070
 1110TIP3    H224822   6.348   4.475  14.027  0.6216 -0.4131  0.7194
 1111TIP3   OH224823   1.983   1.386   2.818  0.5572 -0.0052  0.0631
 1111TIP3    H124824   1.938   1.399   2.735 -1.1244  1.4986  1.1694
 1111TIP3    H224825   1.973   1.292   2.836 -1.4198  0.1439 -0.1442
 1112TIP3   OH224826   4.903   2.815  13.602 -0.0692  0.5341 -0.3745
 1112TIP3    H124827   4.854   2.782  13.677  1.8283 -2.7480 -0.4423
 1112TIP3    H224828   4.920   2.907  13.622 -3.6568  0.9898  0.9579
 1113TIP3   OH224829   5.258   2.633  17.247  0.0641  0.1914 -0.9534
 1113TIP3    H124830   5.169   2.632  17.283  0.0460 -2.9508 -0.9534
 1113TIP3    H224831   5.255   2.573  17.172  1.9168  0.9049 -1.6378
 1114TIP3   OH224832   0.116   5.892  12.767 -0.6442  0.4236 -0.8095
 1114TIP3    H124833   0.154   5.913  12.853 -1.3382  1.9403 -0.8636
 1114TIP3    H224834   0.156   5.808  12.744 -2.1393 -1.1463  2.0088
 1115TIP3   OH224835   5.512   1.342  12.990 -0.3033 -0.0817  0.3407
 1115TIP3    H124836   5.462   1.296  12.923  1.0777  1.2908 -1.6792
 1115TIP3    H224837   5.464   1.423  13.005 -0.8786 -0.6035  1.4098
 1116TIP3   OH224838   4.367   4.853   2.539  0.2032  0.0432  0.3140
 1116TIP3    H124839   4.363   4.935   2.491 -0.4852  0.7844  1.6039
 1116TIP3    H224840   4.290   4.803   2.509  1.5497 -0.8755 -1.7331
 1117TIP3   OH224841   2.690   0.636  11.173 -0.1749  0.0479 -0.3916
 1117TIP3    H124842   2.675   0.627  11.079  0.3665  1.4186 -0.6124
 1117TIP3    H224843   2.759   0.572  11.192  2.2768  2.2622 -1.5988
 1118TIP3   OH224844   6.711   3.975  14.727  0.3502 -0.0040 -0.2838
 1118TIP3    H124845   6.768   4.039  14.770  0.3488 -0.0444 -0.2197
 1118TIP3    H224846   6.765   3.897  14.719  1.6859  1.2123 -3.9201
 1119TIP3   OH224847   5.561   1.896  16.820 -0.0161  0.2557 -0.4134
 1119TIP3    H124848   5.612   1.904  16.900  0.1352  1.8651 -0.6553
 1119TIP3    H224849   5.470   1.892  16.850  0.1147 -0.4956 -0.1028
 1120TIP3   OH224850   1.155   1.880   2.337 -0.6600 -0.3311  0.1152
 1120TIP3    H124851   1.208   1.908   2.412 -0.6981 -1.0611  0.4234
 1120TIP3    H224852   1.219   1.846   2.274 -0.5538  1.0906 -0.5492
 1121TIP3   OH224853   5.773   4.043   2.095 -0.9955  0.1960 -0.2929
 1121TIP3    H124854   5.764   4.091   2.013  0.4350  1.0644  0.0323
 1121TIP3    H224855   5.750   4.106   2.163  2.9155  1.1864  0.2764
 1122TIP3   OH224856   5.743   6.418  16.500 -0.0382  0.5468  0.3226
 1122TIP3    H124857   5.837   6.427  16.519  0.3026  2.0974 -1.9520
 1122TIP3    H224858   5.701   6.483  16.557  0.3782  0.7960  0.3498
 1123TIP3   OH224859   0.134   0.602   5.012  0.0439 -0.2165 -0.0788
 1123TIP3    H124860   0.153   0.690   4.979 -0.8168  0.0727  0.1711
 1123TIP3    H224861   0.043   0.586   4.986  0.3989 -1.2975 -0.6905
 1124TIP3   OH224862   0.737   1.553  15.223  0.1052  0.3733  0.3193
 1124TIP3    H124863   0.748   1.460  15.239 -0.6411  0.2586  0.1696
 1124TIP3    H224864   0.649   1.562  15.187 -0.1930  1.2444  1.2427
 1125TIP3   OH224865   6.695   5.135   4.633  0.0660 -0.2101 -0.0403
 1125TIP3    H124866   6.751   5.073   4.681 -1.8725 -2.0051 -0.0312
 1125TIP3    H224867   6.665   5.085   4.557 -1.1802  0.8656 -0.2636
 1126TIP3   OH224868   5.396   0.971  14.748 -0.2188 -0.0298 -0.5198
 1126TIP3    H124869   5.388   0.958  14.653 -2.2106 -0.5940 -0.2935
 1126TIP3    H224870   5.314   0.937  14.784  1.1962 -1.3713  1.5718
 1127TIP3   OH224871   0.649   3.847  12.503  0.1771  0.1701 -0.1974
 1127TIP3    H124872   0.661   3.925  12.558  1.4255  1.1796 -1.8728
 1127TIP3    H224873   0.711   3.783  12.539  4.0286  2.1973 -2.9038
 1128TIP3   OH224874   4.290   1.144  12.653  0.0821  0.2276 -0.2843
 1128TIP3    H124875   4.383   1.125  12.662  0.1788  0.7659 -0.0949
 1128TIP3    H224876   4.280   1.179  12.564 -0.1229 -0.8523 -0.6913
 1129TIP3   OH224877   5.530   4.747  16.868 -0.3569 -0.3893 -0.1630
 1129TIP3    H124878   5.578   4.724  16.947 -0.9654  0.6706  0.5260
 1129TIP3    H224879   5.440   4.720  16.887 -0.0979 -2.2617 -1.4024
 1130TIP3   OH224880   5.977   6.498  15.800 -0.0261 -0.1490 -0.1399
 1130TIP3    H124881   5.884   6.519  15.810 -0.1217 -0.1901 -0.9522
 1130TIP3    H224882   5.984   6.459  15.713  1.0372  1.4110 -0.7726
 1131TIP3   OH224883   5.489   3.115   2.107 -0.4157  0.3579 -0.1941
 1131TIP3    H124884   5.424   3.080   2.046  0.0962  1.3082 -1.3133
 1131TIP3    H224885   5.497   3.207   2.083  1.1902  0.3041  0.0643
 1132TIP3   OH224886   0.448   0.544  17.186  0.4385 -0.2539 -0.3591
 1132TIP3    H124887   0.478   0.563  17.097 -0.5101 -1.2864 -0.9105
 1132TIP3    H224888   0.463   0.450  17.196 -2.8674 -0.8708 -0.7688
 1133TIP3   OH224889   5.584   3.469  16.913  0.0122  0.9403 -0.4789
 1133TIP3    H124890   5.528   3.530  16.961 -0.0996  0.0116  0.5693
 1133TIP3    H224891   5.533   3.389  16.906  1.2423  0.0423  0.5865
 1134TIP3   OH224892   5.191   5.775  14.359  0.0617  0.2083 -0.3442
 1134TIP3    H124893   5.261   5.773  14.424  0.3455  0.2302 -0.6443
 1134TIP3    H224894   5.214   5.704  14.298  0.3812  0.8792 -1.0150
 1135TIP3   OH224895   3.971   4.847   4.759  0.5719 -0.5223  0.6820
 1135TIP3    H124896   3.928   4.761   4.763 -1.0011  0.3020  2.5083
 1135TIP3    H224897   4.060   4.831   4.791  0.5278 -1.6040  0.2945
 1136TIP3   OH224898   1.220   6.099   3.623  0.0889 -0.0565  0.3064
 1136TIP3    H124899   1.258   6.183   3.599  0.2367  0.0065  0.7519
 1136TIP3    H224900   1.148   6.086   3.561 -0.9152  1.1237  1.1942
 1137TIP3   OH224901   1.001   1.069  12.654  0.1469  0.0410  0.2906
 1137TIP3    H124902   1.024   1.008  12.583 -2.9861 -0.6112 -0.2603
 1137TIP3    H224903   1.030   1.154  12.622  1.1684 -0.6158 -0.5974
 1138TIP3   OH224904   0.440   1.259   3.838  0.1240  0.6237  0.3724
 1138TIP3    H124905   0.456   1.278   3.745 -0.7097 -0.8739 -0.0987
 1138TIP3    H224906   0.410   1.342   3.875 -1.6487  0.7167 -1.1983
 1139TIP3   OH224907   2.069   3.586  10.729 -0.4158  0.6774 -0.1196
 1139TIP3    H124908   2.117   3.513  10.689 -1.0133  1.2667 -1.9458
 1139TIP3    H224909   1.977   3.568  10.710 -0.7363  0.8918  1.1419
 1140TIP3   OH224910   5.719   2.027  17.011 -1.0436  0.3109 -0.8167
 1140TIP3    H124911   5.795   1.979  17.045  0.0997  1.5464 -1.5620
 1140TIP3    H224912   5.694   2.085  17.083 -0.1550  1.1705 -1.1840
 1141TIP3   OH224913   3.380   4.956   0.530  0.4190  0.7557 -0.3591
 1141TIP3    H124914   3.406   4.864   0.542 -0.1266  0.3476 -2.0335
 1141TIP3    H224915   3.285   4.953   0.524  0.5200  1.0814 -2.7926
 1142TIP3   OH224916   1.120   5.566  16.109 -0.3813  0.1821 -0.0073
 1142TIP3    H124917   1.149   5.478  16.134 -1.2382 -0.5500 -1.5177
 1142TIP3    H224918   1.109   5.612  16.192  3.6945  0.0682  0.6921
 1143TIP3   OH224919   4.949   0.678  15.507 -0.1296 -0.2002 -0.0513
 1143TIP3    H124920   4.864   0.657  15.545  0.2218 -1.4157  0.0940
 1143TIP3    H224921   4.996   0.594  15.506  1.0418  0.4476 -0.1790
 1144TIP3   OH224922   5.393   2.051  13.016 -0.6150 -0.0448  1.0276
 1144TIP3    H124923   5.463   2.116  13.007 -0.7176  0.1699  1.7410
 1144TIP3    H224924   5.381   2.017  12.927 -0.2201  0.5560  0.7357
 1145TIP3   OH224925   5.704   0.385  11.102 -0.3402  0.3643 -0.2140
 1145TIP3    H124926   5.758   0.434  11.040 -1.1442  1.3205 -0.1749
 1145TIP3    H224927   5.670   0.311  11.051  1.5782 -0.6545 -0.0398
 1146TIP3   OH224928   5.880   4.965   2.566  0.6185  0.1155 -0.0874
 1146TIP3    H124929   5.874   4.878   2.528 -0.5619  0.1201  0.0684
 1146TIP3    H224930   5.858   5.024   2.493  1.0237  0.2620 -0.0919
 1147TIP3   OH224931   0.603   5.537   3.022 -0.2440 -0.0523  0.0702
 1147TIP3    H124932   0.606   5.445   3.049  0.2412  0.2586  1.1214
 1147TIP3    H224933   0.677   5.548   2.962 -1.0838 -0.6569 -1.0818
 1148TIP3   OH224934   5.627   3.397   6.888  0.0808 -0.1459  0.0529
 1148TIP3    H124935   5.607   3.450   6.811  1.0134 -0.2040 -0.2382
 1148TIP3    H224936   5.722   3.406   6.899  0.1961 -1.4428  0.2285
 1149TIP3   OH224937   3.139   2.581   2.452  0.1227  0.0561 -0.0451
 1149TIP3    H124938   3.119   2.494   2.417  2.0597  0.1908 -1.6284
 1149TIP3    H224939   3.217   2.567   2.505  0.2941  0.7791 -0.1100
 1150TIP3   OH224940   4.026   5.517  14.693 -0.1245  0.5677 -0.4900
 1150TIP3    H124941   3.971   5.479  14.762 -0.0430  1.6242  0.1620
 1150TIP3    H224942   4.079   5.444  14.662 -0.8652 -0.1375 -0.1221
 1151TIP3   OH224943   3.282   3.039   1.170 -0.3172 -0.2826 -0.1047
 1151TIP3    H124944   3.299   3.114   1.226  0.1560 -1.0479  0.7818
 1151TIP3    H224945   3.187   3.038   1.159 -0.3497  0.2720  0.1044
 1152TIP3   OH224946   2.969   1.752  14.618  0.2925  0.3066 -0.0560
 1152TIP3    H124947   2.963   1.687  14.689  1.6228  0.0807 -0.1376
 1152TIP3    H224948   2.915   1.825  14.648  0.5569  0.0695  1.0354
 1153TIP3   OH224949   5.716   6.243  15.336  0.0838 -0.0887 -0.3532
 1153TIP3    H124950   5.796   6.205  15.371  1.0334  1.5129 -0.7065
 1153TIP3    H224951   5.682   6.177  15.276  0.4401 -1.3066  0.7622
 1154TIP3   OH224952   1.165   2.032   4.990 -0.6347  0.4432  0.1298
 1154TIP3    H124953   1.197   2.122   4.993  0.7862 -0.1058  2.0696
 1154TIP3    H224954   1.242   1.980   4.967 -0.9182 -0.5247  1.3367
 1155TIP3   OH224955   4.147   3.626  13.793 -0.1172  0.0334 -0.5219
 1155TIP3    H124956   4.144   3.564  13.720 -1.8049 -1.8917  1.1021
 1155TIP3    H224957   4.056   3.641  13.816  0.3610  1.1332  0.7612
 1156TIP3   OH224958   5.916   6.282  16.002 -0.1046  0.2399 -0.2876
 1156TIP3    H124959   5.899   6.322  15.916  1.4552 -0.1057 -0.7672
 1156TIP3    H224960   5.855   6.327  16.061 -2.0968 -0.3967 -1.7944
 1157TIP3   OH224961   3.489   0.623   2.905 -0.6543 -0.3812  0.3976
 1157TIP3    H124962   3.569   0.575   2.925 -0.3472 -0.4546 -0.9495
 1157TIP3    H224963   3.426   0.596   2.972  0.6766  0.2619  1.9326
 1158TIP3   OH224964   1.430   0.780   1.328 -0.0534  0.0287  0.2040
 1158TIP3    H124965   1.489   0.800   1.400  0.2359 -1.1249  0.2812
 1158TIP3    H224966   1.427   0.685   1.323 -1.6201  0.0667 -0.0348
 1159TIP3   OH224967   4.985   0.755  15.256 -0.2178  0.1635  0.3902
 1159TIP3    H124968   4.996   0.730  15.348 -0.2840 -0.6836  0.1678
 1159TIP3    H224969   5.023   0.683  15.207 -0.1578  0.6314 -0.2532
 1160TIP3   OH224970   6.517   2.003  16.170  0.2373  0.1592 -0.0166
 1160TIP3    H124971   6.521   1.909  16.152  0.3305  0.5089 -2.0126
 1160TIP3    H224972   6.590   2.020  16.229  0.5714 -0.9182 -0.1174
 1161TIP3   OH224973   6.526   1.697  16.360  0.1143  0.4103  0.1875
 1161TIP3    H124974   6.533   1.782  16.403  1.3893  0.5935 -0.3532
 1161TIP3    H224975   6.479   1.642  16.422  0.8089  1.0293  1.2780
 1162TIP3   OH224976   6.107   4.559  12.482 -0.5150  0.4245  0.2360
 1162TIP3    H124977   6.068   4.538  12.567 -2.3387 -1.0352 -0.9389
 1162TIP3    H224978   6.068   4.643  12.457 -2.7861 -0.9124 -0.8224
 1163TIP3   OH224979   1.284   5.910   5.662 -0.2513  0.0302 -0.4000
 1163TIP3    H124980   1.286   5.817   5.640  1.2988  0.5692 -2.7360
 1163TIP3    H224981   1.356   5.948   5.612 -0.4618  2.3957  1.0105
 1164TIP3   OH224982   3.571   1.407  13.549  0.2219  0.3390  0.1387
 1164TIP3    H124983   3.511   1.373  13.482 -1.2038 -0.1180  1.5929
 1164TIP3    H224984   3.513   1.447  13.614  1.3793 -1.2601  2.2321
 1165TIP3   OH224985   3.652   6.052   2.212  0.2919 -0.1465  0.1011
 1165TIP3    H124986   3.684   6.092   2.293 -0.6729  0.1130  0.3513
 1165TIP3    H224987   3.728   6.054   2.153  0.3666  1.6660  0.2390
 1166TIP3   OH224988   6.548   3.493  13.212 -0.4887 -0.1562  0.4338
 1166TIP3    H124989   6.612   3.523  13.148  1.4716 -2.2144  1.3699
 1166TIP3    H224990   6.598   3.481  13.292 -2.5215  0.4375  1.8322
 1167TIP3   OH224991   0.620   1.425  13.090  0.2528  0.2566  0.1764
 1167TIP3    H124992   0.691   1.370  13.057 -1.6494 -0.2778 -3.2585
 1167TIP3    H224993   0.624   1.505  13.037 -1.4407  0.3848  0.2046
 1168TIP3   OH224994   3.704   1.471  16.278  0.5425 -0.0901  0.3855
 1168TIP3    H124995   3.673   1.535  16.342  1.5693 -1.1705  2.0086
 1168TIP3    H224996   3.791   1.446  16.310  1.1062 -0.5984 -1.4898
 1169TIP3   OH224997   3.232   5.372   0.397  0.1389  0.2504 -0.0418
 1169TIP3    H124998   3.292   5.297   0.395  1.2004  1.1060 -0.3997
 1169TIP3    H224999   3.244   5.415   0.312 -0.9554  0.4528 -0.1004
 1170TIP3   OH225000   5.032   6.736  15.685 -0.3243 -0.4979 -0.4210
 1170TIP3    H125001   4.997   6.651  15.713  0.4952 -0.6461  0.2001
 1170TIP3    H225002   4.974   6.801  15.724  0.3620 -0.7261  1.0295
 1171TIP3   OH225003   4.130   5.183  13.932  0.3291 -0.0345  0.4214
 1171TIP3    H125004   4.098   5.196  14.021  1.3818 -0.3823  0.8593
 1171TIP3    H225005   4.059   5.137  13.888 -1.6715  3.2633  0.0578
 1172TIP3   OH225006   5.605   1.619   2.394 -0.0948  0.1501  0.1593
 1172TIP3    H125007   5.595   1.708   2.429  2.1244 -0.2596  1.9757
 1172TIP3    H225008   5.584   1.562   2.468 -0.5140 -0.8321 -0.7140
 1173TIP3   OH225009   5.479   4.279  12.320  0.0673 -0.0297 -0.2067
 1173TIP3    H125010   5.466   4.370  12.348  4.1215  0.8618 -0.8406
 1173TIP3    H225011   5.448   4.226  12.394  1.7299  2.0028  2.0171
 1174TIP3   OH225012   0.789   4.038  15.917  0.0878 -0.2460 -0.4052
 1174TIP3    H125013   0.699   4.008  15.933  0.3997 -1.3018 -0.5613
 1174TIP3    H225014   0.843   3.979  15.970  0.7518 -0.2320 -1.0593
 1175TIP3   OH225015   5.823   5.031  16.407 -0.1375 -0.0454 -0.4465
 1175TIP3    H125016   5.872   5.087  16.347 -0.4455  0.3659 -0.3119
 1175TIP3    H225017   5.835   4.943  16.372  1.1722 -0.0133 -0.0896
 1176TIP3   OH225018   6.471   2.380   0.237  1.1748  0.4537 -0.1883
 1176TIP3    H125019   6.390   2.396   0.286  1.9028  2.4980  0.4078
 1176TIP3    H225020   6.478   2.285   0.232 -0.9905  0.2581  0.2123
 1177TIP3   OH225021   6.796   2.256  17.258 -0.0998 -0.9243  0.6781
 1177TIP3    H125022   6.704   2.272  17.234  0.1245  2.0722  1.5772
 1177TIP3    H225023   6.796   2.264  17.354  1.2696  0.0928  0.5987
 1178TIP3   OH225024   3.395   3.999  16.557  0.1104  0.0518  0.4953
 1178TIP3    H125025   3.448   4.020  16.635 -1.4762  0.4875  1.4905
 1178TIP3    H225026   3.336   4.074  16.548  0.2860  0.0094 -1.1610
 1179TIP3   OH225027   2.881   3.577   1.640 -0.0033  0.0128 -0.2510
 1179TIP3    H125028   2.921   3.591   1.554  0.4587 -0.9601 -0.2062
 1179TIP3    H225029   2.945   3.611   1.702 -0.5090  1.0776 -0.3011
 1180TIP3   OH225030   6.075   3.700   5.596 -0.4989  0.1782 -0.2625
 1180TIP3    H125031   6.093   3.613   5.631 -0.7053 -0.1237 -0.8989
 1180TIP3    H225032   6.062   3.755   5.673  1.8235  0.1194  0.1944
 1181TIP3   OH225033   6.154   4.700   5.252  0.1957 -0.3444 -0.1890
 1181TIP3    H125034   6.121   4.639   5.186 -2.0999  0.9587 -0.2945
 1181TIP3    H225035   6.087   4.699   5.321  1.3790  0.1632  0.9893
 1182TIP3   OH225036   2.840   2.471  13.758  0.4753 -0.2040 -0.3176
 1182TIP3    H125037   2.770   2.509  13.704 -1.3491  0.1374  2.1801
 1182TIP3    H225038   2.810   2.382  13.777  1.6946 -0.7404 -0.9015
 1183TIP3   OH225039   1.567   4.092  12.234  0.6496  0.6599 -0.5230
 1183TIP3    H125040   1.487   4.123  12.191  0.2180  1.6193  0.9310
 1183TIP3    H225041   1.623   4.170  12.239 -0.2691  1.1897  2.7733
 1184TIP3   OH225042   0.832   2.279   4.746  0.0579  0.0439  0.2520
 1184TIP3    H125043   0.794   2.191   4.751  1.0452 -0.4503 -0.8002
 1184TIP3    H225044   0.927   2.264   4.744  0.1792  1.0141 -2.1772
 1185TIP3   OH225045   0.331   2.117   7.150 -0.0106 -0.7411  0.1257
 1185TIP3    H125046   0.284   2.168   7.084  1.2081 -0.4177 -0.5103
 1185TIP3    H225047   0.344   2.031   7.110 -1.4610 -1.3632  0.9328
 1186TIP3   OH225048   1.783   1.070  15.465  0.0674 -1.0407 -0.6660
 1186TIP3    H125049   1.707   1.100  15.515  1.2190  0.6469  0.1368
 1186TIP3    H225050   1.759   1.085  15.374 -1.2907 -2.3276 -0.5499
 1187TIP3   OH225051   5.759   1.864   2.750  0.4126 -0.2760  0.1631
 1187TIP3    H125052   5.809   1.935   2.790 -0.4965  0.2427  0.3938
 1187TIP3    H225053   5.826   1.806   2.712  1.1778  0.4725  0.3452
 1188TIP3   OH225054   6.722   1.908  13.299  0.3452  0.2422  1.3556
 1188TIP3    H125055   6.688   1.991  13.331  0.8234  0.0789  2.3120
 1188TIP3    H225056   6.673   1.842  13.347  0.4421 -0.0214  1.0958
 1189TIP3   OH225057   0.294   1.864  12.144 -0.0460 -1.1669  0.3893
 1189TIP3    H125058   0.306   1.884  12.237 -0.1453 -0.7070  0.3025
 1189TIP3    H225059   0.373   1.898  12.102 -0.2313 -0.9244  0.2384
 1190TIP3   OH225060   3.553   2.189   0.165 -0.2641 -0.3626  0.1062
 1190TIP3    H125061   3.498   2.230   0.232  0.1234  0.7034 -0.2156
 1190TIP3    H225062   3.499   2.189   0.087  0.1435  0.6189 -0.1914
 1191TIP3   OH225063   3.614   5.195   5.738  0.1172  0.3161 -0.0704
 1191TIP3    H125064   3.568   5.251   5.676 -0.5167  0.2576  0.3471
 1191TIP3    H225065   3.616   5.109   5.696 -2.2151 -0.2559  0.9096
 1192TIP3   OH225066   5.817   0.444   5.739 -0.8306 -0.6191  0.2834
 1192TIP3    H125067   5.832   0.437   5.833 -0.1284 -0.7996  0.1625
 1192TIP3    H225068   5.852   0.530   5.716 -2.8952  0.3142  0.5369
 1193TIP3   OH225069   6.092   1.497  12.312  0.4954  0.8361  0.5916
 1193TIP3    H125070   6.085   1.592  12.307  1.1163  1.0831  3.4776
 1193TIP3    H225071   6.098   1.478  12.406  0.0380 -2.0798  0.0896
 1194TIP3   OH225072   0.387   6.698  14.981 -0.7384  0.0251 -0.6509
 1194TIP3    H125073   0.381   6.699  15.076  3.3093  0.3799 -0.2939
 1194TIP3    H225074   0.444   6.623  14.961  0.8056  1.6240 -2.5455
 1195TIP3   OH225075   5.970   3.918   2.393  0.2051 -0.4163  0.1238
 1195TIP3    H125076   6.051   3.868   2.379 -1.2441 -3.0431  0.7493
 1195TIP3    H225077   5.906   3.852   2.418 -1.9635  1.7335  0.3679
 1196TIP3   OH225078   3.588   0.537  12.350 -0.4063  0.3535  0.0114
 1196TIP3    H125079   3.611   0.489  12.271 -0.4101  1.2830 -0.5522
 1196TIP3    H225080   3.672   0.562  12.388 -0.4029 -0.1352  0.3412
 1197TIP3   OH225081   0.658   6.174   4.459 -0.5800 -0.0665  0.0013
 1197TIP3    H125082   0.706   6.242   4.412  0.9873 -0.0315  1.6018
 1197TIP3    H225083   0.571   6.212   4.475 -0.1908  0.9974 -0.3747
 1198TIP3   OH225084   2.734   4.006  13.445 -0.6600 -0.5913 -0.8958
 1198TIP3    H125085   2.763   3.915  13.452 -2.0245 -1.2568 -3.0239
 1198TIP3    H225086   2.798   4.056  13.495  1.4945 -2.4572 -1.6834
 1199TIP3   OH225087   2.926   2.250   0.109  0.3229  0.1485 -0.1668
 1199TIP3    H125088   2.869   2.251   0.033 -0.9475  1.5253  0.7721
 1199TIP3    H225089   2.981   2.172   0.097 -1.4641 -0.9750 -1.2872
 1200TIP3   OH225090   1.711   3.145  15.435  0.0299  0.5275  0.4436
 1200TIP3    H125091   1.738   3.214  15.374 -0.6356  1.0680  0.7505
 1200TIP3    H225092   1.776   3.076  15.422 -0.5989  0.2648 -1.5080
 1201TIP3   OH225093   3.171   0.748  15.276 -0.0074  0.3791  0.0402
 1201TIP3    H125094   3.139   0.658  15.280 -0.9415  0.7365  0.9892
 1201TIP3    H225095   3.137   0.789  15.356  1.4459  1.2342  0.2367
 1202TIP3   OH225096   2.421   3.752  12.227 -0.0878 -0.0485 -0.2462
 1202TIP3    H125097   2.438   3.833  12.274 -3.6255 -0.3547  1.7267
 1202TIP3    H225098   2.392   3.781  12.140 -0.1347  0.7615  0.0343
 1203TIP3   OH225099   0.937   1.707   1.870 -0.0541  0.3648  0.4378
 1203TIP3    H125100   0.880   1.629   1.865  1.6934 -0.9328  0.3048
 1203TIP3    H225101   0.936   1.731   1.963 -0.5075  0.1100  0.5022
 1204TIP3   OH225102   5.080   2.879  14.251 -0.7944  0.6588 -0.4756
 1204TIP3    H125103   5.112   2.809  14.195  1.4102  2.5953 -1.7049
 1204TIP3    H225104   5.113   2.857  14.338 -0.5364 -0.0684 -0.7575
 1205TIP3   OH225105   5.010   3.137   3.447 -0.2157 -0.1554  0.0547
 1205TIP3    H125106   4.969   3.137   3.533 -0.0068  0.1049  0.1561
 1205TIP3    H225107   4.955   3.194   3.393 -0.5460 -0.6047 -0.0800
 1206TIP3   OH225108   1.403   4.469  15.638 -0.4736  0.6600 -0.0396
 1206TIP3    H125109   1.351   4.406  15.587 -1.1749  1.2812 -0.1010
 1206TIP3    H225110   1.484   4.478  15.588 -0.4294 -0.0865 -0.1054
 1207TIP3   OH225111   4.339   6.679   2.546  0.0306  0.1220  0.2463
 1207TIP3    H125112   4.328   6.656   2.638  0.4056 -1.1539 -0.0233
 1207TIP3    H225113   4.282   6.618   2.499  1.3668 -0.5693 -0.5118
 1208TIP3   OH225114   6.726   1.907   3.722 -0.1410 -0.4040  0.3706
 1208TIP3    H125115   6.711   1.909   3.628  0.1638  1.8051  0.3545
 1208TIP3    H225116   6.749   1.816   3.740  0.9494 -0.6173 -1.8714
 1209TIP3   OH225117   4.084   0.920  11.564  0.5630 -0.3566  0.3403
 1209TIP3    H125118   4.177   0.900  11.550  0.5716  0.5028 -1.0045
 1209TIP3    H225119   4.084   0.988  11.631  0.8919 -0.4570  0.4437
 1210TIP3   OH225120   3.806   5.896  13.635 -0.2649  0.2953 -0.2650
 1210TIP3    H125121   3.885   5.892  13.581  0.0106 -0.8640  0.2185
 1210TIP3    H225122   3.734   5.893  13.571  0.0711  0.8164 -0.6733
 1211TIP3   OH225123   2.829   2.715   4.545 -0.5431  1.0510  0.4718
 1211TIP3    H125124   2.874   2.686   4.625  0.0277  0.5709 -0.0161
 1211TIP3    H225125   2.891   2.696   4.475 -1.0362  1.4867 -0.0879
 1212TIP3   OH225126   5.310   3.758   6.462  0.1100 -0.7665 -0.1000
 1212TIP3    H125127   5.246   3.820   6.496  0.1934  0.2005 -1.6523
 1212TIP3    H225128   5.389   3.810   6.447  0.5490 -1.4837 -0.3416
 1213TIP3   OH225129   0.408   2.779  17.215 -0.3417 -0.2144 -0.0499
 1213TIP3    H125130   0.406   2.737  17.129 -1.1057 -0.8306  0.2548
 1213TIP3    H225131   0.353   2.857  17.205  0.0044  0.0022 -0.2626
 1214TIP3   OH225132   4.071   1.781   1.365  0.4160 -0.5038  0.5314
 1214TIP3    H125133   4.028   1.844   1.423 -0.0886 -0.9262  0.6272
 1214TIP3    H225134   4.049   1.810   1.277  0.2127 -0.5259  0.5749
 1215TIP3   OH225135   6.350   4.420  11.727 -0.4196 -0.0198 -0.7026
 1215TIP3    H125136   6.422   4.482  11.712 -0.4915  0.2648  0.0843
 1215TIP3    H225137   6.296   4.426  11.649 -1.1032  1.8313 -0.1130
 1216TIP3   OH225138   4.500   4.418  11.295 -0.0932  0.3920 -0.1599
 1216TIP3    H125139   4.445   4.435  11.218  0.1376 -1.7405 -0.8146
 1216TIP3    H225140   4.462   4.340  11.335  1.7276 -0.4016  0.0621
 1217TIP3   OH225141   0.054   3.763   2.446  0.3889  1.0786  0.2096
 1217TIP3    H125142   0.122   3.703   2.476 -0.7482 -0.5624 -0.4205
 1217TIP3    H225143   0.081   3.788   2.358 -0.5449 -0.6956 -0.5880
 1218TIP3   OH225144   1.337   2.695   2.494 -0.2894 -0.5870 -0.2352
 1218TIP3    H125145   1.318   2.731   2.580 -1.4125 -2.0138  0.1386
 1218TIP3    H225146   1.429   2.671   2.498  0.7833  3.1071 -0.8446
 1219TIP3   OH225147   1.901   2.085   1.399  0.1772 -0.2552  0.4394
 1219TIP3    H125148   1.913   2.086   1.304 -1.9271  1.1119  0.1683
 1219TIP3    H225149   1.807   2.072   1.411  0.6287 -1.9549  2.3767
 1220TIP3   OH225150   5.016   2.253  15.943 -0.1036  0.0826  0.8681
 1220TIP3    H125151   4.997   2.175  15.891  0.9930  0.2517  0.1931
 1220TIP3    H225152   5.016   2.324  15.880 -0.0235  0.4747  1.3084
 1221TIP3   OH225153   3.466   1.888  15.344  0.2478  0.7764  0.3481
 1221TIP3    H125154   3.492   1.796  15.349  0.0482  0.8091  3.3685
 1221TIP3    H225155   3.444   1.903  15.252  0.8336 -2.0310 -0.2788
 1222TIP3   OH225156   0.846   1.715   4.805 -0.7279 -0.5957 -0.2358
 1222TIP3    H125157   0.876   1.672   4.885 -0.6350 -3.6821 -1.8414
 1222TIP3    H225158   0.753   1.732   4.819 -0.9155 -1.9452  0.1899
 1223TIP3   OH225159   5.917   4.041   0.967 -0.2157  0.1428  1.0980
 1223TIP3    H125160   5.945   3.957   0.930  0.5916  0.9238 -0.1032
 1223TIP3    H225161   5.993   4.070   1.019  0.2633  1.0446 -0.0780
 1224TIP3   OH225162   2.536   1.243   0.272 -0.4260  0.2856 -0.3602
 1224TIP3    H125163   2.473   1.178   0.240 -0.6417  0.2487  0.1413
 1224TIP3    H225164   2.550   1.220   0.364  1.8758 -0.9689 -0.9653
 1225TIP3   OH225165   3.078   0.016  14.549  0.1184  0.2330 -0.0388
 1225TIP3    H125166   2.982   0.016  14.549  0.1162  0.8769 -0.8609
 1225TIP3    H225167   3.102  -0.069  14.513 -0.1564  0.5340 -0.9473
 1226TIP3   OH225168   0.773   1.208  12.271 -0.3688  0.5277 -0.1290
 1226TIP3    H125169   0.736   1.295  12.252  0.4100  0.7887 -0.4613
 1226TIP3    H225170   0.855   1.206  12.221 -1.1632 -1.0119 -1.3954
 1227TIP3   OH225171   4.443   1.279  13.191  0.2586 -0.4540 -0.2181
 1227TIP3    H125172   4.363   1.251  13.145  1.6286 -1.3478 -2.1215
 1227TIP3    H225173   4.422   1.365  13.226 -1.3855 -0.4843 -1.1063
 1228TIP3   OH225174   6.505   2.827   2.512  0.2692  0.4820  0.6838
 1228TIP3    H125175   6.424   2.879   2.509  0.4073  0.6309 -0.7715
 1228TIP3    H225176   6.567   2.881   2.560 -0.2898  0.6773  1.1844
 1229TIP3   OH225177   4.759   5.870  11.554  0.6586 -0.8614  0.6118
 1229TIP3    H125178   4.713   5.797  11.596 -3.3288  1.0172 -0.2037
 1229TIP3    H225179   4.779   5.930  11.626 -1.8898  0.1442  0.5519
 1230TIP3   OH225180   5.165   3.135  13.347  0.0869  0.5382 -0.2499
 1230TIP3    H125181   5.109   3.190  13.292  1.3398  0.7542 -1.3207
 1230TIP3    H225182   5.146   3.046  13.318  1.1927  0.6933 -1.4493
 1231TIP3   OH225183   3.582   5.697  12.026  0.0928  0.7245 -0.2044
 1231TIP3    H125184   3.600   5.688  11.932  1.7830 -2.5993  0.3350
 1231TIP3    H225185   3.668   5.709  12.065 -0.4468  0.5902  1.0450
 1232TIP3   OH225186   6.507   5.457  15.349  0.2529 -0.5820  0.0066
 1232TIP3    H125187   6.470   5.458  15.261  1.2603 -1.5357 -0.4457
 1232TIP3    H225188   6.587   5.510  15.342 -0.5799  0.8125  0.7827
 1233TIP3   OH225189   6.174   1.121   5.590 -0.0486  0.6669 -0.0016
 1233TIP3    H125190   6.125   1.091   5.514  1.1014  0.2327 -0.5772
 1233TIP3    H225191   6.265   1.103   5.569  0.4160  1.9574  0.8351
 1234TIP3   OH225192   6.818   1.944   5.072  0.1965 -0.4235  0.3892
 1234TIP3    H125193   6.882   1.941   5.000  0.8600 -1.3516  0.9957
 1234TIP3    H225194   6.798   2.036   5.082  2.0077 -0.0318  0.6542
 1235TIP3   OH225195   3.337   1.261  11.912 -0.0605 -0.3802  0.2344
 1235TIP3    H125196   3.378   1.258  11.825  0.3211 -1.4960  0.4542
 1235TIP3    H225197   3.376   1.188  11.960 -1.8271 -1.0682  0.6619
 1236TIP3   OH225198   3.278   3.326  14.200  0.0494  0.3439 -0.4063
 1236TIP3    H125199   3.188   3.298  14.213 -0.3171  1.5471 -0.3483
 1236TIP3    H225200   3.325   3.292  14.277 -0.0928 -1.3673 -1.0636
 1237TIP3   OH225201   1.825   5.982   1.994 -0.2984  0.3500 -0.0119
 1237TIP3    H125202   1.908   6.021   1.966 -0.9144  0.3873 -1.9139
 1237TIP3    H225203   1.851   5.902   2.040  0.8047  0.0700 -1.0750
 1238TIP3   OH225204   2.085   5.047   3.190  0.2273 -0.6601 -0.2617
 1238TIP3    H125205   2.017   5.077   3.251  1.0348  0.4975  0.0950
 1238TIP3    H225206   2.138   5.125   3.174 -0.0316 -0.9098 -2.5492
 1239TIP3   OH225207   0.294   5.105  16.847  1.1535  0.4401  0.4166
 1239TIP3    H125208   0.216   5.091  16.794  1.5948  1.9483 -0.6878
 1239TIP3    H225209   0.265   5.162  16.918  1.2443  1.0110 -0.0018
 1240TIP3   OH225210   0.706   6.224   0.639 -0.1590 -0.7837  0.4277
 1240TIP3    H125211   0.629   6.199   0.589  0.6844 -1.1893 -0.6921
 1240TIP3    H225212   0.719   6.317   0.618  0.0354 -0.8837  0.1094
 1241TIP3   OH225213   0.359   0.547   5.169 -0.4338  0.1112  0.0055
 1241TIP3    H125214   0.362   0.463   5.124 -1.1030 -0.8640  1.7577
 1241TIP3    H225215   0.266   0.572   5.167 -0.0559  1.4785 -1.6977
 1242TIP3   OH225216   5.498   3.230  15.558  0.6663  0.2768  0.3407
 1242TIP3    H125217   5.532   3.141  15.559 -1.1878 -0.4554  0.6316
 1242TIP3    H225218   5.575   3.285  15.541  2.2981 -1.1445  2.7553
 1243TIP3   OH225219   1.990   1.271   0.864 -0.7206 -0.2548 -0.9663
 1243TIP3    H125220   2.038   1.336   0.812 -0.2940  2.0427  2.1285
 1243TIP3    H225221   1.937   1.324   0.925 -0.2216 -2.7937  1.7771
 1244TIP3   OH225222   3.580   2.009   3.437  0.3306  0.1536 -0.3430
 1244TIP3    H125223   3.580   1.923   3.396 -1.5923  0.1288 -0.3458
 1244TIP3    H225224   3.553   2.069   3.367  0.2586  0.5569  0.0267
 1245TIP3   OH225225   0.385   2.397   3.996  0.1587  0.3706  0.2867
 1245TIP3    H125226   0.302   2.444   3.992  0.1305  0.5608  2.3359
 1245TIP3    H225227   0.451   2.465   3.994  0.2018  0.3381  0.5898
 1246TIP3   OH225228   3.025   0.978  11.086  0.0029 -0.1117  0.6409
 1246TIP3    H125229   2.960   0.979  11.016  0.5723  0.4167  0.1087
 1246TIP3    H225230   3.024   1.067  11.122  0.2044 -0.1866  0.8389
 1247TIP3   OH225231   6.310   1.130   1.977  0.4626 -0.4586  0.5190
 1247TIP3    H125232   6.296   1.191   2.049 -0.7415 -0.1471  0.0328
 1247TIP3    H225233   6.234   1.142   1.920  1.9451  0.0847 -1.3721
 1248TIP3   OH225234   3.380   2.268  13.002  0.5355 -0.5912 -0.2364
 1248TIP3    H125235   3.389   2.329  13.075  1.1241 -1.3845  0.3657
 1248TIP3    H225236   3.308   2.303  12.950  1.0014  0.7266 -0.0130
 1249TIP3   OH225237   3.172   0.974   1.242 -0.5658  0.0159  0.3943
 1249TIP3    H125238   3.261   0.958   1.212  0.3293  1.1137  2.3307
 1249TIP3    H225239   3.120   0.982   1.162  1.2385  0.2558 -0.7716
 1250TIP3   OH225240   5.726   5.623  12.828  0.0759  0.4783 -0.0442
 1250TIP3    H125241   5.811   5.667  12.832  0.7850 -0.9235  1.1288
 1250TIP3    H225242   5.664   5.692  12.806  1.3805  1.7410  0.1473
 1251TIP3   OH225243   5.673   5.670  12.451  0.4761 -0.3242  0.1264
 1251TIP3    H125244   5.654   5.763  12.467 -0.0529 -0.6262  1.3175
 1251TIP3    H225245   5.606   5.623  12.501 -1.8560 -1.3243 -3.8012
 1252TIP3   OH225246   1.508   3.541  13.651 -0.2925  1.1598 -0.1094
 1252TIP3    H125247   1.533   3.591  13.729 -1.3942  0.6013  0.6090
 1252TIP3    H225248   1.416   3.563  13.636 -1.1319 -1.4754  0.8799
 1253TIP3   OH225249   5.542   0.861  12.620 -0.0462 -0.6891 -0.3632
 1253TIP3    H125250   5.494   0.814  12.687 -0.4287 -2.2581 -1.6967
 1253TIP3    H225251   5.531   0.954  12.642 -1.2017 -1.1389  0.9929
 1254TIP3   OH225252   4.050   3.792  16.231 -0.4832 -0.0881  0.5581
 1254TIP3    H125253   4.123   3.776  16.171  0.4196  1.9561  1.0712
 1254TIP3    H225254   4.016   3.705  16.250  2.7110 -1.2407  1.3811
 1255TIP3   OH225255   6.169   0.631   2.521 -0.2098  0.0748 -0.3493
 1255TIP3    H125256   6.196   0.560   2.464 -0.2020 -0.0971 -0.1312
 1255TIP3    H225257   6.077   0.647   2.499  0.5376  1.8330 -2.3316
 1256TIP3   OH225258   2.034   4.151  12.881 -0.1655 -0.0390 -0.2144
 1256TIP3    H125259   1.976   4.227  12.868  0.9393  0.9812  0.7208
 1256TIP3    H225260   2.077   4.167  12.965  1.0183 -1.0820 -0.6017
 1257TIP3   OH225261   4.309   2.500  11.116  0.8772  0.1024 -0.1675
 1257TIP3    H125262   4.346   2.443  11.048 -0.4693  0.5289 -1.2725
 1257TIP3    H225263   4.378   2.564  11.134  1.6052 -0.6032 -0.4295
 1258TIP3   OH225264   4.998   6.435   4.906  0.6489  0.5066 -0.4069
 1258TIP3    H125265   5.032   6.522   4.925 -2.2539  1.5490  0.3288
 1258TIP3    H225266   4.991   6.392   4.991  0.5592  0.1453 -0.5958
 1259TIP3   OH225267   1.313   0.669   5.147 -0.0827 -0.1196 -0.2844
 1259TIP3    H125268   1.339   0.593   5.094  0.1838  0.1262 -0.5062
 1259TIP3    H225269   1.270   0.631   5.223  0.5826 -0.5220 -0.1030
 1260TIP3   OH225270   0.130   2.906   4.119 -0.0502  0.2840 -0.7682
 1260TIP3    H125271   0.191   2.976   4.143 -0.8936  0.9521 -0.5463
 1260TIP3    H225272   0.133   2.845   4.193 -0.3588  0.8034 -0.3209
 1261TIP3   OH225273   3.893   1.388   5.728 -0.1659  0.0794  0.4053
 1261TIP3    H125274   3.865   1.346   5.809  0.2058  0.0896  0.5404
 1261TIP3    H225275   3.978   1.348   5.709 -0.7495 -0.7452 -0.5680
 1262TIP3   OH225276   3.412   1.308   2.460  0.6184  0.2461  0.1913
 1262TIP3    H125277   3.382   1.269   2.378 -1.6739  1.5222  0.3764
 1262TIP3    H225278   3.454   1.236   2.507 -3.0541 -1.9439  0.3228
 1263TIP3   OH225279   3.660   3.500   2.312  0.2403 -0.2560  0.0106
 1263TIP3    H125280   3.589   3.485   2.374 -0.5864  0.7256 -0.6903
 1263TIP3    H225281   3.666   3.595   2.304  0.7369 -0.3580 -0.9546
 1264TIP3   OH225282   2.113   4.912  15.047 -0.2650  0.1986  0.5283
 1264TIP3    H125283   2.049   4.868  14.991 -0.1180 -1.9200  1.9534
 1264TIP3    H225284   2.121   5.000  15.010 -1.6755 -0.4950 -1.5211
 1265TIP3   OH225285   1.139   0.590  13.738 -0.0907 -0.1204 -0.4998
 1265TIP3    H125286   1.141   0.503  13.698  1.0970  0.9353 -2.7873
 1265TIP3    H225287   1.048   0.600  13.768  0.0001 -2.5244  0.7453
 1266TIP3   OH225288   5.228   3.123  13.015  0.2060  0.1384  0.3307
 1266TIP3    H125289   5.193   3.043  12.975 -1.1919  0.4613  0.8784
 1266TIP3    H225290   5.270   3.092  13.096 -0.0134 -0.0871  0.3590
 1267TIP3   OH225291   5.836   5.060   1.292 -0.3282  0.4912  0.3592
 1267TIP3    H125292   5.760   5.016   1.254  1.3589 -2.9917  0.8204
 1267TIP3    H225293   5.907   5.044   1.230  0.1328  3.6740 -0.0467
 1268TIP3   OH225294   5.809   4.722  11.157  0.3773  0.4339  0.8341
 1268TIP3    H125295   5.851   4.636  11.151  0.8161  0.6980  0.0422
 1268TIP3    H225296   5.867   4.773  11.213  1.0208  0.7443 -0.1156
 1269TIP3   OH225297   1.812   1.003  15.037  0.7443  0.3942  0.1378
 1269TIP3    H125298   1.895   1.040  15.005  0.7986 -0.3832 -0.6252
 1269TIP3    H225299   1.834   0.914  15.063  0.5466  0.8043  1.7293
 1270TIP3   OH225300   5.982   3.773  15.338 -0.5726 -0.9380 -0.6578
 1270TIP3    H125301   6.037   3.721  15.397 -0.9105 -0.2958  0.2371
 1270TIP3    H225302   6.000   3.864  15.362 -1.1087 -0.6859 -1.1915
 1271TIP3   OH225303   3.029   0.616   5.258 -0.0527 -0.3144  0.3769
 1271TIP3    H125304   2.933   0.625   5.258 -0.1333 -1.1681  0.1537
 1271TIP3    H225305   3.046   0.535   5.210  0.7600 -0.4376  0.8582
 1272TIP3   OH225306   1.750   1.580  11.010  0.4761 -0.8865  0.0652
 1272TIP3    H125307   1.845   1.583  11.025  0.5123 -1.9303  0.0573
 1272TIP3    H225308   1.736   1.501  10.959 -0.2299  0.0729 -1.2519
 1273TIP3   OH225309   6.510   0.366   1.858 -0.3019  0.0892  0.3125
 1273TIP3    H125310   6.529   0.404   1.772 -0.3847  1.4050  0.8710
 1273TIP3    H225311   6.584   0.390   1.913 -0.4502 -0.3896  0.7310
 1274TIP3   OH225312   4.008   6.208  10.533 -0.1697  0.5145 -0.6996
 1274TIP3    H125313   4.017   6.213  10.438  0.3597  0.2429 -0.6651
 1274TIP3    H225314   3.914   6.214  10.549 -0.2739  0.3052 -1.2553
 1275TIP3   OH225315   4.342   0.164  16.684 -0.1455  0.5101 -0.4866
 1275TIP3    H125316   4.256   0.130  16.706 -1.0529  1.8768 -1.8749
 1275TIP3    H225317   4.335   0.193  16.593  1.5319  1.3570 -0.3763
 1276TIP3   OH225318   2.987   0.198  17.139  0.0973 -0.0600  0.3761
 1276TIP3    H125319   2.928   0.139  17.092 -1.9221  1.9460  0.3199
 1276TIP3    H225320   3.039   0.240  17.070 -1.4709  1.3944  0.0488
 1277TIP3   OH225321   3.847   3.598   1.062 -0.1818 -0.4789  0.4698
 1277TIP3    H125322   3.870   3.687   1.091 -0.4517 -0.2443 -0.0371
 1277TIP3    H225323   3.925   3.567   1.018 -0.4947 -0.0481 -0.3926
 1278TIP3   OH225324   5.923   6.236  11.517 -0.1904  0.1559  0.1325
 1278TIP3    H125325   5.876   6.198  11.443 -0.2114  0.2554  0.0944
 1278TIP3    H225326   5.855   6.253  11.582 -0.4569  1.8924 -0.5839
 1279TIP3   OH225327   3.610   1.955   5.793 -0.1933 -0.2795 -1.0083
 1279TIP3    H125328   3.614   1.971   5.698 -2.0613 -0.4494 -1.1372
 1279TIP3    H225329   3.556   1.877   5.802  2.0646 -1.7649  0.0915
 1280TIP3   OH225330   2.087   5.197  14.296  0.2721 -0.8050  0.0390
 1280TIP3    H125331   2.003   5.235  14.271  1.2159  0.6594 -0.9737
 1280TIP3    H225332   2.090   5.113  14.250 -0.1379 -0.3386 -0.8422
 1281TIP3   OH225333   2.707   3.530   0.395  0.5503 -0.3009 -0.8099
 1281TIP3    H125334   2.735   3.508   0.484  0.8899  0.8662 -0.6256
 1281TIP3    H225335   2.731   3.453   0.343  2.7808  0.0706 -0.3824
 1282TIP3   OH225336   6.343   3.764   6.431  0.2056  0.3793  0.8206
 1282TIP3    H125337   6.253   3.752   6.459 -0.1204 -0.1957 -0.4162
 1282TIP3    H225338   6.394   3.707   6.489 -0.6292 -2.0205 -0.6951
 1283TIP3   OH225339   2.912   3.376   1.280  0.4852 -0.1667  0.2384
 1283TIP3    H125340   2.963   3.392   1.360 -0.2683  0.5401  0.5885
 1283TIP3    H225341   2.822   3.397   1.305 -0.0871 -2.0681 -0.1836
 1284TIP3   OH225342   2.019   6.229  13.560 -0.0908  0.0032 -0.0989
 1284TIP3    H125343   2.028   6.236  13.655 -0.8462 -2.1152  0.1702
 1284TIP3    H225344   1.963   6.152  13.547 -0.8362  0.8517 -2.2329
 1285TIP3   OH225345   0.309   4.450   5.758  0.3601  0.2434  0.8950
 1285TIP3    H125346   0.401   4.453   5.734  0.0057 -0.6664 -0.6065
 1285TIP3    H225347   0.291   4.357   5.774 -0.2397  0.4421  1.4106
 1286TIP3   OH225348   5.559   3.121  14.234  0.3687  0.1153  0.0163
 1286TIP3    H125349   5.649   3.089  14.239  0.5272  0.9012  2.7335
 1286TIP3    H225350   5.527   3.089  14.150  3.3237  0.2029 -1.1986
 1287TIP3   OH225351   0.628   1.726  17.035  0.0566  0.1551  0.0997
 1287TIP3    H125352   0.557   1.790  17.037 -1.7679 -1.7861 -0.7153
 1287TIP3    H225353   0.665   1.729  17.124 -0.9066  1.3254  0.4775
 1288TIP3   OH225354   6.071   1.532   3.220 -0.0105 -0.4466 -0.1935
 1288TIP3    H125355   6.036   1.469   3.157  0.3971  0.9594 -1.8542
 1288TIP3    H225356   6.160   1.550   3.190  0.0455  0.5616  0.5423
 1289TIP3   OH225357   5.743   2.161   2.996  0.2016  0.0133  0.5239
 1289TIP3    H125358   5.812   2.096   2.981  0.7633  0.2871  1.8434
 1289TIP3    H225359   5.750   2.182   3.089 -0.7538  1.0822  0.3622
 1290TIP3   OH225360   6.036   1.270  12.142  0.0567  0.8058  0.4399
 1290TIP3    H125361   6.032   1.285  12.047 -3.5135 -0.4113  0.2927
 1290TIP3    H225362   6.032   1.358  12.180 -0.6758  1.2265 -0.5532
 1291TIP3   OH225363   1.166   6.011   3.931 -0.4329 -0.0311 -0.0142
 1291TIP3    H125364   1.102   5.999   3.862 -0.0701 -0.2053 -0.3219
 1291TIP3    H225365   1.221   5.933   3.927 -0.8094 -0.3535  0.9001
 1292TIP3   OH225366   4.258   5.102   0.397 -0.4162 -0.5109 -0.0402
 1292TIP3    H125367   4.173   5.057   0.393  0.4248 -2.1851  0.2769
 1292TIP3    H225368   4.294   5.078   0.483 -0.0720  1.0302  0.2545
 1293TIP3   OH225369   5.863   3.123  15.518 -0.2563 -0.1096  0.0324
 1293TIP3    H125370   5.824   3.208  15.535  0.6828  0.4289 -0.4343
 1293TIP3    H225371   5.934   3.116  15.582 -1.1142 -1.0885  0.8952
 1294TIP3   OH225372   6.001   1.226   3.529  0.3047  0.3937  0.4433
 1294TIP3    H125373   5.911   1.257   3.540  0.0810 -0.8572  2.2073
 1294TIP3    H225374   6.051   1.273   3.596  0.6496 -0.2203  0.6188
 1295TIP3   OH225375   4.442   6.340  11.678 -0.6680  0.6022 -0.0071
 1295TIP3    H125376   4.437   6.264  11.736  0.7788  0.5423  0.0484
 1295TIP3    H225377   4.396   6.312  11.598  0.2082 -0.4748 -0.1367
 1296TIP3   OH225378   4.747   2.405  16.526  0.1477  0.2371  0.0266
 1296TIP3    H125379   4.824   2.454  16.495 -0.3346  1.1094  0.1851
 1296TIP3    H225380   4.777   2.363  16.607  0.2338  1.2094  0.5091
 1297TIP3   OH225381   6.361   0.662  15.093 -0.1331 -0.3214 -0.7069
 1297TIP3    H125382   6.355   0.702  15.180  4.2487 -0.3428 -0.3254
 1297TIP3    H225383   6.362   0.568  15.110  0.9076 -0.3221 -0.7367
 1298TIP3   OH225384   4.920   0.374  16.157 -0.3071 -0.4747 -0.0046
 1298TIP3    H125385   4.900   0.284  16.130 -0.2403 -0.4184 -0.2426
 1298TIP3    H225386   4.923   0.370  16.253  1.5603 -1.1111 -0.0736
 1299TIP3   OH225387   2.554   2.717   4.458 -0.1930  0.3777 -0.0181
 1299TIP3    H125388   2.561   2.811   4.439  0.7004  0.1687 -0.7567
 1299TIP3    H225389   2.639   2.694   4.495  0.2208 -0.4939 -1.4623
 1300TIP3   OH225390   3.744   6.446  15.702 -0.0217 -0.4473  0.6106
 1300TIP3    H125391   3.805   6.505  15.659 -1.5031  1.4687  1.0830
 1300TIP3    H225392   3.789   6.419  15.782  0.6289  0.1231  0.4416
 1301TIP3   OH225393   3.044   5.136   0.593 -0.6250  0.0123 -0.5675
 1301TIP3    H125394   3.096   5.096   0.523  0.4727 -0.8574  0.7111
 1301TIP3    H225395   2.980   5.069   0.617  0.4144 -0.5665  0.7236
 1302TIP3   OH225396   5.154   0.226   2.243 -0.3180  0.0044  0.3252
 1302TIP3    H125397   5.157   0.227   2.339  1.4393  0.0577  0.2938
 1302TIP3    H225398   5.183   0.314   2.218  1.3931 -0.7011 -0.2603
 1303TIP3   OH225399   4.313   2.931   0.887  0.5547 -0.8284  0.6655
 1303TIP3    H125400   4.396   2.885   0.902 -0.8512 -3.5544  0.2505
 1303TIP3    H225401   4.290   2.966   0.973  0.9451 -2.1194  1.3122
 1304TIP3   OH225402   1.876   6.008   3.016  0.6394  0.1023 -0.0221
 1304TIP3    H125403   1.892   5.913   3.018 -1.4300 -0.2726  0.2761
 1304TIP3    H225404   1.871   6.033   3.108 -0.8778  0.1030 -0.0878
 1305TIP3   OH225405   4.435   0.304  14.039  0.8292 -0.6959  0.3599
 1305TIP3    H125406   4.360   0.253  14.010  0.4361  0.7635 -1.2196
 1305TIP3    H225407   4.491   0.240  14.083 -0.7449 -2.0304  0.4716
 1306TIP3   OH225408   2.889   0.556  15.552 -0.1287 -0.4804  0.0197
 1306TIP3    H125409   2.809   0.550  15.604 -0.8994 -2.3714 -1.3064
 1306TIP3    H225410   2.859   0.586  15.466  0.6438 -0.7062 -0.3376
 1307TIP3   OH225411   4.552   3.819  13.495  0.2008  0.3431 -0.0190
 1307TIP3    H125412   4.525   3.903  13.459  0.0234  0.1469 -0.3457
 1307TIP3    H225413   4.648   3.822  13.494  0.2029  1.5864  2.4254
 1308TIP3   OH225414   3.294   0.559  11.942 -0.0636  0.1230 -0.6211
 1308TIP3    H125415   3.355   0.492  11.974 -0.0749  1.0867  1.5401
 1308TIP3    H225416   3.350   0.634  11.921 -0.3294  0.4966 -0.0380
 1309TIP3   OH225417   4.009   1.814  11.900  0.0147 -0.0972  0.3973
 1309TIP3    H125418   4.001   1.803  11.806  0.4057 -1.0466  0.4727
 1309TIP3    H225419   4.090   1.769  11.924 -0.1981 -0.0659  1.2208
 1310TIP3   OH225420   0.540   3.999   1.389 -0.1946  0.7776  0.1772
 1310TIP3    H125421   0.475   4.050   1.437  0.6374  0.3532  1.7929
 1310TIP3    H225422   0.539   3.913   1.431  0.7807  0.4949 -0.3516
 1311TIP3   OH225423   5.913   3.374  11.858 -0.0035 -0.4694 -0.3792
 1311TIP3    H125424   5.893   3.466  11.875  1.1125 -0.1553 -0.7034
 1311TIP3    H225425   6.009   3.369  11.866 -0.1316 -1.7726  0.4584
 1312TIP3   OH225426   4.660   1.335   1.983  0.2405 -0.3544  0.1471
 1312TIP3    H125427   4.658   1.239   1.982  3.7158 -0.4905  0.1650
 1312TIP3    H225428   4.731   1.358   1.923 -0.7491  2.2419 -0.0963
 1313TIP3   OH225429   6.186   6.105   3.921 -0.0231  0.0275  0.2902
 1313TIP3    H125430   6.246   6.098   3.995 -0.4599  0.0519  0.6476
 1313TIP3    H225431   6.149   6.193   3.929  0.3035  0.2184 -0.2463
 1314TIP3   OH225432   6.775   6.050   3.285  0.3192  0.5042 -0.0309
 1314TIP3    H125433   6.793   6.099   3.365  2.5876 -0.4708  0.1022
 1314TIP3    H225434   6.847   6.074   3.226  0.4956 -1.3008 -0.5812
 1315TIP3   OH225435   5.818   2.189  10.870 -0.3798  0.0505  0.5181
 1315TIP3    H125436   5.812   2.223  10.959 -2.1538 -0.7284  0.7122
 1315TIP3    H225437   5.842   2.265  10.817  0.1923  0.6198  1.5874
 1316TIP3   OH225438   2.594   0.365   1.683 -0.0576 -0.3745  0.3352
 1316TIP3    H125439   2.580   0.450   1.725 -0.5959 -0.4748  0.3697
 1316TIP3    H225440   2.661   0.323   1.735 -0.0115 -0.0930  0.5039
 1317TIP3   OH225441   1.953   3.495   3.799 -0.2153 -0.0094 -0.2646
 1317TIP3    H125442   1.995   3.447   3.728  0.0158 -0.8139  0.4117
 1317TIP3    H225443   1.866   3.456   3.808 -0.1148 -0.1458  0.1291
 1318TIP3   OH225444   5.653   4.874   1.200  0.4104 -0.4106 -0.2034
 1318TIP3    H125445   5.631   4.787   1.168  2.0813 -1.0797  0.4371
 1318TIP3    H225446   5.625   4.933   1.130 -2.1707 -1.3080  0.0248
 1319TIP3   OH225447   4.082   5.989  13.882 -0.2427  0.3219  0.3020
 1319TIP3    H125448   4.068   5.946  13.798 -0.7511  1.0422  0.0047
 1319TIP3    H225449   4.172   5.966  13.907  0.3013  1.0035 -0.9851
 1320TIP3   OH225450   1.985   3.996   6.150  0.0511 -0.5171 -0.1644
 1320TIP3    H125451   1.925   4.069   6.131  1.9689  1.1643  0.1308
 1320TIP3    H225452   2.009   4.007   6.242 -0.5743 -2.2457  0.2288
 1321TIP3   OH225453   3.098   2.497   0.298 -0.4257  0.1861  0.2853
 1321TIP3    H125454   3.170   2.489   0.361  0.1060 -0.9308 -0.4550
 1321TIP3    H225455   3.129   2.450   0.221 -0.3436  3.0716 -1.4806
 1322TIP3   OH225456   5.571   0.360  17.029  0.8226 -0.4205  0.7659
 1322TIP3    H125457   5.544   0.275  17.064  0.0790 -0.1150  0.9466
 1322TIP3    H225458   5.559   0.421  17.101  1.5338 -0.1876  0.6926
 1323TIP3   OH225459   1.686   0.705   5.914  0.7328  0.6597  0.3600
 1323TIP3    H125460   1.717   0.715   5.824  0.5622 -0.2558  0.1977
 1323TIP3    H225461   1.765   0.683   5.964  0.7675  0.8176  0.3747
 1324TIP3   OH225462   0.390   2.234  14.638  0.0021  0.2220  0.1915
 1324TIP3    H125463   0.318   2.172  14.622  0.6179  0.0397 -1.9301
 1324TIP3    H225464   0.358   2.288  14.711 -1.7446 -0.7006  0.1502
 1325TIP3   OH225465   4.341   1.774  16.286  0.1795 -0.2980  0.3661
 1325TIP3    H125466   4.277   1.708  16.259 -1.8601  0.2907  3.5080
 1325TIP3    H225467   4.367   1.748  16.374  0.9843  1.8932  0.8073
 1326TIP3   OH225468   3.052   2.166   6.545 -0.2473 -0.1936 -0.0997
 1326TIP3    H125469   3.116   2.202   6.605 -0.7512  1.9027 -0.7726
 1326TIP3    H225470   3.076   2.201   6.459 -2.3597  0.8069 -0.3370
 1327TIP3   OH225471   1.576   1.064   4.477  0.0282 -0.3157 -0.0901
 1327TIP3    H125472   1.596   1.112   4.397 -1.4873 -1.3040 -1.0954
 1327TIP3    H225473   1.480   1.058   4.478  0.0054 -0.0192  1.9752
 1328TIP3   OH225474   3.198   1.720   1.098 -0.2061 -0.0360 -0.5406
 1328TIP3    H125475   3.121   1.770   1.070  0.0225  0.7060  0.1677
 1328TIP3    H225476   3.206   1.737   1.191  1.7366  1.1306 -0.8929
 1329TIP3   OH225477   4.472   4.378  15.302  0.2859 -0.4988 -0.0058
 1329TIP3    H125478   4.456   4.320  15.228  0.3825 -0.9780  0.3515
 1329TIP3    H225479   4.387   4.384  15.346  0.1279  0.1010 -0.3736
 1330TIP3   OH225480   6.461   4.730  17.061  0.1635 -0.5236  0.2768
 1330TIP3    H125481   6.444   4.691  16.975  2.0115 -1.6409  0.3926
 1330TIP3    H225482   6.492   4.818  17.041  0.6072 -0.7879 -0.2085
 1331TIP3   OH225483   5.745   4.492  15.775  0.1260 -0.1260 -0.4414
 1331TIP3    H125484   5.818   4.518  15.717  1.0115 -0.2230  0.6154
 1331TIP3    H225485   5.689   4.569  15.779  0.1181 -0.0729 -1.3252
 1332TIP3   OH225486   3.616   6.750  15.229 -0.4190 -1.3540  0.1427
 1332TIP3    H125487   3.651   6.825  15.182 -0.0045 -1.3635  0.4371
 1332TIP3    H225488   3.628   6.771  15.322 -1.4818 -1.2116  0.2581
 1333TIP3   OH225489   0.372   5.262   6.097 -0.2219  0.0558 -0.2647
 1333TIP3    H125490   0.279   5.271   6.117 -0.5067  0.0629 -1.5337
 1333TIP3    H225491   0.382   5.170   6.070  0.3052 -0.1679  0.6572
 1334TIP3   OH225492   1.794   1.005  11.940  0.2036  0.4031  1.1052
 1334TIP3    H125493   1.792   0.911  11.920  1.3461  0.6027 -0.0199
 1334TIP3    H225494   1.886   1.023  11.961 -0.1731  1.1032  2.2032
 1335TIP3   OH225495   4.548   4.546  13.967  0.2667  0.4035 -0.9075
 1335TIP3    H125496   4.471   4.502  14.004  1.7573 -0.2630  1.5604
 1335TIP3    H225497   4.609   4.474  13.946  0.3122  0.9304 -2.6902
 1336TIP3   OH225498   2.075   5.350  11.490  0.0642 -0.1042 -0.4342
 1336TIP3    H125499   2.062   5.444  11.479  1.4858  0.6405  3.3177
 1336TIP3    H225500   2.170   5.339  11.485 -0.0535 -1.2299 -0.2110
 1337TIP3   OH225501   1.702   0.153   6.695  0.0354 -0.2222 -0.2546
 1337TIP3    H125502   1.761   0.151   6.620  0.3043 -0.3510 -0.0435
 1337TIP3    H225503   1.687   0.061   6.717 -3.0882 -0.3116 -2.4883
 1338TIP3   OH225504   5.390   4.398   4.360 -0.4755 -0.4653  0.6533
 1338TIP3    H125505   5.456   4.409   4.292 -0.5429 -2.1824  0.2767
 1338TIP3    H225506   5.321   4.461   4.338 -0.3180 -0.7370 -0.6502
 1339TIP3   OH225507   6.782   1.848  11.464  0.1723  0.1227  0.4448
 1339TIP3    H125508   6.835   1.927  11.463 -2.3708  1.9333  2.1148
 1339TIP3    H225509   6.726   1.855  11.387  1.4555 -1.1804 -0.6347
 1340TIP3   OH225510   0.371   1.616  15.722  0.1974  0.3944  0.7128
 1340TIP3    H125511   0.350   1.709  15.709  0.3659  0.0497 -2.3354
 1340TIP3    H225512   0.365   1.578  15.635  2.7311 -1.9390  1.4965
 1341TIP3   OH225513   2.815   0.897  13.590  0.4602  0.5612 -0.4537
 1341TIP3    H125514   2.843   0.979  13.631  0.9182  0.8525 -1.3218
 1341TIP3    H225515   2.806   0.920  13.497  0.0707 -0.2406 -0.6127
 1342TIP3   OH225516   4.085   0.536  14.601 -0.2792 -0.2535 -0.0558
 1342TIP3    H125517   4.005   0.583  14.580  0.9280  1.2398 -1.3963
 1342TIP3    H225518   4.126   0.518  14.516 -0.1714 -2.7953  0.4775
 1343TIP3   OH225519   4.221   2.024  16.582 -0.6156 -0.3123 -0.3553
 1343TIP3    H125520   4.179   2.076  16.651  0.7081  1.6489 -0.9765
 1343TIP3    H225521   4.237   2.087  16.511  0.3037 -1.7536 -1.4421
 1344TIP3   OH225522   2.335   2.507   3.981  0.1889  1.1836  0.0690
 1344TIP3    H125523   2.258   2.558   3.958 -0.2882  0.6539  0.4643
 1344TIP3    H225524   2.400   2.529   3.915 -0.4978  1.2007 -0.6012
 1345TIP3   OH225525   2.487   2.722  16.912 -0.2019 -0.8096 -0.5582
 1345TIP3    H125526   2.457   2.811  16.894  0.0099 -0.5220  0.5165
 1345TIP3    H225527   2.412   2.666  16.889 -1.0055 -0.2143  0.6259
 1346TIP3   OH225528   2.751   0.028  14.842  0.5077  1.2457 -0.6392
 1346TIP3    H125529   2.656   0.019  14.841  0.7626 -2.1792  0.6016
 1346TIP3    H225530   2.767   0.101  14.902 -1.2398 -0.9514  2.7158
 1347TIP3   OH225531   4.079   4.987  12.526  0.1544  0.1746  0.9490
 1347TIP3    H125532   4.155   4.940  12.492 -0.9886 -1.7623  1.0105
 1347TIP3    H225533   4.078   4.967  12.619 -0.0672  0.7410  1.0718
 1348TIP3   OH225534   4.127   0.493  11.680  0.2378  0.0382 -0.8429
 1348TIP3    H125535   4.127   0.562  11.614  3.1336  1.8384  0.9064
 1348TIP3    H225536   4.176   0.530  11.754  0.9427 -3.4806  0.5937
 1349TIP3   OH225537   3.396   6.764  12.165  0.4762  0.3367  0.1607
 1349TIP3    H125538   3.451   6.735  12.237  0.1298  0.4227  0.4607
 1349TIP3    H225539   3.382   6.686  12.112  0.4593  0.1992  0.3670
 1350TIP3   OH225540   4.414   0.976   0.233 -0.1450 -0.3654 -0.0413
 1350TIP3    H125541   4.397   1.019   0.316  0.2528 -0.7968  0.2698
 1350TIP3    H225542   4.355   0.901   0.233  0.5273 -0.9026  0.2817
 1351TIP3   OH225543   2.916   5.034   4.292 -0.2012 -0.1013 -0.6237
 1351TIP3    H125544   2.867   4.952   4.294 -1.9545  0.8989 -0.8252
 1351TIP3    H225545   2.857   5.098   4.333  1.7263  0.7579  0.9181
 1352TIP3   OH225546   1.940   5.915  16.119 -0.5967  0.2354  0.2815
 1352TIP3    H125547   1.896   6.000  16.125 -0.2174  0.4515  0.0668
 1352TIP3    H225548   1.874   5.851  16.144 -0.1634  0.7745  2.9336
 1353TIP3   OH225549   6.048   1.777  11.622 -0.2423 -0.3405 -0.3099
 1353TIP3    H125550   5.977   1.794  11.684  2.5696  1.2418  2.6239
 1353TIP3    H225551   6.081   1.690  11.647  1.3589  0.6033  0.9475
 1354TIP3   OH225552   3.387   2.752   1.981 -0.2156  0.0541 -0.4566
 1354TIP3    H125553   3.305   2.802   1.984 -0.4913 -0.3354 -1.2225
 1354TIP3    H225554   3.363   2.666   2.016 -0.0947 -0.0089 -0.5314
 1355TIP3   OH225555   0.487   6.783  11.422 -0.5833  0.4940 -0.6207
 1355TIP3    H125556   0.424   6.827  11.365 -0.7769  2.6730  1.2037
 1355TIP3    H225557   0.439   6.767  11.503  0.4792 -0.0914 -0.0988
 1356TIP3   OH225558   2.354   6.725   2.532  0.7240 -0.0685  0.6301
 1356TIP3    H125559   2.275   6.670   2.529  0.2694  0.3820  3.4054
 1356TIP3    H225560   2.426   6.662   2.523  0.1376 -0.8813  1.4340
 1357TIP3   OH225561   6.460   0.520  13.495 -0.6140  0.1162  0.0462
 1357TIP3    H125562   6.486   0.471  13.573  0.1305  1.9016  0.9198
 1357TIP3    H225563   6.487   0.464  13.422 -0.0100 -0.8933  1.0340
 1358TIP3   OH225564   5.002   4.752  16.581  0.1259  0.1087 -0.1684
 1358TIP3    H125565   5.077   4.694  16.596 -0.0894 -0.5117 -1.4108
 1358TIP3    H225566   4.989   4.751  16.486  0.2159  2.3415 -0.2221
 1359TIP3   OH225567   6.763   3.193  14.377  0.3889  0.0116 -0.2763
 1359TIP3    H125568   6.709   3.160  14.306 -0.3006 -0.5088  0.4902
 1359TIP3    H225569   6.824   3.122  14.396  1.9473  0.9188 -1.7334
 1360TIP3   OH225570   3.447   0.632  13.335 -0.4882  0.3904  0.1367
 1360TIP3    H125571   3.391   0.555  13.348  0.9814 -0.6670  0.4552
 1360TIP3    H225572   3.510   0.604  13.269  0.6401  0.9864  0.9444
 1361TIP3   OH225573   2.909   5.451  14.730  0.2224 -0.1415  0.6819
 1361TIP3    H125574   2.852   5.506  14.784  1.2470  0.0563  1.6092
 1361TIP3    H225575   2.938   5.381  14.790  0.3921 -0.6308  0.0363
 1362TIP3   OH225576   3.330   1.542   2.123 -0.1323  0.1622 -0.1339
 1362TIP3    H125577   3.398   1.600   2.156 -0.2685  0.1959  0.0854
 1362TIP3    H225578   3.355   1.525   2.032  0.9955 -1.0293  0.3756
 1363TIP3   OH225579   2.260   3.417   2.697  0.1820 -1.0310  0.3173
 1363TIP3    H125580   2.333   3.479   2.692  0.5556 -1.5213 -0.3771
 1363TIP3    H225581   2.251   3.397   2.790  0.6361 -0.6198  0.4483
 1364TIP3   OH225582   1.577   6.408  15.740  0.5480  0.3093  0.0523
 1364TIP3    H125583   1.632   6.350  15.793 -0.3618  0.8314  1.5739
 1364TIP3    H225584   1.613   6.496  15.757 -0.7651  0.6579  1.0902
 1365TIP3   OH225585   0.175   4.911  13.678 -0.1454 -0.0027  0.1827
 1365TIP3    H125586   0.267   4.897  13.654 -0.2647 -1.1400  0.3792
 1365TIP3    H225587   0.149   4.832  13.725 -2.2290 -1.2562 -2.8994
 1366TIP3   OH225588   6.722   2.657  17.112 -0.1007  0.1919  0.2033
 1366TIP3    H125589   6.662   2.589  17.081 -0.6445  0.6912  0.1436
 1366TIP3    H225590   6.688   2.681  17.199 -1.8841  2.6968 -1.1281
 1367TIP3   OH225591   0.620   1.335   5.896  0.1816  0.1095 -0.2795
 1367TIP3    H125592   0.706   1.321   5.856  1.0672  2.5899  0.6371
 1367TIP3    H225593   0.630   1.303   5.986 -0.0250 -0.0718 -0.3203
 1368TIP3   OH225594   6.294   1.546  16.217 -0.4940  0.2086 -0.5265
 1368TIP3    H125595   6.380   1.534  16.176 -0.4938  0.3327 -0.5592
 1368TIP3    H225596   6.309   1.607  16.289 -0.4147 -0.3300 -0.0748
 1369TIP3   OH225597   4.862   1.715  16.886  0.3730 -0.2265  0.3101
 1369TIP3    H125598   4.790   1.654  16.871  0.8833 -0.4798 -1.1712
 1369TIP3    H225599   4.916   1.673  16.953 -0.1690 -0.6254  0.5001
 1370TIP3   OH225600   0.993   3.445  14.806  0.0610  0.4184 -0.6404
 1370TIP3    H125601   0.899   3.425  14.801 -0.5224  3.1521 -1.6815
 1370TIP3    H225602   1.002   3.495  14.887  0.0780  2.5840 -1.9265
 1371TIP3   OH225603   6.667   2.496   1.485 -0.2097  0.7702 -0.4619
 1371TIP3    H125604   6.669   2.546   1.403 -0.1796  1.0522 -0.2885
 1371TIP3    H225605   6.746   2.443   1.482 -0.0349  1.0281 -0.4617
 1372TIP3   OH225606   5.777   3.332   4.678  0.1543  0.3255  0.6370
 1372TIP3    H125607   5.694   3.347   4.723  0.1356  0.6615  0.4892
 1372TIP3    H225608   5.766   3.373   4.593  0.4356  0.2789  0.5785
 1373TIP3   OH225609   5.445   0.809   6.692  0.5267  0.3977  0.0018
 1373TIP3    H125610   5.467   0.741   6.629 -1.5043  0.5462 -0.8993
 1373TIP3    H225611   5.351   0.800   6.706  0.1614  3.1842 -0.3627
 1374TIP3   OH225612   4.363   0.049   0.108 -0.4754  0.1241  0.5033
 1374TIP3    H125613   4.418   0.048   0.029 -0.0539 -2.2385  0.7881
 1374TIP3    H225614   4.366   0.140   0.138  0.9317  0.6432 -1.1255
 1375TIP3   OH225615   2.366   4.107   5.939 -0.0560  0.8062  0.0482
 1375TIP3    H125616   2.309   4.183   5.927  0.5706  1.1893 -0.5436
 1375TIP3    H225617   2.426   4.132   6.008 -0.9509  0.1948  1.0548
 1376TIP3   OH225618   2.794   4.409   3.572  0.0831  0.4852 -0.0505
 1376TIP3    H125619   2.719   4.362   3.536 -0.2829  0.3452  0.8832
 1376TIP3    H225620   2.771   4.502   3.562 -0.5742  0.4469  0.9329
 1377TIP3   OH225621   3.564   4.637  11.236  0.5780  0.6557  0.3745
 1377TIP3    H125622   3.658   4.636  11.219  0.4039  0.7716 -0.6670
 1377TIP3    H225623   3.529   4.697  11.170 -0.0885  1.5471  1.5286
 1378TIP3   OH225624   1.327   0.963  16.667  0.3801 -0.2108 -0.2101
 1378TIP3    H125625   1.266   0.949  16.595  0.1793 -1.3435  0.1642
 1378TIP3    H225626   1.346   1.056  16.665 -0.8267  0.0287 -0.7571
 1379TIP3   OH225627   3.029   1.288  14.836  0.1877  0.2366  0.2284
 1379TIP3    H125628   2.967   1.221  14.863  0.3829  0.3680  1.0338
 1379TIP3    H225629   3.021   1.356  14.904 -0.0391  1.0438 -0.5961
 1380TIP3   OH225630   5.818   4.301  13.246  0.6705 -0.1603  0.3544
 1380TIP3    H125631   5.888   4.300  13.312 -0.0160 -1.3317  1.0933
 1380TIP3    H225632   5.746   4.347  13.289  0.4145 -0.4414  0.2259
 1381TIP3   OH225633   5.738   5.393   1.995  0.2544 -0.2499  0.3363
 1381TIP3    H125634   5.833   5.397   2.008  0.2927  0.7306 -0.2342
 1381TIP3    H225635   5.728   5.343   1.914  0.1581 -2.7972  1.8330
 1382TIP3   OH225636   0.529   3.465  12.661 -0.7162 -1.5489 -0.1079
 1382TIP3    H125637   0.474   3.393  12.692 -2.3749  0.0007  0.5556
 1382TIP3    H225638   0.496   3.542  12.706 -0.2807 -0.0070 -2.3664
 1383TIP3   OH225639   5.013   3.184  17.105  0.4651  0.3995 -0.5580
 1383TIP3    H125640   4.985   3.097  17.134 -0.5454  0.3052 -1.7767
 1383TIP3    H225641   5.104   3.191  17.132  1.2088 -1.9045 -2.3766
 1384TIP3   OH225642   1.615   1.914  12.241  0.1472 -0.5622 -0.2804
 1384TIP3    H125643   1.670   1.882  12.169  0.9724 -0.4410  0.2889
 1384TIP3    H225644   1.637   2.007  12.247 -1.1642 -0.2014 -0.9722
 1385TIP3   OH225645   2.470   1.792  13.143  0.0925  0.5891 -0.6009
 1385TIP3    H125646   2.401   1.795  13.209  1.7575  1.1786  1.1494
 1385TIP3    H225647   2.428   1.821  13.062 -1.7967  0.5192  0.3392
 1386TIP3   OH225648   2.737   2.875  16.509 -0.1109  0.1055 -0.0741
 1386TIP3    H125649   2.792   2.858  16.432 -0.2662  0.4714 -0.2635
 1386TIP3    H225650   2.682   2.949  16.483 -2.5724 -1.9191 -0.8696
 1387TIP3   OH225651   4.453   4.756  15.177  0.0510 -0.3732 -0.3357
 1387TIP3    H125652   4.499   4.708  15.109  0.4113 -0.9718  0.3231
 1387TIP3    H225653   4.500   4.839  15.184  2.2094 -1.6649  1.5733
 1388TIP3   OH225654   5.593   0.091   3.842  0.2911 -0.4106  0.1236
 1388TIP3    H125655   5.677   0.128   3.817 -0.1825 -0.0135 -0.9126
 1388TIP3    H225656   5.575   0.129   3.928  0.7789  0.1600 -0.0222
 1389TIP3   OH225657   1.209   3.426   4.764 -0.1833 -0.0320 -0.0915
 1389TIP3    H125658   1.129   3.436   4.816  0.8170  0.4127  1.3898
 1389TIP3    H225659   1.205   3.497   4.700 -0.8711  0.1087  0.1025
 1390TIP3   OH225660   3.656   4.346   5.469  0.4580  0.0840  0.0214
 1390TIP3    H125661   3.586   4.410   5.460 -0.8102 -1.2359  0.2115
 1390TIP3    H225662   3.737   4.397   5.465 -0.3711  1.3086 -3.8253
 1391TIP3   OH225663   5.447   5.238  13.494  0.4611 -0.4352 -0.2110
 1391TIP3    H125664   5.445   5.150  13.531 -2.5769 -0.5038 -0.4047
 1391TIP3    H225665   5.355   5.264  13.491  1.1712  1.9796 -1.9934
 1392TIP3   OH225666   4.237   4.800   0.468 -0.4619  0.4564  0.2111
 1392TIP3    H125667   4.295   4.725   0.482 -0.9761 -0.0959 -0.5965
 1392TIP3    H225668   4.284   4.874   0.507 -0.3527 -0.4260  1.8072
 1393TIP3   OH225669   4.774   5.629   1.851 -0.5891 -0.3165  0.6863
 1393TIP3    H125670   4.714   5.704   1.855  0.2609  0.4139  0.1328
 1393TIP3    H225671   4.800   5.624   1.759  0.1967 -0.6221  0.9223
 1394TIP3   OH225672   3.909   0.115  12.033  0.5582  0.2381  0.1415
 1394TIP3    H125673   3.910   0.168  11.954 -0.7656  3.1261  2.0018
 1394TIP3    H225674   3.820   0.082  12.039  1.1034 -1.4061 -0.4429
 1395TIP3   OH225675   4.604   6.432   0.316 -0.0960 -0.5290 -0.6088
 1395TIP3    H125676   4.613   6.477   0.232  0.3318 -0.0739 -0.3187
 1395TIP3    H225677   4.679   6.372   0.318  0.2217 -0.1225 -0.2940
 1396TIP3   OH225678   3.880   3.685  13.833 -0.2172 -0.3333 -0.3729
 1396TIP3    H125679   3.897   3.615  13.897 -1.4484 -0.3403 -0.0270
 1396TIP3    H225680   3.795   3.661  13.795 -0.4572  0.7629 -0.5412
 1397TIP3   OH225681   4.777   4.338   2.117  0.2561  0.3669 -0.2473
 1397TIP3    H125682   4.827   4.334   2.035 -1.2388 -0.1097 -1.1651
 1397TIP3    H225683   4.685   4.330   2.089 -0.4899  3.1298  1.2192
 1398TIP3   OH225684   0.521   6.101   3.722 -0.0945 -0.4354  0.0555
 1398TIP3    H125685   0.525   6.025   3.779  0.0484 -0.5502 -0.1061
 1398TIP3    H225686   0.598   6.093   3.666 -0.1195 -0.2115 -0.0119
 1399TIP3   OH225687   0.371   5.568   0.464 -0.0090  0.4245  0.0599
 1399TIP3    H125688   0.313   5.555   0.539  1.9631  1.0000  1.7213
 1399TIP3    H225689   0.421   5.486   0.458  0.4983  0.7395 -0.0366
 1400TIP3   OH225690   2.886   3.745   2.190  0.1154 -0.0156 -0.0928
 1400TIP3    H125691   2.953   3.744   2.258 -2.1514  1.3104  2.2967
 1400TIP3    H225692   2.874   3.653   2.166  0.9892 -0.5002  1.2901
 1401TIP3   OH225693   3.494   6.342  16.450 -0.3296 -0.4796  0.1703
 1401TIP3    H125694   3.552   6.286  16.502  0.1123  0.0935  0.3000
 1401TIP3    H225695   3.492   6.300  16.363 -1.5023 -1.7418  0.7828
 1402TIP3   OH225696   5.542   4.407  16.191 -0.6689  0.0263  0.0639
 1402TIP3    H125697   5.550   4.492  16.234 -0.8702  0.7665 -1.3403
 1402TIP3    H225698   5.629   4.391  16.155 -0.3078 -0.9193  1.3283
 1403TIP3   OH225699   2.041   5.315  16.412 -0.1455  0.3695  0.2058
 1403TIP3    H125700   2.034   5.379  16.341 -0.4084  0.3314  0.1967
 1403TIP3    H225701   2.069   5.366  16.488  1.0915  0.2504 -0.1641
 1404TIP3   OH225702   6.197   5.408   4.621 -0.2035 -0.4033  0.3238
 1404TIP3    H125703   6.176   5.474   4.555 -0.4921 -0.7400  0.0768
 1404TIP3    H225704   6.119   5.406   4.677 -0.1648 -0.4779  0.3734
 1405TIP3   OH225705   4.173   0.075  15.052 -0.1677 -0.1539 -0.6842
 1405TIP3    H125706   4.213   0.056  14.967  0.3402 -1.4133 -0.1750
 1405TIP3    H225707   4.096   0.018  15.056  0.8103 -1.4256  0.4410
 1406TIP3   OH225708   2.724   6.293  15.255 -0.3787  0.1426 -0.5693
 1406TIP3    H125709   2.692   6.268  15.169  0.4369  1.3443 -1.2348
 1406TIP3    H225710   2.685   6.379  15.272  1.6764  1.2016 -0.9938
 1407TIP3   OH225711   4.329   1.166   3.186  0.1307  0.0125 -0.2037
 1407TIP3    H125712   4.319   1.235   3.120  0.4456  0.8114  0.5662
 1407TIP3    H225713   4.409   1.190   3.233  0.0168 -0.6629  0.3319
 1408TIP3   OH225714   2.804   4.607  13.319  0.1085  0.2023 -0.6608
 1408TIP3    H125715   2.779   4.604  13.227  1.0159 -0.8415 -0.8828
 1408TIP3    H225716   2.723   4.626  13.365 -1.0835 -2.7968 -1.3974
 1409TIP3   OH225717   6.178   0.992   0.689 -0.5799  0.2880 -0.2184
 1409TIP3    H125718   6.212   1.039   0.765  0.0325  0.5359 -0.6353
 1409TIP3    H225719   6.176   1.057   0.619  0.2588 -0.2891 -0.7967
 1410TIP3   OH225720   6.088   3.047   1.706 -0.5060 -0.6081 -0.6977
 1410TIP3    H125721   6.010   3.002   1.738 -0.2140 -0.3006  0.4501
 1410TIP3    H225722   6.056   3.102   1.634 -1.4170 -0.2162 -0.0080
 1411TIP3   OH225723   1.756   4.686  16.983 -0.5881 -0.1966 -0.0534
 1411TIP3    H125724   1.671   4.654  16.955 -0.8069 -1.7723  2.3053
 1411TIP3    H225725   1.750   4.692  17.079  1.6707  0.4758  0.0878
 1412TIP3   OH225726   2.585   6.659  17.286  0.1971  0.0024 -0.1951
 1412TIP3    H125727   2.620   6.740  17.323  1.1284 -0.1832 -0.6582
 1412TIP3    H225728   2.490   6.670  17.288  0.2534  0.2972  1.5930
 1413TIP3   OH225729   1.211   1.662   1.258  0.0792  0.4768 -0.0741
 1413TIP3    H125730   1.213   1.627   1.348 -0.2816  1.1987  0.2140
 1413TIP3    H225731   1.118   1.672   1.238  0.1888  1.8524  0.0702
 1414TIP3   OH225732   1.676   4.914  15.913 -0.1771  0.4998 -0.6495
 1414TIP3    H125733   1.684   4.833  15.861  0.7081 -0.4774  0.9492
 1414TIP3    H225734   1.683   4.984  15.849  1.1805 -0.6761 -1.8417
 1415TIP3   OH225735   5.001   3.144   2.625 -0.0518 -0.3136  0.0407
 1415TIP3    H125736   4.929   3.093   2.588  0.2300 -1.5412  1.1758
 1415TIP3    H225737   4.969   3.234   2.624 -1.5956 -0.8476  0.4964
 1416TIP3   OH225738   5.359   3.942   3.252 -0.5300 -0.0468  0.2764
 1416TIP3    H125739   5.267   3.964   3.266  0.0086  0.7992  2.7170
 1416TIP3    H225740   5.392   4.011   3.195 -1.1248  0.2599  0.2991
 1417TIP3   OH225741   5.429   5.865  17.278  0.1038  0.2433 -0.0033
 1417TIP3    H125742   5.348   5.815  17.273  0.1182  0.3237 -1.2598
 1417TIP3    H225743   5.484   5.828  17.208  0.4011  1.4922 -0.4498
 1418TIP3   OH225744   2.186   4.140   1.466 -0.0972  0.1151  0.3768
 1418TIP3    H125745   2.257   4.132   1.530 -0.7864  0.1311  1.1560
 1418TIP3    H225746   2.112   4.173   1.517 -0.9155 -0.7238 -0.2460
 1419TIP3   OH225747   6.212   0.218   6.439 -0.2129  0.5870  0.1886
 1419TIP3    H125748   6.215   0.303   6.482  0.4249  1.0660 -0.7770
 1419TIP3    H225749   6.152   0.230   6.366  2.2534  1.1371 -1.8397
 1420TIP3   OH225750   5.298   2.070  13.718  0.5610 -0.7116 -0.3596
 1420TIP3    H125751   5.384   2.103  13.692 -0.3185 -0.1342 -2.6902
 1420TIP3    H225752   5.237   2.140  13.695 -0.6333 -1.5078  0.3359
 1421TIP3   OH225753   4.692   3.672  16.273 -0.6827  0.4948 -0.2884
 1421TIP3    H125754   4.656   3.651  16.360  0.7001 -0.4114  0.0943
 1421TIP3    H225755   4.689   3.767  16.268 -0.2890  0.5840  0.9826
 1422TIP3   OH225756   4.320   2.645  14.962  0.4409  0.3847  0.0907
 1422TIP3    H125757   4.287   2.712  14.904 -0.2675  0.8902  1.0580
 1422TIP3    H225758   4.248   2.627  15.023  0.7915 -0.8802  0.1631
 1423TIP3   OH225759   4.657   3.343   0.990 -0.1002 -0.5024  0.7019
 1423TIP3    H125760   4.694   3.258   1.015 -1.6214 -0.9166  1.6104
 1423TIP3    H225761   4.590   3.360   1.057 -1.4555  0.2886 -0.8381
 1424TIP3   OH225762   0.749   3.136   2.148 -0.0515 -0.2342 -0.1775
 1424TIP3    H125763   0.661   3.150   2.113 -0.8315 -1.8023  1.1187
 1424TIP3    H225764   0.750   3.186   2.230 -0.1008 -1.1003  0.3518
 1425TIP3   OH225765   5.510   0.474  12.978 -0.2673  0.3907  1.0188
 1425TIP3    H125766   5.599   0.438  12.977  0.0516  1.1867  0.5223
 1425TIP3    H225767   5.468   0.430  13.052 -0.2244 -1.8434 -0.2321
 1426TIP3   OH225768   5.507   4.516  16.451 -0.1094  0.1990  0.4942
 1426TIP3    H125769   5.467   4.483  16.532 -0.2860  0.6900  0.6087
 1426TIP3    H225770   5.433   4.546  16.398 -0.2250 -2.3853 -0.9035
 1427TIP3   OH225771   0.020   3.351  14.584  0.1565  0.1927  0.0802
 1427TIP3    H125772  -0.018   3.294  14.517 -0.0193 -0.2676  0.5673
 1427TIP3    H225773  -0.032   3.431  14.580  0.3312  0.2820 -0.5259
 1428TIP3   OH225774   0.650   5.285  15.953 -0.0032  0.6580  0.2078
 1428TIP3    H125775   0.605   5.313  16.032  0.9326 -2.5664  1.9579
 1428TIP3    H225776   0.697   5.362  15.923 -0.2033  1.8554  2.8956
 1429TIP3   OH225777   3.759   2.605  11.319  0.0887 -0.6729 -0.0769
 1429TIP3    H125778   3.799   2.682  11.278 -0.3175 -0.0753  0.6280
 1429TIP3    H225779   3.758   2.539  11.250 -1.4750  0.6242 -1.3219
 1430TIP3   OH225780   6.364   1.807  12.221  0.3008 -0.2255 -0.3880
 1430TIP3    H125781   6.429   1.737  12.226 -0.0395 -0.5860 -0.9511
 1430TIP3    H225782   6.292   1.778  12.277  1.3930  1.0148  1.7101
 1431TIP3   OH225783   3.976   1.813  10.727 -0.1728  1.0520  0.1827
 1431TIP3    H125784   4.027   1.821  10.647 -1.7838 -0.8978 -1.0831
 1431TIP3    H225785   4.041   1.818  10.797  1.4473  1.2203 -1.2862
 1432TIP3   OH225786   1.248   3.252   6.210 -0.4768 -0.3765 -0.2113
 1432TIP3    H125787   1.186   3.272   6.281  0.2948  0.4681  0.2391
 1432TIP3    H225788   1.227   3.315   6.142  0.5071  0.5471  0.3264
 1433TIP3   OH225789   0.754   4.008  15.606  0.3458  0.4767 -0.2978
 1433TIP3    H125790   0.780   4.069  15.675 -1.1701 -0.4756  1.1605
 1433TIP3    H225791   0.814   3.934  15.615 -0.9047 -0.4086  1.1600
 1434TIP3   OH225792   2.177   3.076  14.164 -0.4276 -0.1228 -0.2937
 1434TIP3    H125793   2.139   3.117  14.241  1.9889  0.4823  0.6166
 1434TIP3    H225794   2.195   2.986  14.190  1.3705  0.3745  0.2019
 1435TIP3   OH225795   2.927   1.254  11.893  0.1262  0.5551  0.3926
 1435TIP3    H125796   2.984   1.295  11.958  2.1621  1.0543 -1.6534
 1435TIP3    H225797   2.984   1.236  11.819 -1.9941 -0.7035 -0.9947
 1436TIP3   OH225798   6.166   6.787  13.905  0.1952 -0.6447  0.0231
 1436TIP3    H125799   6.217   6.728  13.960  0.0947 -2.1822 -1.4956
 1436TIP3    H225800   6.226   6.815  13.836 -0.7782 -1.9922 -1.4266
 1437TIP3   OH225801   5.208   5.294  13.806  1.2325 -0.1441  0.0608
 1437TIP3    H125802   5.131   5.240  13.787  0.8856  0.7277 -1.0758
 1437TIP3    H225803   5.279   5.230  13.817  0.3070 -0.9607  1.3869
 1438TIP3   OH225804   6.236   3.784  13.794  0.3123 -0.2339 -0.2922
 1438TIP3    H125805   6.251   3.721  13.864 -1.7970 -0.2321  0.1806
 1438TIP3    H225806   6.202   3.731  13.721 -1.9802  0.3757  0.2813
 1439TIP3   OH225807   5.917   1.550  14.054 -0.7130  0.3303  0.0882
 1439TIP3    H125808   5.922   1.587  13.966  2.6723 -0.2786 -0.0373
 1439TIP3    H225809   5.885   1.461  14.041  1.4846 -0.3710 -0.7697
 1440TIP3   OH225810   4.690   5.033   0.444  0.1279 -0.1860  0.1114
 1440TIP3    H125811   4.661   5.110   0.395  0.0123 -0.5465 -0.3871
 1440TIP3    H225812   4.608   4.989   0.469  0.2037 -0.2953  0.1677
 1441TIP3   OH225813   2.826   1.278  12.979  0.2257 -0.2446  0.1287
 1441TIP3    H125814   2.792   1.303  13.065  0.2555 -1.1149  0.3989
 1441TIP3    H225815   2.920   1.295  12.983  0.0176  1.0087 -0.2008
 1442TIP3   OH225816   5.851   0.583  11.662  0.4101  0.2241  0.5906
 1442TIP3    H125817   5.939   0.549  11.682  0.1865 -0.6006  0.2022
 1442TIP3    H225818   5.835   0.649  11.729  1.0766 -0.0657  1.0429
 1443TIP3   OH225819   2.682   2.413   4.145  0.0376 -0.6252  0.2487
 1443TIP3    H125820   2.740   2.465   4.200  0.3014  0.6272 -1.1770
 1443TIP3    H225821   2.595   2.428   4.180  0.1378  0.6236 -0.0416
 1444TIP3   OH225822   2.007   2.170   0.420  0.2678  0.1619 -0.1465
 1444TIP3    H125823   1.916   2.155   0.395  0.2198  1.4407 -0.7931
 1444TIP3    H225824   2.017   2.265   0.416  1.8883 -0.0413 -0.9997
 1445TIP3   OH225825   1.108   4.265  14.144 -0.2528  0.3843  0.3219
 1445TIP3    H125826   1.203   4.269  14.139 -0.2553  0.2252  0.1633
 1445TIP3    H225827   1.084   4.186  14.097 -0.3393 -0.6575  2.0605
 1446TIP3   OH225828   1.733   6.081  11.403 -0.1164 -0.3368  0.3296
 1446TIP3    H125829   1.660   6.130  11.441 -0.8354 -1.0948 -0.0646
 1446TIP3    H225830   1.772   6.142  11.340 -1.2968 -0.4231 -0.4876
 1447TIP3   OH225831   2.087   4.991  11.467  0.1754  0.4891  0.3611
 1447TIP3    H125832   2.064   4.915  11.415 -0.2618 -1.2364  2.9692
 1447TIP3    H225833   2.179   4.978  11.490  0.2532  1.0194  0.3572
 1448TIP3   OH225834   4.225   3.626   6.499 -0.4914 -0.8956  0.7417
 1448TIP3    H125835   4.190   3.537   6.505 -1.3790 -0.6809 -0.9029
 1448TIP3    H225836   4.297   3.628   6.563 -0.2953 -2.8643  0.6178
 1449TIP3   OH225837   6.206   0.570  11.404  0.1438 -0.6033 -0.0268
 1449TIP3    H125838   6.202   0.497  11.342  1.7172 -0.0114 -0.8592
 1449TIP3    H225839   6.220   0.647  11.349  3.5622 -0.2957  1.1652
 1450TIP3   OH225840   6.399   2.636   2.729  0.2550  0.1213 -0.3944
 1450TIP3    H125841   6.409   2.713   2.784  1.0315  0.6385 -1.2504
 1450TIP3    H225842   6.305   2.634   2.708 -0.2288 -0.6655  1.7553
 1451TIP3   OH225843   6.296   6.359   2.434 -0.1860  0.5498 -0.3781
 1451TIP3    H125844   6.352   6.383   2.507 -0.6931  0.2433  0.1148
 1451TIP3    H225845   6.357   6.328   2.367  0.3330  1.5080 -0.3562
 1452TIP3   OH225846   4.979   4.912  12.639  0.0900  0.0760  0.2482
 1452TIP3    H125847   5.051   4.928  12.700  0.2452  1.1888 -0.1984
 1452TIP3    H225848   4.901   4.939  12.687  0.0757 -0.2642  0.4137
 1453TIP3   OH225849   1.714   4.211   1.609  0.2939 -0.2277 -0.2022
 1453TIP3    H125850   1.683   4.125   1.640  0.5011  0.3196  1.5875
 1453TIP3    H225851   1.643   4.243   1.554  0.6249 -1.9685 -1.7051
 1454TIP3   OH225852   6.757   5.562   3.651  0.1611  0.1351 -0.0712
 1454TIP3    H125853   6.807   5.508   3.712  0.7139  1.1942  0.4185
 1454TIP3    H225854   6.815   5.634   3.628 -0.4863  0.4051 -0.9117
 1455TIP3   OH225855   5.230   4.701   4.609 -0.2777  0.0554 -0.2852
 1455TIP3    H125856   5.308   4.743   4.645 -0.7777  2.3890 -1.8674
 1455TIP3    H225857   5.157   4.745   4.653 -0.7404 -1.4551  0.4815
 1456TIP3   OH225858   1.302   0.713  17.080 -0.2354  0.1232  0.5483
 1456TIP3    H125859   1.283   0.792  17.131  2.5710  0.7899  0.6644
 1456TIP3    H225860   1.274   0.734  16.992 -1.8822  0.2807  1.0994
 1457TIP3   OH225861   3.935   4.054  14.924  0.0230 -0.2633 -0.1572
 1457TIP3    H125862   3.980   4.067  15.007 -1.0639  0.3110  0.3533
 1457TIP3    H225863   3.890   3.970  14.934  0.9404 -0.8225 -0.6559
 1458TIP3   OH225864   6.218   2.131   1.341 -0.4811  0.3999 -0.1802
 1458TIP3    H125865   6.163   2.053   1.329  0.1691 -0.1331  0.2546
 1458TIP3    H225866   6.305   2.103   1.312 -0.5853  1.4645 -1.5811
 1459TIP3   OH225867   6.411   1.328   0.486 -0.3736 -0.2691  0.3662
 1459TIP3    H125868   6.365   1.383   0.423 -1.9720 -0.5034  1.3203
 1459TIP3    H225869   6.375   1.353   0.571 -0.0537 -1.7440  0.9458
 1460TIP3   OH225870   1.971   6.506  16.242 -0.4444  0.0438  0.7200
 1460TIP3    H125871   2.043   6.567  16.252 -1.4612  1.1564  1.4701
 1460TIP3    H225872   1.958   6.470  16.330 -0.7144 -0.2613  0.5567
 1461TIP3   OH225873   6.646   2.206  16.365  0.0048  0.1903 -0.5123
 1461TIP3    H125874   6.701   2.252  16.302  2.2164 -0.0600  1.1982
 1461TIP3    H225875   6.650   2.260  16.444 -2.3271  0.2303 -0.3854
 1462TIP3   OH225876   5.458   6.142  14.335 -0.6113 -0.2418  0.0315
 1462TIP3    H125877   5.544   6.101  14.342  0.9206  2.4255 -2.1208
 1462TIP3    H225878   5.449   6.195  14.415  0.0592  0.0073 -0.0588
 1463TIP3   OH225879   0.297   3.334   1.743  0.1644 -0.0108 -0.2718
 1463TIP3    H125880   0.381   3.299   1.774 -0.1421  0.1566  0.7678
 1463TIP3    H225881   0.299   3.426   1.767 -0.1456  0.0941 -0.6354
 1464TIP3   OH225882   4.286   5.300  11.880 -0.5275  0.3660 -0.1315
 1464TIP3    H125883   4.360   5.356  11.904 -0.4050 -0.6357  1.9443
 1464TIP3    H225884   4.318   5.249  11.806  0.3969  0.8821 -0.1064
 1465TIP3   OH225885   0.675   1.822  15.048  0.2218  0.7463  0.0960
 1465TIP3    H125886   0.735   1.784  14.984 -0.4829 -0.0699 -0.1003
 1465TIP3    H225887   0.705   1.912  15.060  2.3872 -0.0800  1.1085
 1466TIP3   OH225888   5.015   5.836   3.470 -0.7182  0.2636 -0.3201
 1466TIP3    H125889   4.953   5.764   3.485 -1.1899  1.0195  1.4912
 1466TIP3    H225890   5.097   5.805   3.509 -0.8044  0.5155  0.0663
 1467TIP3   OH225891   1.267   1.154   3.966 -0.1061 -0.2533  0.1927
 1467TIP3    H125892   1.207   1.117   3.901 -0.2912 -1.5827  1.1056
 1467TIP3    H225893   1.341   1.093   3.967 -0.0729 -0.1990  1.1819
 1468TIP3   OH225894   5.419   2.555  16.781 -0.1084 -0.2973 -0.3779
 1468TIP3    H125895   5.435   2.481  16.839  1.4572  0.2104 -0.1402
 1468TIP3    H225896   5.404   2.515  16.695  1.7221 -0.8673 -0.4579
 1469TIP3   OH225897   6.457   6.579  15.793 -0.4375 -0.1598 -0.2760
 1469TIP3    H125898   6.517   6.640  15.837  0.2063 -0.7583 -0.3127
 1469TIP3    H225899   6.435   6.515  15.861  0.1861 -0.8160 -0.6800
 1470TIP3   OH225900   3.817   0.946   2.000  0.5080  0.0539  0.8000
 1470TIP3    H125901   3.876   0.942   2.076  2.7224  0.0929 -0.8666
 1470TIP3    H225902   3.789   1.038   1.998  0.3577  0.0373  1.6184
 1471TIP3   OH225903   4.563   2.115  13.962  0.7460  0.2517  0.5870
 1471TIP3    H125904   4.584   2.024  13.981  0.0517 -0.0517 -0.0602
 1471TIP3    H225905   4.624   2.166  14.016  0.2772 -0.5805  1.9326
 1472TIP3   OH225906   2.064   5.908   6.015  0.0835  0.0596  0.5462
 1472TIP3    H125907   1.983   5.899   6.065 -0.8244  0.0504 -0.9082
 1472TIP3    H225908   2.036   5.935   5.928  1.6826  0.6084  0.1781
 1473TIP3   OH225909   5.242   1.990  16.503  0.0263 -0.5529  0.0572
 1473TIP3    H125910   5.227   1.987  16.408  0.0550 -1.8104  0.0848
 1473TIP3    H225911   5.160   1.959  16.541 -0.3928  1.0333  0.4921
 1474TIP3   OH225912   1.202   6.263   5.509 -0.5153 -0.0358  0.3272
 1474TIP3    H125913   1.163   6.351   5.515  0.2628  0.2763  0.9314
 1474TIP3    H225914   1.135   6.205   5.545 -1.1756  0.2599 -0.3901
 1475TIP3   OH225915   3.940   3.223   6.334  0.2064 -0.4638 -0.3983
 1475TIP3    H125916   3.865   3.275   6.363  1.2344  0.4323  0.6934
 1475TIP3    H225917   3.903   3.137   6.314 -0.9617 -0.3475  1.1408
 1476TIP3   OH225918   4.769   4.665  15.309  0.6292 -0.5725  0.2364
 1476TIP3    H125919   4.815   4.744  15.338 -0.5531 -0.0431  0.7025
 1476TIP3    H225920   4.687   4.666  15.357  0.1439 -1.5399 -0.5490
 1477TIP3   OH225921   1.660   5.225   2.798  0.4569  0.0549  0.1640
 1477TIP3    H125922   1.719   5.174   2.743  0.0359  0.0506 -0.2905
 1477TIP3    H225923   1.683   5.316   2.779 -0.6837  0.0822 -1.1365
 1478TIP3   OH225924   4.525   4.438   4.455 -0.4020 -1.0890  0.0684
 1478TIP3    H125925   4.500   4.429   4.364  0.8889  0.7586 -0.5140
 1478TIP3    H225926   4.460   4.498   4.492  0.6146  0.3390 -0.3741
 1479TIP3   OH225927   4.293   3.531   0.797 -0.1848  0.0489 -0.5102
 1479TIP3    H125928   4.379   3.573   0.800 -0.3254  0.2586  0.6698
 1479TIP3    H225929   4.307   3.445   0.835  0.4248 -1.6084 -4.2720
 1480TIP3   OH225930   4.949   3.395   2.455 -0.3079 -0.2881 -0.7562
 1480TIP3    H125931   4.869   3.342   2.447 -1.0846  0.4913  1.3813
 1480TIP3    H225932   4.916   3.484   2.466  0.7500 -0.2988  2.8932
 1481TIP3   OH225933   4.488   3.837   0.042 -0.7273  0.5204  0.2987
 1481TIP3    H125934   4.539   3.795   0.111  0.0622 -1.3694 -1.3874
 1481TIP3    H225935   4.486   3.772  -0.029 -2.9233  1.7567 -0.8126
 1482TIP3   OH225936   1.244   2.791   4.737  0.0341 -0.0429 -0.2675
 1482TIP3    H125937   1.322   2.831   4.774  1.4364 -1.1899 -1.8957
 1482TIP3    H225938   1.263   2.697   4.736 -0.3022 -0.1314 -2.9704
 1483TIP3   OH225939   4.201   3.424  11.158  0.0926 -0.4759  0.1061
 1483TIP3    H125940   4.210   3.472  11.075  0.6936  0.1595  0.5308
 1483TIP3    H225941   4.136   3.357  11.140  2.8372 -2.7249 -1.9946
 1484TIP3   OH225942   5.072   6.805  14.354  0.5513 -0.6613 -0.5159
 1484TIP3    H125943   4.979   6.825  14.368  0.8807 -0.0194  0.8290
 1484TIP3    H225944   5.109   6.800  14.442  1.9649 -0.0913 -1.0699
 1485TIP3   OH225945   0.191   1.274  12.010 -0.0256 -0.1119 -0.0575
 1485TIP3    H125946   0.225   1.332  12.078  0.5118 -0.8956  0.3451
 1485TIP3    H225947   0.264   1.264  11.949 -0.4934  0.5541 -0.7256
 1486TIP3   OH225948   0.112   5.857  16.653  0.1980 -0.0059 -1.2842
 1486TIP3    H125949   0.193   5.822  16.616  0.0787  1.0357 -2.5479
 1486TIP3    H225950   0.100   5.941  16.609 -1.0468  0.2986 -0.3744
 1487TIP3   OH225951   3.789   5.393  11.609  0.0233 -0.0767  0.1455
 1487TIP3    H125952   3.884   5.385  11.617 -0.1852 -0.3648  2.6139
 1487TIP3    H225953   3.757   5.390  11.699 -2.3991 -0.7267 -0.7102
 1488TIP3   OH225954   5.560   3.131  15.072 -0.0759  0.4927 -0.3265
 1488TIP3    H125955   5.522   3.147  14.985  1.1542 -0.3373 -1.0309
 1488TIP3    H225956   5.518   3.196  15.129  0.4855  2.3047 -1.9153
 1489TIP3   OH225957   5.626   5.667  11.509  0.1679 -0.2399 -0.3808
 1489TIP3    H125958   5.602   5.709  11.592 -0.2240  0.8575 -1.0497
 1489TIP3    H225959   5.687   5.728  11.468  0.9888 -1.1571 -0.5456
 1490TIP3   OH225960   2.463   5.655  11.818 -0.4664 -0.1575 -0.3229
 1490TIP3    H125961   2.414   5.580  11.783  0.0796 -0.3051 -0.7659
 1490TIP3    H225962   2.489   5.628  11.906  1.7862 -1.4327 -1.3372
 1491TIP3   OH225963   2.518   4.599  17.075  0.2297  0.0480 -0.2622
 1491TIP3    H125964   2.608   4.600  17.043  0.0183  1.1104 -0.8571
 1491TIP3    H225965   2.514   4.672  17.137  0.5458 -1.7933  1.9646
 1492TIP3   OH225966   2.764   6.070  11.074 -0.3151 -0.3670  0.1282
 1492TIP3    H125967   2.717   6.085  10.992  0.9724  0.8791 -0.4069
 1492TIP3    H225968   2.696   6.065  11.140 -1.3820 -1.4683 -1.0223
 1493TIP3   OH225969   3.658   5.814  12.356 -0.6552 -0.2433 -0.2313
 1493TIP3    H125970   3.662   5.795  12.450 -1.6996 -0.7013 -0.2719
 1493TIP3    H225971   3.694   5.902  12.348 -0.8441 -0.0854  0.6366
 1494TIP3   OH225972   6.408   3.405   0.939  0.3462 -0.4126  0.3041
 1494TIP3    H125973   6.377   3.323   0.900  1.9315 -0.0347 -1.8711
 1494TIP3    H225974   6.333   3.464   0.936  0.3289 -0.5027 -1.9871
 1495TIP3   OH225975   6.590   0.541  12.895 -0.0953  0.3236 -0.3629
 1495TIP3    H125976   6.608   0.461  12.845 -0.5138  0.9860 -1.5808
 1495TIP3    H225977   6.613   0.613  12.837  1.1086  1.1120  1.0514
 1496TIP3   OH225978   4.989   6.573   5.484  0.4208  0.3853 -0.0941
 1496TIP3    H125979   4.897   6.557   5.460  0.7733 -0.1639 -1.1146
 1496TIP3    H225980   4.993   6.668   5.498  0.1221  0.7167 -2.0089
 1497TIP3   OH225981   2.259   4.447  15.611 -0.3354  0.0965  0.3910
 1497TIP3    H125982   2.262   4.354  15.634  0.0669  0.6392  2.5996
 1497TIP3    H225983   2.166   4.465  15.596 -0.3022 -0.9014 -1.1795
 1498TIP3   OH225984   5.933   4.885   1.635 -0.5794 -0.6078 -0.6529
 1498TIP3    H125985   5.864   4.950   1.619  1.0619  1.5308  0.7388
 1498TIP3    H225986   5.886   4.809   1.671 -2.4574 -0.0028 -1.7585
 1499TIP3   OH225987   1.748   5.871  12.427 -0.9270  0.2101 -0.0412
 1499TIP3    H125988   1.671   5.920  12.397 -1.2014 -0.2765 -0.1282
 1499TIP3    H225989   1.712   5.798  12.477 -0.4956  0.5699  0.8097
 1500TIP3   OH225990   0.729   5.283  12.498  0.2109  0.5427 -0.7516
 1500TIP3    H125991   0.795   5.286  12.429  0.3422 -0.0612 -0.6508
 1500TIP3    H225992   0.754   5.354  12.558  0.1263  1.0284 -1.2890
 1501TIP3   OH225993   5.382   2.088   0.011 -0.5570  0.1416 -0.6504
 1501TIP3    H125994   5.421   2.161  -0.037  2.8066 -0.4883  0.9520
 1501TIP3    H225995   5.324   2.129   0.075  2.7558  1.6384  1.5435
 1502TIP3   OH225996   3.730   1.585   5.618  0.1663  0.2552  0.1680
 1502TIP3    H125997   3.797   1.521   5.638 -0.3238 -0.5286 -0.6331
 1502TIP3    H225998   3.653   1.555   5.667  0.5778  1.5205  1.6141
 1503TIP3   OH225999   2.391   3.152   0.436 -0.4114 -0.0104 -0.4562
 1503TIP3    H126000   2.296   3.141   0.434 -0.6254 -0.2187  4.7515
 1503TIP3    H226001   2.406   3.222   0.499  2.9391 -1.5116  0.5343
 1504TIP3   OH226002   6.402   3.691  14.839  0.7678 -0.0589 -0.2822
 1504TIP3    H126003   6.427   3.780  14.816 -0.7247  0.1846 -1.0035
 1504TIP3    H226004   6.430   3.638  14.765  0.3565  0.0321 -0.5088
 1505TIP3   OH226005   4.554   2.612   6.663  0.1353  0.5800  0.1447
 1505TIP3    H126006   4.459   2.606   6.654 -0.0812 -0.4643  2.5524
 1505TIP3    H226007   4.580   2.684   6.606 -2.1053  0.9071 -0.4911
 1506TIP3   OH226008   3.203   3.308  15.601 -0.0057 -0.0359  0.2362
 1506TIP3    H126009   3.294   3.278  15.606 -0.0579 -0.1037  0.8078
 1506TIP3    H226010   3.167   3.263  15.524  0.7589  0.8615 -0.6637
 1507TIP3   OH226011   0.020   2.333   4.763  0.0986 -0.8668 -0.2418
 1507TIP3    H126012   0.072   2.349   4.685 -0.5096  1.9674 -0.1123
 1507TIP3    H226013   0.066   2.379   4.833 -0.8421 -1.0348  0.4978
 1508TIP3   OH226014   0.667   1.925   2.621 -0.1804  0.5884  0.1488
 1508TIP3    H126015   0.750   1.886   2.593  0.1679  0.7734  0.9147
 1508TIP3    H226016   0.601   1.863   2.592  0.3737 -0.6220  1.4147
 1509TIP3   OH226017   2.651   0.622  15.910  0.3817  0.4016 -0.4580
 1509TIP3    H126018   2.623   0.629  16.001 -1.7756  1.9757 -1.1685
 1509TIP3    H226019   2.702   0.702  15.894  1.5907 -0.3447 -0.3720
 1510TIP3   OH226020   1.826   3.234   3.928  0.7255 -0.2922 -0.6401
 1510TIP3    H126021   1.795   3.194   3.847 -0.6343  0.9204 -0.7333
 1510TIP3    H226022   1.841   3.160   3.987 -0.8506 -1.0058 -1.1094
 1511TIP3   OH226023   1.341   2.235   5.326 -0.3894 -0.1731 -0.6352
 1511TIP3    H126024   1.412   2.289   5.293 -1.7932  1.7696 -0.5364
 1511TIP3    H226025   1.269   2.248   5.264 -1.4117 -0.3455  0.4906
 1512TIP3   OH226026   6.383   4.171   6.357  0.2183 -0.2825  0.2896
 1512TIP3    H126027   6.460   4.201   6.405  0.1468 -0.4589  0.5186
 1512TIP3    H226028   6.316   4.237   6.374  1.2544  1.5578 -2.5186
 1513TIP3   OH226029   3.646   5.023  14.983 -0.3279  1.1669  0.3541
 1513TIP3    H126030   3.607   5.019  15.070 -1.6829 -1.6406 -0.3376
 1513TIP3    H226031   3.591   4.966  14.929  1.8602  1.0215 -1.8105
 1514TIP3   OH226032   3.135   4.056  13.786  0.7668  0.3776  0.0813
 1514TIP3    H126033   3.125   4.011  13.869  0.7436  0.8260  0.3202
 1514TIP3    H226034   3.229   4.055  13.769  0.7897  0.4616  0.2078
 1515TIP3   OH226035   1.227   3.614  12.495 -0.4438 -0.0631  0.1643
 1515TIP3    H126036   1.302   3.619  12.555 -0.0654  0.7091 -0.3625
 1515TIP3    H226037   1.263   3.574  12.416 -1.1908 -2.0739  0.8273
 1516TIP3   OH226038   5.131   3.710   3.992 -0.0026  0.1051 -0.1077
 1516TIP3    H126039   5.184   3.787   3.971  0.1020 -0.3343 -1.4939
 1516TIP3    H226040   5.089   3.731   4.075  0.9038  1.2062  0.0723
 1517TIP3   OH226041   5.368   4.959  11.856 -0.2028  0.5526 -0.0143
 1517TIP3    H126042   5.462   4.950  11.837 -0.1769  1.2231 -0.2318
 1517TIP3    H226043   5.324   4.935  11.775 -0.2604 -0.7325  0.3927
 1518TIP3   OH226044   5.874   6.270  12.270 -0.3116  0.3665 -0.1465
 1518TIP3    H126045   5.865   6.197  12.208  0.5308 -0.8462  1.1169
 1518TIP3    H226046   5.967   6.288  12.272 -0.3209  0.3548  0.7887
 1519TIP3   OH226047   2.763   6.469  12.300 -0.1447 -0.1355 -0.0152
 1519TIP3    H126048   2.787   6.488  12.391  0.2725 -0.8361  0.0255
 1519TIP3    H226049   2.739   6.376  12.300 -0.0384 -0.1678 -0.6397
 1520TIP3   OH226050   6.496   0.816  14.332  0.0803 -0.2613  0.1271
 1520TIP3    H126051   6.433   0.752  14.365 -0.8544  0.1818 -0.7674
 1520TIP3    H226052   6.469   0.899  14.371  0.3348 -0.1331  0.0352
 1521TIP3   OH226053   6.546   0.954  15.372  0.0578  0.3515 -0.4833
 1521TIP3    H126054   6.557   1.039  15.329 -1.0300  0.8319  0.1611
 1521TIP3    H226055   6.596   0.961  15.453  3.1149 -0.9847 -2.2057
 1522TIP3   OH226056   3.694   5.066  14.324  0.4273 -0.2791 -0.0995
 1522TIP3    H126057   3.599   5.079  14.324  0.6776  2.0335  1.5443
 1522TIP3    H226058   3.720   5.073  14.232 -0.8075  0.8564 -0.3687
 1523TIP3   OH226059   3.059   6.773  13.312 -0.2911 -0.2898  0.5721
 1523TIP3    H126060   3.108   6.691  13.305 -2.1616 -1.4636  0.9558
 1523TIP3    H226061   3.091   6.826  13.239  0.4205 -1.6367 -0.1107
 1524TIP3   OH226062   3.739   3.361   5.495 -0.1439 -0.0508  0.0420
 1524TIP3    H126063   3.678   3.312   5.550  0.1887 -1.0152 -0.4520
 1524TIP3    H226064   3.765   3.436   5.550 -0.0994 -0.8034  1.0591
 1525TIP3   OH226065   1.177   2.790  14.934 -0.1684  0.4850  1.0919
 1525TIP3    H126066   1.131   2.709  14.915  1.2549 -0.0135 -0.3210
 1525TIP3    H226067   1.123   2.858  14.894 -0.0495 -0.0338  0.0230
 1526TIP3   OH226068   4.048   2.955  16.186 -0.0811  0.8585 -0.4221
 1526TIP3    H126069   4.112   2.914  16.129  0.5576  1.2831 -0.0119
 1526TIP3    H226070   4.017   3.031  16.136 -0.5083  0.4667 -0.7554
 1527TIP3   OH226071   4.613   0.864   5.562  0.7814  0.1718 -0.2958
 1527TIP3    H126072   4.706   0.844   5.552  0.6063 -1.1636  0.5400
 1527TIP3    H226073   4.591   0.829   5.648 -0.3545  1.0654 -0.2105
 1528TIP3   OH226074   3.467   6.339  12.653  0.5234 -0.0738  0.2633
 1528TIP3    H126075   3.373   6.351  12.668  0.5655 -0.1205  0.5696
 1528TIP3    H226076   3.475   6.250  12.619  0.3098  0.4181 -1.0999
 1529TIP3   OH226077   2.084   3.057  14.449 -0.1333 -0.4481 -0.3396
 1529TIP3    H126078   2.042   2.975  14.477 -1.1893  0.4666  0.8335
 1529TIP3    H226079   2.131   3.087  14.527 -0.4698  0.4996 -0.4949
 1530TIP3   OH226080   0.314   1.705  13.294  0.3776  0.1325 -0.3780
 1530TIP3    H126081   0.248   1.766  13.329  1.7683  1.0928  0.5969
 1530TIP3    H226082   0.281   1.619  13.319  0.3364  0.6956  1.5912
 1531TIP3   OH226083   5.378   4.274   3.928 -0.0755  0.0563 -0.0856
 1531TIP3    H126084   5.322   4.352   3.929 -1.0312 -0.6277  0.0520
 1531TIP3    H226085   5.319   4.202   3.905  1.1376 -0.3618 -2.0692
 1532TIP3   OH226086   5.142   4.163  11.727 -0.5809  0.8192 -0.8336
 1532TIP3    H126087   5.064   4.161  11.781 -2.8752  1.1226 -3.9891
 1532TIP3    H226088   5.159   4.256  11.713  0.4092  0.7570 -0.1362
 1533TIP3   OH226089   2.583   1.503   3.120  0.5066  0.6896 -0.0648
 1533TIP3    H126090   2.535   1.563   3.063  1.2165  0.5013 -0.8825
 1533TIP3    H226091   2.591   1.423   3.068  2.0387  0.8536 -0.0972
 1534TIP3   OH226092   0.954   0.903   0.128  0.0026  0.5942  0.5647
 1534TIP3    H126093   1.013   0.962   0.175 -0.6222  0.7171  1.1978
 1534TIP3    H226094   0.933   0.950   0.047  2.3406 -0.3006 -0.6014
 1535TIP3   OH226095   1.334   6.721  12.554  0.1581 -0.1277 -0.4258
 1535TIP3    H126096   1.346   6.637  12.509  1.3797 -1.3532  2.0963
 1535TIP3    H226097   1.243   6.745  12.536 -0.8505 -3.0487  0.5397
 1536TIP3   OH226098   2.878   5.266   1.717 -0.1473  0.0097 -0.1079
 1536TIP3    H126099   2.828   5.281   1.637  0.3159  0.3113 -0.3374
 1536TIP3    H226100   2.828   5.197   1.763 -0.8376  0.3934 -0.2740
 1537TIP3   OH226101   2.952   1.415  11.222  0.4812  0.2717 -0.7100
 1537TIP3    H126102   2.965   1.479  11.153 -0.9850 -0.3770 -1.5980
 1537TIP3    H226103   2.938   1.467  11.301 -2.0642  1.0751 -1.6620
 1538TIP3   OH226104   4.987   5.235  11.567  0.1134 -0.0792 -0.6677
 1538TIP3    H126105   5.024   5.264  11.650 -0.8384 -1.4676  0.2489
 1538TIP3    H226106   4.995   5.311  11.509  0.5651  0.9608  0.7480
 1539TIP3   OH226107   3.187   4.769   0.181 -0.3657 -0.8115 -0.1783
 1539TIP3    H126108   3.142   4.686   0.197 -1.5327 -0.3310 -0.8803
 1539TIP3    H226109   3.127   4.818   0.124  1.1306 -0.2188 -1.2587
 1540TIP3   OH226110   2.877   1.378   4.384  0.3791 -0.2266 -0.4789
 1540TIP3    H126111   2.827   1.305   4.422  0.2162  0.4506  0.6511
 1540TIP3    H226112   2.811   1.446   4.370  0.8286  0.3712  0.2362
 1541TIP3   OH226113   0.948   0.242   3.489  0.0809  0.5756 -0.0957
 1541TIP3    H126114   0.966   0.183   3.562 -0.4381 -0.8817 -1.1380
 1541TIP3    H226115   0.997   0.205   3.415 -0.6673  1.1465 -0.8889
 1542TIP3   OH226116   2.173   4.541   5.249  0.4383  1.2010  0.2631
 1542TIP3    H126117   2.207   4.573   5.333 -1.4692  0.8968  1.1831
 1542TIP3    H226118   2.154   4.449   5.266 -1.7512  1.6007  0.0796
 1543TIP3   OH226119   1.173   5.976   0.745 -0.2036  0.3699  0.3708
 1543TIP3    H126120   1.096   6.012   0.702 -0.8682 -1.6307 -0.1600
 1543TIP3    H226121   1.139   5.906   0.801  1.0852  0.3479  1.1565
 1544TIP3   OH226122   3.833   6.166  16.314  0.2634 -0.1010  0.4639
 1544TIP3    H126123   3.789   6.250  16.301  0.1279  0.1440  2.3166
 1544TIP3    H226124   3.864   6.170  16.405  2.1416 -1.1831 -0.1045
 1545TIP3   OH226125   1.234   4.518   3.356 -0.1222  0.1035  0.6025
 1545TIP3    H126126   1.214   4.578   3.284 -0.7581 -0.3143  0.4249
 1545TIP3    H226127   1.201   4.433   3.326 -1.0501  0.0664  1.6840
 1546TIP3   OH226128   6.187   6.413  15.983  0.3582  0.0122 -1.1821
 1546TIP3    H126129   6.123   6.438  15.916 -0.4277  0.6491 -0.2051
 1546TIP3    H226130   6.147   6.340  16.029  0.6120  0.0013 -0.9766
 1547TIP3   OH226131   5.308   1.881  17.149  0.0228 -0.0309 -0.5155
 1547TIP3    H126132   5.314   1.958  17.206  0.2700  0.1697 -0.8071
 1547TIP3    H226133   5.319   1.917  17.060  2.5881 -0.6948 -0.5066
 1548TIP3   OH226134   6.309   0.822   0.539  0.4956  0.8572  0.3196
 1548TIP3    H126135   6.241   0.770   0.496  0.5686  1.1235 -0.1229
 1548TIP3    H226136   6.265   0.863   0.613  0.5297 -0.1389  0.8887
 1549TIP3   OH226137   4.341   4.569  16.615  0.0971 -0.5653 -0.3047
 1549TIP3    H126138   4.430   4.537  16.602  0.0324 -0.3733 -1.2363
 1549TIP3    H226139   4.347   4.664  16.603 -0.1049 -0.4743  0.3100
 1550TIP3   OH226140   5.831   0.081   1.626  0.1176  0.0377  0.1055
 1550TIP3    H126141   5.808   0.173   1.612 -0.9955 -0.2815 -0.2794
 1550TIP3    H226142   5.835   0.044   1.538  0.5632 -0.2758  0.2597
 1551TIP3   OH226143   4.862   3.786  15.195  0.3673 -0.1881  0.4852
 1551TIP3    H126144   4.919   3.709  15.196 -0.1643 -0.5901  2.4129
 1551TIP3    H226145   4.863   3.816  15.104  4.3319  0.3169  0.6242
 1552TIP3   OH226146   3.429   6.669  16.586 -0.2079 -0.3749  0.5960
 1552TIP3    H126147   3.375   6.733  16.539  0.0689 -0.9997 -0.6055
 1552TIP3    H226148   3.375   6.590  16.590  0.2213 -0.6893  0.2879
 1553TIP3   OH226149   1.665   5.590  17.025 -0.7850  0.0023  0.4104
 1553TIP3    H126150   1.640   5.617  17.113 -1.1901 -0.1892  0.3529
 1553TIP3    H226151   1.716   5.510  17.039  1.2878  1.3254  0.6563
 1554TIP3   OH226152   2.138   5.141   0.684 -0.3673  0.1804  0.0059
 1554TIP3    H126153   2.064   5.132   0.624 -0.0979  1.8881 -0.6200
 1554TIP3    H226154   2.139   5.234   0.707  0.0261 -0.2891  2.0399
 1555TIP3   OH226155   4.474   0.326  15.984 -0.1528  0.1488 -0.4439
 1555TIP3    H126156   4.506   0.263  15.919 -0.2978 -0.7433  0.3381
 1555TIP3    H226157   4.524   0.406  15.966  2.3596 -1.1371  0.5956
 1556TIP3   OH226158   2.520   6.649   3.568 -0.1039  0.3566  0.3539
 1556TIP3    H126159   2.491   6.586   3.634  0.7038  0.0570  0.4327
 1556TIP3    H226160   2.615   6.652   3.578 -0.1170  1.4767  0.2438
 1557TIP3   OH226161   1.389   5.113  16.029 -0.1028 -0.1772 -0.0927
 1557TIP3    H126162   1.463   5.110  16.090 -0.0952  0.2433 -0.0801
 1557TIP3    H226163   1.429   5.130  15.944 -0.1127 -0.7782 -0.2207
 1558TIP3   OH226164   2.694   4.559   6.030 -0.0771  0.3632  0.1375
 1558TIP3    H126165   2.708   4.620   6.103  0.6049 -1.7805  1.8734
 1558TIP3    H226166   2.781   4.522   6.014 -0.1500  1.0320 -2.0324
 1559TIP3   OH226167   3.017   6.502   3.087  0.3342 -0.1227 -0.4314
 1559TIP3    H126168   3.025   6.535   2.998  0.0977 -0.5973 -0.6301
 1559TIP3    H226169   2.948   6.556   3.126  1.1393  0.7633 -0.2109
 1560TIP3   OH226170   4.862   5.963  15.261 -0.8455 -0.4338  0.1027
 1560TIP3    H126171   4.924   5.998  15.197 -1.4665 -0.8045 -0.7124
 1560TIP3    H226172   4.861   6.027  15.332 -1.7395  1.0503 -1.2312
 1561TIP3   OH226173   5.994   4.126  14.558  0.2024 -0.2871  0.2681
 1561TIP3    H126174   6.069   4.180  14.533  0.8528 -1.1070  0.4516
 1561TIP3    H226175   5.957   4.097  14.475  0.1888 -0.0350  0.1825
 1562TIP3   OH226176   3.223   6.196   0.541 -0.2165 -0.6488 -0.1526
 1562TIP3    H126177   3.204   6.271   0.597  2.3359 -0.9622  1.2132
 1562TIP3    H226178   3.265   6.233   0.464  0.6023 -0.6247  0.3025
 1563TIP3   OH226179   6.186   6.570  12.535  0.2521  0.1867 -0.0367
 1563TIP3    H126180   6.123   6.524  12.590 -0.6715  2.2843  0.7056
 1563TIP3    H226181   6.233   6.628  12.594 -1.4543  3.2361 -1.5267
 1564TIP3   OH226182   2.492   6.332  15.932  0.0616  0.9596  0.3242
 1564TIP3    H126183   2.399   6.354  15.925 -0.2420 -0.1494  0.6738
 1564TIP3    H226184   2.507   6.268  15.863  0.3783  0.5657  0.7468
 1565TIP3   OH226185   1.081   3.997   0.306  0.1879  0.0724  0.2109
 1565TIP3    H126186   1.020   4.005   0.232  0.0905 -0.2744  0.2536
 1565TIP3    H226187   1.042   3.931   0.363  1.6505 -1.7515 -0.8222
 1566TIP3   OH226188   5.953   4.515   1.511 -0.2239 -0.1378  0.0341
 1566TIP3    H126189   6.039   4.494   1.545  0.3966 -0.4939 -1.6987
 1566TIP3    H226190   5.926   4.437   1.463 -0.9468  0.4471 -0.5325
 1567TIP3   OH226191   2.176   6.710  12.113 -0.8219  0.0788 -0.1791
 1567TIP3    H126192   2.153   6.702  12.020  1.4125  2.4271 -0.9800
 1567TIP3    H226193   2.222   6.628  12.133 -0.2082  0.0834 -1.4872
 1568TIP3   OH226194   0.002   2.451   6.257 -0.1752 -0.6049 -0.3220
 1568TIP3    H126195  -0.074   2.397   6.233 -0.8504  0.4386 -0.5375
 1568TIP3    H226196   0.002   2.522   6.194  1.0297 -0.6304 -0.3528
 1569TIP3   OH226197   2.979   2.499   5.475  0.7868 -0.2251  0.5977
 1569TIP3    H126198   2.935   2.461   5.550  2.4897 -0.0752  1.7154
 1569TIP3    H226199   3.011   2.584   5.506  0.6116  0.2888 -0.6013
 1570TIP3   OH226200   0.027   2.698  14.522 -0.2413  0.0791 -0.0579
 1570TIP3    H126201   0.116   2.733  14.516 -0.2965  0.2630  0.1966
 1570TIP3    H226202   0.022   2.634  14.451 -0.3669  1.0868 -0.9667
 1571TIP3   OH226203   2.433   2.029   5.608  0.2083  1.0292  0.1264
 1571TIP3    H126204   2.477   1.988   5.534  1.3382  0.9633  0.8173
 1571TIP3    H226205   2.415   1.957   5.669 -1.6575  0.9205 -0.5267
 1572TIP3   OH226206   4.385   4.112  13.635  0.3609 -0.3006  0.6055
 1572TIP3    H126207   4.435   4.060  13.698  0.3670 -0.6147  0.3430
 1572TIP3    H226208   4.402   4.071  13.551 -0.3395 -0.4134  0.5137
 1573TIP3   OH226209   5.138   6.247  15.552 -0.1737 -0.5507  0.3674
 1573TIP3    H126210   5.144   6.152  15.567 -0.7840 -0.6331  0.0988
 1573TIP3    H226211   5.215   6.283  15.596 -0.3426 -1.0951  1.1299
 1574TIP3   OH226212   4.651   5.231   0.270  0.0184 -0.1018 -0.2337
 1574TIP3    H126213   4.621   5.221   0.179 -1.0173 -0.1588  0.1050
 1574TIP3    H226214   4.697   5.315   0.270 -0.1713  0.0076 -0.7641
 1575TIP3   OH226215   0.181   5.811  15.974 -0.4070 -0.5149  0.2998
 1575TIP3    H126216   0.208   5.873  16.041 -2.4887 -0.0792  0.7664
 1575TIP3    H226217   0.200   5.725  16.012  1.6032 -0.2005  0.0372
 1576TIP3   OH226218   1.011   4.467   2.733  0.0693 -0.0246  0.1982
 1576TIP3    H126219   1.089   4.492   2.784  1.0360  1.1655 -1.7904
 1576TIP3    H226220   0.953   4.543   2.741 -0.8823 -0.8814  1.6163
 1577TIP3   OH226221   1.338   0.928   5.232 -0.1217 -0.3888 -0.5733
 1577TIP3    H126222   1.331   0.840   5.196  0.2928 -0.4645 -0.4766
 1577TIP3    H226223   1.428   0.955   5.213 -0.0475 -0.2426 -0.0304
 1578TIP3   OH226224   2.075   0.579  15.508  0.3973 -0.0680  0.8633
 1578TIP3    H126225   2.018   0.619  15.442  1.4548 -1.0412 -0.6803
 1578TIP3    H226226   2.018   0.561  15.582 -0.8502  0.9063  0.1507
 1579TIP3   OH226227   1.177   5.825   2.809  0.1861 -0.2798  0.0172
 1579TIP3    H126228   1.256   5.783   2.841  0.2948  1.5776  2.3114
 1579TIP3    H226229   1.107   5.791   2.865 -0.2658 -0.1201 -0.4422
 1580TIP3   OH226230   0.629   2.275  11.912 -0.1856  0.0527  0.2562
 1580TIP3    H126231   0.625   2.357  11.961  0.0953 -0.6831  1.5221
 1580TIP3    H226232   0.699   2.289  11.848  0.4721  0.4746  1.0618
 1581TIP3   OH226233   0.332   6.806  13.595  0.4356  0.0156 -0.3826
 1581TIP3    H126234   0.307   6.831  13.684 -0.3976 -1.5512 -0.1620
 1581TIP3    H226235   0.262   6.843  13.540  0.3359  0.0028 -0.2673
 1582TIP3   OH226236   0.428   5.159  11.957 -0.6980 -1.1616  0.3428
 1582TIP3    H126237   0.414   5.252  11.939 -1.0737 -1.4543 -0.9406
 1582TIP3    H226238   0.521   5.151  11.975 -0.5622 -0.6231 -0.1107
 1583TIP3   OH226239   3.626   0.336   1.831  0.2241 -0.4205 -0.0875
 1583TIP3    H126240   3.560   0.274   1.800  1.9882 -1.7789 -1.2223
 1583TIP3    H226241   3.586   0.422   1.817 -1.1419 -1.1949 -1.1430
 1584TIP3   OH226242   5.826   6.804  14.449  0.2444 -0.1669 -0.6826
 1584TIP3    H126243   5.815   6.745  14.374  0.6857 -0.5965 -0.4126
 1584TIP3    H226244   5.753   6.866  14.442 -1.0074 -1.5573 -0.2217
 1585TIP3   OH226245   1.661   6.180  10.519 -0.6512 -0.1075  0.2129
 1585TIP3    H126246   1.643   6.215  10.606 -1.2162 -0.4856  0.2462
 1585TIP3    H226247   1.755   6.198  10.505 -0.1157 -1.6547  1.6450
 1586TIP3   OH226248   1.473   3.647   4.683 -0.0556 -0.9023 -0.0876
 1586TIP3    H126249   1.544   3.609   4.735 -0.1956  0.7856  1.4031
 1586TIP3    H226250   1.425   3.572   4.650  1.7386 -2.0615 -0.1597
 1587TIP3   OH226251   5.628   0.100  16.375  0.1265  0.0921  0.5650
 1587TIP3    H126252   5.709   0.050  16.360  0.4275  0.7721 -0.1525
 1587TIP3    H226253   5.565   0.061  16.315 -0.2170 -0.7304  1.4389
 1588TIP3   OH226254   2.330   5.366  13.411 -0.1978  0.4137  0.4933
 1588TIP3    H126255   2.373   5.446  13.379 -0.3359 -0.1588 -1.1870
 1588TIP3    H226256   2.258   5.398  13.465 -2.3088  1.5307 -2.8227
 1589TIP3   OH226257   0.332   1.784  16.570 -0.2095 -0.0288  0.3021
 1589TIP3    H126258   0.380   1.790  16.653 -1.5800  0.1357  1.1121
 1589TIP3    H226259   0.399   1.768  16.504  1.0012  0.6962  1.3355
 1590TIP3   OH226260   2.540   0.866  11.215 -0.6974  0.1027  0.3441
 1590TIP3    H126261   2.507   0.826  11.295 -0.9710  0.3198  0.3398
 1590TIP3    H226262   2.608   0.806  11.184 -1.6359 -0.7510 -0.0816
 1591TIP3   OH226263   5.312   3.247   4.377 -0.8254  0.1540 -0.6175
 1591TIP3    H126264   5.327   3.160   4.415  0.1006  0.4296 -0.3378
 1591TIP3    H226265   5.261   3.294   4.443  1.4316  0.8855  0.6447
 1592TIP3   OH226266   3.609   0.762   3.468 -0.0427  0.5957  0.0678
 1592TIP3    H126267   3.653   0.840   3.503  0.7690 -0.5020  1.5443
 1592TIP3    H226268   3.599   0.780   3.375  1.0141  2.0574  0.2216
 1593TIP3   OH226269   1.882   1.729  12.284  0.6367 -0.1560  0.2046
 1593TIP3    H126270   1.861   1.816  12.320 -3.4765 -0.5188 -1.0081
 1593TIP3    H226271   1.948   1.746  12.217 -0.6299  2.1647 -0.5141
 1594TIP3   OH226272   5.137   2.805  12.260 -0.0176  0.4503 -0.1274
 1594TIP3    H126273   5.154   2.767  12.346 -1.6138  0.4858  0.2272
 1594TIP3    H226274   5.078   2.878  12.278 -0.1189  0.6459 -1.2237
 1595TIP3   OH226275   4.714   1.754  13.313  0.1104  0.3065  0.3429
 1595TIP3    H126276   4.622   1.729  13.302  0.3145 -0.3499  0.0740
 1595TIP3    H226277   4.762   1.671  13.303  0.5798  0.2936  2.4042
 1596TIP3   OH226278   3.538   5.189  12.701 -0.2591  0.0028 -0.5093
 1596TIP3    H126279   3.553   5.252  12.630 -1.0835  0.0415 -0.6509
 1596TIP3    H226280   3.619   5.138  12.704 -0.5651 -0.6394 -2.1451
 1597TIP3   OH226281   2.921   5.648  16.725  0.2742 -0.1352  0.3268
 1597TIP3    H126282   2.900   5.739  16.743  0.8201  0.0519  0.0426
 1597TIP3    H226283   2.972   5.651  16.644 -0.8165 -0.8085 -0.3962
 1598TIP3   OH226284   0.063   1.233   6.230 -0.3306  0.0333 -0.6998
 1598TIP3    H126285  -0.003   1.178   6.188 -0.3286 -0.6710  0.2282
 1598TIP3    H226286   0.098   1.180   6.301 -0.5829  1.3633  0.4319
 1599TIP3   OH226287   4.014   2.877  12.166 -0.2200 -0.2734 -0.4383
 1599TIP3    H126288   3.990   2.811  12.231 -0.5983 -0.3042 -0.6086
 1599TIP3    H226289   3.984   2.840  12.083 -2.4005  1.1093 -0.2753
 1600TIP3   OH226290   3.318   1.951   3.030 -0.5743 -0.4564 -0.3543
 1600TIP3    H126291   3.302   1.858   3.014  0.0469 -0.3894 -1.4306
 1600TIP3    H226292   3.238   1.983   3.070 -0.3838 -1.6966  1.0673
 1601TIP3   OH226293   0.588   5.053  12.640 -0.2114 -0.1871 -0.5192
 1601TIP3    H126294   0.678   5.073  12.612  0.5173 -1.0799  1.0752
 1601TIP3    H226295   0.593   5.053  12.736 -1.9197 -0.2881 -0.4156
 1602TIP3   OH226296   1.602   3.533  13.385 -0.5988  0.6801  0.6377
 1602TIP3    H126297   1.568   3.623  13.387  1.1252  1.3269  1.5072
 1602TIP3    H226298   1.563   3.492  13.463 -1.0372  0.7972  0.4809
 1603TIP3   OH226299   5.266   4.668  16.549  0.2627 -0.0608  0.1870
 1603TIP3    H126300   5.346   4.713  16.575  1.7183 -2.4335 -0.0634
 1603TIP3    H226301   5.262   4.681  16.454 -0.2778  1.0094  0.3445
 1604TIP3   OH226302   3.122   4.287   3.318 -0.2345 -0.0291  0.1688
 1604TIP3    H126303   3.106   4.329   3.402 -0.7874 -0.0371  0.0645
 1604TIP3    H226304   3.037   4.286   3.274  0.3085  1.2429 -0.9791
 1605TIP3   OH226305   1.253   5.922  11.583 -0.1864 -0.2733  0.3959
 1605TIP3    H126306   1.169   5.962  11.604  0.8535  0.6526  2.9705
 1605TIP3    H226307   1.269   5.945  11.491 -2.2033  0.4644  0.2179
 1606TIP3   OH226308   4.202   3.529   2.383  0.1610 -0.0914 -0.3100
 1606TIP3    H126309   4.245   3.458   2.334  0.3055  1.0387 -1.8605
 1606TIP3    H226310   4.112   3.498   2.396  0.3292 -0.7222 -0.6383
 1607TIP3   OH226311   4.145   3.254  10.875 -0.3290 -0.9100 -0.0143
 1607TIP3    H126312   4.085   3.325  10.898  0.7306  0.3558 -1.0312
 1607TIP3    H226313   4.125   3.235  10.783  2.2383  1.0190 -1.0339
 1608TIP3   OH226314   2.264   2.686  12.932  0.4415 -0.1139  0.0815
 1608TIP3    H126315   2.294   2.708  13.020 -0.6530  0.4843  0.3192
 1608TIP3    H226316   2.191   2.626  12.946  0.1504  0.1227 -0.4156
 1609TIP3   OH226317   6.709   1.919  13.664 -0.2088  1.0692  0.3337
 1609TIP3    H126318   6.642   1.969  13.617 -1.5798  0.3835  1.5241
 1609TIP3    H226319   6.687   1.930  13.756 -0.7028 -1.9324  0.6246
 1610TIP3   OH226320   2.145   0.264  12.947 -0.3851 -1.0438 -0.1767
 1610TIP3    H126321   2.126   0.349  12.986  0.1035 -0.1570 -1.8285
 1610TIP3    H226322   2.138   0.202  13.020  0.3289  0.5402  1.2703
 1611TIP3   OH226323   6.408   0.284  11.321 -0.5744  0.3605 -0.3261
 1611TIP3    H126324   6.333   0.336  11.293  0.4916  1.8761 -0.4596
 1611TIP3    H226325   6.484   0.341  11.306  0.5008 -0.7210  0.8273
 1612TIP3   OH226326   1.984   6.261  12.616  0.6757  0.3512 -0.0874
 1612TIP3    H126327   1.978   6.195  12.547  1.3135 -1.7707  1.8239
 1612TIP3    H226328   1.900   6.255  12.661  0.6878  0.9448  0.0165
 1613TIP3   OH226329   3.067   3.556   0.359  0.5580 -0.0185  0.3333
 1613TIP3    H126330   3.120   3.521   0.287 -0.8528  0.1383 -0.8239
 1613TIP3    H226331   2.977   3.553   0.325  0.0920  1.9838  1.3265
 1614TIP3   OH226332   0.662   4.816   4.744 -0.1250 -0.0431 -0.1060
 1614TIP3    H126333   0.692   4.837   4.832 -0.3421 -2.4765  0.5965
 1614TIP3    H226334   0.740   4.781   4.700 -0.6646 -1.4770  0.0490
 1615TIP3   OH226335   2.640   5.872  13.804 -0.3646 -0.3297 -0.1315
 1615TIP3    H126336   2.635   5.871  13.899  0.3507  1.8513 -0.0491
 1615TIP3    H226337   2.731   5.852  13.784 -0.9707 -3.0019 -0.4701
 1616TIP3   OH226338   0.070   2.675   2.513  0.0954  0.0878  0.5197
 1616TIP3    H126339   0.159   2.653   2.487  0.1328 -0.0192  0.7397
 1616TIP3    H226340   0.067   2.659   2.607  0.0320  0.7170  0.6329
 1617TIP3   OH226341   0.914   5.578  11.643  0.1405 -0.5069  0.0043
 1617TIP3    H126342   0.880   5.544  11.561  1.8561  0.0441 -0.9623
 1617TIP3    H226343   0.848   5.639  11.673 -0.9351 -1.4202 -0.4773
 1618TIP3   OH226344   3.666   5.574   4.955  0.1135  0.1834 -0.5152
 1618TIP3    H126345   3.591   5.558   5.013 -0.1144  0.5788 -0.6941
 1618TIP3    H226346   3.728   5.505   4.976  0.0151  0.3033  0.1703
 1619TIP3   OH226347   6.781   5.773  13.573 -0.5888  0.4503  0.6016
 1619TIP3    H126348   6.776   5.741  13.483  1.2798 -1.5017  1.1497
 1619TIP3    H226349   6.864   5.822  13.576  0.1798 -0.8587  1.6325
 1620TIP3   OH226350   2.137   0.175   6.427  0.3426  0.2830 -0.5883
 1620TIP3    H126351   2.189   0.255   6.434  2.0048 -0.9002  1.3097
 1620TIP3    H226352   2.200   0.104   6.444 -1.2978 -1.3573 -1.2055
 1621TIP3   OH226353   5.914   6.138  14.223  0.4273  0.3925 -0.2292
 1621TIP3    H126354   5.974   6.101  14.157 -0.5901 -1.5487 -0.1102
 1621TIP3    H226355   5.829   6.142  14.179 -0.1000 -0.2252  0.7124
 1622TIP3   OH226356   2.685   5.857  11.332 -0.5917 -0.8516 -0.0903
 1622TIP3    H126357   2.656   5.769  11.310 -1.6377 -0.4679 -0.2694
 1622TIP3    H226358   2.610   5.896  11.378  0.4166 -0.5807  1.3628
 1623TIP3   OH226359   6.141   0.272   2.167 -0.2754 -0.2074 -0.3866
 1623TIP3    H126360   6.232   0.274   2.137 -0.0959 -1.6483  0.0311
 1623TIP3    H226361   6.092   0.316   2.098  0.8542  1.4391 -0.1687
 1624TIP3   OH226362   6.528   0.765   3.822 -0.3806 -0.1423  0.0524
 1624TIP3    H126363   6.538   0.680   3.864 -0.7019  0.1124  0.6411
 1624TIP3    H226364   6.442   0.763   3.781  0.8610 -1.2942 -2.6713
 1625TIP3   OH226365   6.753   3.149  12.703 -0.6755  0.3316 -0.3295
 1625TIP3    H126366   6.717   3.067  12.671 -1.2576 -0.1692  1.5307
 1625TIP3    H226367   6.711   3.162  12.788  0.6114  1.7395  0.1177
 1626TIP3   OH226368   4.091   0.977   3.095  0.3187  0.4610  0.7420
 1626TIP3    H126369   4.132   0.897   3.129  1.6339 -0.4804 -2.8731
 1626TIP3    H226370   4.164   1.035   3.076 -0.3010  0.5646 -1.3773
 1627TIP3   OH226371   0.545   6.155  17.145  0.0516  0.1190  0.2812
 1627TIP3    H126372   0.606   6.083  17.162 -0.4290 -0.1413  0.9061
 1627TIP3    H226373   0.542   6.161  17.049  2.0503  0.9834  0.2446
 1628TIP3   OH226374   3.596   4.630   0.451 -0.0501  0.1407  0.2239
 1628TIP3    H126375   3.523   4.610   0.392  0.9954  1.2844 -1.4853
 1628TIP3    H226376   3.618   4.721   0.431  1.6894 -0.1229  0.9160
 1629TIP3   OH226377   3.572   6.202   0.722  0.3164  0.1296  0.0885
 1629TIP3    H126378   3.607   6.117   0.747  0.5034 -0.1374 -1.0565
 1629TIP3    H226379   3.480   6.200   0.748  0.3613 -0.3662  0.1954
 1630TIP3   OH226380   4.197   4.595  11.606 -0.0785  0.4332 -0.5661
 1630TIP3    H126381   4.225   4.628  11.521 -0.1699 -0.4481 -0.9401
 1630TIP3    H226382   4.124   4.537  11.587 -1.5358  1.9175  0.3184
 1631TIP3   OH226383   3.523   4.606  12.127  0.1471 -0.2493  0.2835
 1631TIP3    H126384   3.518   4.586  12.220 -0.4265  1.3631  0.6250
 1631TIP3    H226385   3.611   4.642  12.115 -0.9806  2.8827  0.9402
 1632TIP3   OH226386   5.387   6.165  14.939 -0.0898 -0.0945  0.1306
 1632TIP3    H126387   5.380   6.220  15.017 -1.4559  0.5926 -0.4450
 1632TIP3    H226388   5.305   6.181  14.892  1.1594  0.3686 -1.9803
 1633TIP3   OH226389   0.741   2.384   0.085  0.0922  0.3520  0.4827
 1633TIP3    H126390   0.649   2.364   0.101 -0.3253  1.5285 -0.3877
 1633TIP3    H226391   0.740   2.469   0.040  1.4424 -0.9453 -2.1173
 1634TIP3   OH226392   6.438   1.898  11.866  0.2308  0.1487 -0.1450
 1634TIP3    H126393   6.363   1.838  11.864  0.6610 -0.3751 -1.8034
 1634TIP3    H226394   6.431   1.947  11.784  1.4233  0.4389 -0.0845
 1635TIP3   OH226395   6.492   0.453   3.062  0.0637 -0.0621 -0.3618
 1635TIP3    H126396   6.417   0.509   3.047  0.5528  1.6577  2.9659
 1635TIP3    H226397   6.470   0.404   3.142  1.9355 -0.4369 -0.0388
 1636TIP3   OH226398   0.631   4.541   4.679 -0.1458 -0.4672  0.2352
 1636TIP3    H126399   0.567   4.484   4.637 -1.7889  1.3027  0.3120
 1636TIP3    H226400   0.626   4.623   4.631  2.3741 -0.4062 -0.0275
 1637TIP3   OH226401   5.067   4.463  12.848  0.2632 -0.3636 -0.2720
 1637TIP3    H126402   5.032   4.508  12.925  1.7527 -0.0702  0.2386
 1637TIP3    H226403   5.086   4.532  12.786 -1.1684 -0.6200 -1.0220
 1638TIP3   OH226404   2.518   1.103  16.616 -0.1520  0.1799  0.6671
 1638TIP3    H126405   2.598   1.147  16.645 -0.4108  2.0293 -1.2283
 1638TIP3    H226406   2.467   1.173  16.574 -0.8302 -1.8096 -1.9445
 1639TIP3   OH226407   6.193   3.987   4.671 -0.2495 -0.1388 -0.3927
 1639TIP3    H126408   6.224   4.070   4.705  1.6223 -1.1350  0.3940
 1639TIP3    H226409   6.099   3.986   4.692  0.4553  0.1149  3.0455
 1640TIP3   OH226410   3.220   2.026  16.093  0.3245  0.4859  0.6800
 1640TIP3    H126411   3.212   1.999  16.185 -0.2831 -0.6722  0.3000
 1640TIP3    H226412   3.309   2.060  16.086  0.6139 -0.0747  1.5383
 1641TIP3   OH226413   3.402   6.763   3.775 -0.9409 -0.0175 -0.0691
 1641TIP3    H126414   3.329   6.823   3.762 -0.8757 -0.0528 -0.5967
 1641TIP3    H226415   3.441   6.753   3.689  0.3638  0.8568  0.4119
 1642TIP3   OH226416   6.488   5.184   5.670 -0.5790 -0.7572  0.2093
 1642TIP3    H126417   6.494   5.141   5.585 -1.5881 -0.2487 -0.1369
 1642TIP3    H226418   6.532   5.125   5.731  0.2610 -1.0662 -0.6864
 1643TIP3   OH226419   3.968   1.924   5.553  0.4343  0.6600  0.2150
 1643TIP3    H126420   4.054   1.930   5.513 -0.4986 -0.1042 -1.9976
 1643TIP3    H226421   3.937   1.836   5.531 -0.0890  0.1864  2.7121
 1644TIP3   OH226422   2.859   3.219  13.921  0.6733  0.2312  0.0363
 1644TIP3    H126423   2.903   3.162  13.984 -2.1322  0.5272  2.3487
 1644TIP3    H226424   2.916   3.296  13.914  0.8592  0.3676  2.5367
 1645TIP3   OH226425   3.193   0.711  11.548  0.7156 -0.3946 -0.4099
 1645TIP3    H126426   3.253   0.637  11.554 -0.8876 -1.6012  1.3085
 1645TIP3    H226427   3.119   0.678  11.497  0.5937  0.4310 -0.7658
 1646TIP3   OH226428   5.231   6.764  11.336  0.4051  0.0554 -0.0362
 1646TIP3    H126429   5.215   6.821  11.411  2.3507  0.1714  0.3038
 1646TIP3    H226430   5.281   6.819  11.275  0.3292 -0.5833 -0.6795
 1647TIP3   OH226431   1.558   6.480   0.120 -0.1839 -0.1735 -0.0455
 1647TIP3    H126432   1.563   6.548   0.054 -0.7404 -1.0076 -0.9705
 1647TIP3    H226433   1.641   6.433   0.112  0.4459  0.7483  0.9924
 1648TIP3   OH226434   0.507   4.425  12.108 -0.2009  0.3475 -0.0116
 1648TIP3    H126435   0.462   4.469  12.035 -2.9089 -0.5272  1.0502
 1648TIP3    H226436   0.502   4.487  12.180  1.6573  0.8403 -0.2927
 1649TIP3   OH226437   6.166   3.522   3.151 -0.2288 -0.3898  0.5685
 1649TIP3    H126438   6.257   3.515   3.125 -0.4636 -0.3152 -0.2763
 1649TIP3    H226439   6.153   3.615   3.171 -0.1958 -0.3525  0.4145
 1650TIP3   OH226440   3.960   6.273  10.932 -0.3889  0.7223 -0.3785
 1650TIP3    H126441   3.870   6.265  10.903  0.3901  1.1784 -3.0418
 1650TIP3    H226442   4.012   6.271  10.852  1.9257  1.1281  1.0482
 1651TIP3   OH226443   5.734   4.501  13.980  0.1093  0.1630  0.0915
 1651TIP3    H126444   5.683   4.528  13.903  1.0749  0.5441 -0.4139
 1651TIP3    H226445   5.705   4.561  14.049 -1.2369 -0.6021  0.2089
 1652TIP3   OH226446   4.595   0.782   1.348 -0.0269  0.0259  0.4540
 1652TIP3    H126447   4.610   0.871   1.381  0.8716  0.6541 -1.5483
 1652TIP3    H226448   4.501   0.770   1.356 -0.1569  1.1403  0.7890
 1653TIP3   OH226449   5.455   5.428  16.883 -0.0131  0.9670  0.0195
 1653TIP3    H126450   5.543   5.464  16.879 -0.2466  1.7390  1.8171
 1653TIP3    H226451   5.468   5.335  16.904  0.3331  1.3906  1.7608
 1654TIP3   OH226452   6.678   3.889   3.556 -0.6123 -0.2739  0.3891
 1654TIP3    H126453   6.774   3.894   3.566 -0.5784 -1.1540  0.5593
 1654TIP3    H226454   6.650   3.837   3.632 -1.4315  1.6350  1.4204
 1655TIP3   OH226455   2.058   6.612   2.489  0.3958 -0.7213  0.1597
 1655TIP3    H126456   2.077   6.639   2.399 -0.4557 -2.2646 -0.5111
 1655TIP3    H226457   2.069   6.517   2.488  1.5823 -0.6254  2.0057
 1656TIP3   OH226458   5.515   2.852  11.696  0.3606 -0.0182 -0.5551
 1656TIP3    H126459   5.610   2.835  11.698  0.4601  0.5859  0.8589
 1656TIP3    H226460   5.493   2.855  11.603  1.8009  0.1981 -0.9076
 1657TIP3   OH226461   2.739   1.046  12.865  0.2841 -0.1771  0.1073
 1657TIP3    H126462   2.768   1.108  12.932  1.0628  1.9319 -2.0952
 1657TIP3    H226463   2.763   1.088  12.782  0.5581 -3.3177 -1.4725
 1658TIP3   OH226464   2.246   0.122   0.098  0.1409 -0.0736 -0.2985
 1658TIP3    H126465   2.151   0.128   0.109  0.2934  1.8319  0.1121
 1658TIP3    H226466   2.258   0.091   0.008 -0.8628 -0.6130 -0.2587
 1659TIP3   OH226467   3.866   6.218   4.737 -0.1235 -0.0353  0.1136
 1659TIP3    H126468   3.945   6.241   4.786 -0.2710 -1.5262  1.0946
 1659TIP3    H226469   3.795   6.224   4.801 -0.9417  2.0023 -0.9345
 1660TIP3   OH226470   0.538   3.633   0.614 -0.2014 -0.0787 -0.0036
 1660TIP3    H126471   0.511   3.570   0.680  1.0899 -0.4933  0.1387
 1660TIP3    H226472   0.457   3.653   0.566 -0.6572 -1.6771  0.0745
 1661TIP3   OH226473   0.951   5.774   5.305 -0.4727  0.3820 -0.2749
 1661TIP3    H126474   0.914   5.731   5.228  0.7634 -0.0665 -0.6178
 1661TIP3    H226475   0.977   5.703   5.363  2.5103  0.5940 -1.2831
 1662TIP3   OH226476   3.502   5.723  16.099 -0.4032 -0.6440 -0.3372
 1662TIP3    H126477   3.444   5.673  16.043 -0.8709 -0.4207 -0.0527
 1662TIP3    H226478   3.493   5.813  16.068  0.1324 -0.6724 -0.5856
 1663TIP3   OH226479   5.737   1.657   1.344 -0.0514 -0.6913 -0.2295
 1663TIP3    H126480   5.718   1.701   1.426  0.0321 -2.8143  0.9742
 1663TIP3    H226481   5.666   1.594   1.333  1.1635 -2.0499 -0.5614
 1664TIP3   OH226482   0.514   2.918   4.199  0.3268  0.4187 -0.4412
 1664TIP3    H126483   0.468   3.000   4.178  1.4314  0.8350 -1.2453
 1664TIP3    H226484   0.546   2.886   4.114 -0.3705 -1.0181 -0.1796
 1665TIP3   OH226485   2.540   6.787   3.135  0.2755  0.4985 -0.5152
 1665TIP3    H126486   2.484   6.794   3.058  1.8231  0.4085 -1.6840
 1665TIP3    H226487   2.490   6.828   3.205 -0.8459  1.2676 -1.7390
 1666TIP3   OH226488   5.812   0.121   4.124  0.7339 -0.0099  0.2887
 1666TIP3    H126489   5.824   0.148   4.033  1.8992 -0.4738  0.2987
 1666TIP3    H226490   5.756   0.044   4.119  0.1332  0.4402  0.0222
 1667TIP3   OH226491   4.138   4.193  12.726  0.0498 -0.2023  0.1015
 1667TIP3    H126492   4.090   4.115  12.697 -2.0373  0.5819  1.3514
 1667TIP3    H226493   4.160   4.239  12.645  0.1644 -1.4369 -0.5821
 1668TIP3   OH226494   4.538   1.490  11.566 -0.0348 -1.0462  0.3814
 1668TIP3    H126495   4.576   1.576  11.583  0.2930 -1.0219 -0.4512
 1668TIP3    H226496   4.494   1.499  11.481 -0.4512 -1.5478  0.5390
 1669TIP3   OH226497   3.028   1.416  14.055 -0.3982 -0.2937  0.2546
 1669TIP3    H126498   3.092   1.487  14.043  0.3673 -0.6132  2.1732
 1669TIP3    H226499   3.011   1.416  14.149 -1.1549 -2.0200  0.1346
 1670TIP3   OH226500   2.522   6.666   1.844 -0.3646 -0.2350  0.2558
 1670TIP3    H126501   2.610   6.665   1.883  0.1538 -0.0107 -0.9032
 1670TIP3    H226502   2.538   6.665   1.750 -1.6243 -0.9651  0.0490
 1671TIP3   OH226503   0.483   3.679   5.929  0.5353 -0.7042  0.1257
 1671TIP3    H126504   0.523   3.606   5.975  0.2650 -0.5299  0.6335
 1671TIP3    H226505   0.477   3.749   5.994  1.7339  0.1228 -0.6059
 1672TIP3   OH226506   4.004   4.683   5.813  0.1440  0.0139 -0.3772
 1672TIP3    H126507   4.035   4.718   5.730  1.1352 -0.5336 -0.2473
 1672TIP3    H226508   4.064   4.611   5.833 -2.7546 -2.8060 -1.4167
 1673TIP3   OH226509   5.206   4.246  15.318 -0.0949  0.3078 -0.5968
 1673TIP3    H126510   5.139   4.279  15.379  0.3046 -0.4083  0.2434
 1673TIP3    H226511   5.239   4.325  15.274 -1.3270  0.6898 -0.8636
 1674TIP3   OH226512   5.133   1.758  16.770 -0.7359 -0.2473 -0.0175
 1674TIP3    H126513   5.061   1.729  16.826 -0.6140  0.3958  0.4791
 1674TIP3    H226514   5.090   1.796  16.693 -0.9083 -0.8831 -0.2372
 1675TIP3   OH226515   6.746   0.982   5.048 -0.1367  0.5869  0.3914
 1675TIP3    H126516   6.724   1.075   5.059 -2.5275  0.3963 -2.3208
 1675TIP3    H226517   6.679   0.936   5.098  1.2786  0.2863  2.0602
 1676TIP3   OH226518   0.827   1.649  12.011 -0.4677  0.1786  0.0930
 1676TIP3    H126519   0.751   1.683  12.058  0.2227  3.8004 -1.2034
 1676TIP3    H226520   0.833   1.705  11.933  1.8417 -1.8994 -1.2880
 1677TIP3   OH226521   1.284   2.089  15.818  0.1451 -0.8720  0.0771
 1677TIP3    H126522   1.298   1.998  15.846 -0.1225 -0.7328  0.6886
 1677TIP3    H226523   1.319   2.141  15.890 -1.9623 -0.5111  0.8942
 1678TIP3   OH226524   3.948   1.598  17.285  0.5520  0.6360  0.1879
 1678TIP3    H126525   4.022   1.580  17.343  1.3294  1.0551 -0.6602
 1678TIP3    H226526   3.876   1.547  17.322  1.9259 -1.8735 -0.4475
 1679TIP3   OH226527   2.200   3.337  16.561 -0.1267 -0.0589 -0.5906
 1679TIP3    H126528   2.147   3.386  16.624 -1.2417 -1.1873 -0.6226
 1679TIP3    H226529   2.291   3.355  16.586 -0.5541 -0.4880  1.3228
 1680TIP3   OH226530   0.337   6.485   5.480  0.2420 -0.4160  0.4161
 1680TIP3    H126531   0.289   6.461   5.560 -1.6885  1.1548 -0.2234
 1680TIP3    H226532   0.409   6.540   5.511  0.9677 -1.8288  1.2859
 1681TIP3   OH226533   3.067   1.690  14.921 -0.2703 -0.3224 -0.3916
 1681TIP3    H126534   2.973   1.687  14.939 -0.4058  2.7132 -0.4800
 1681TIP3    H226535   3.106   1.632  14.987 -2.0158 -0.0775  0.8645
 1682TIP3   OH226536   3.181   0.113   2.735 -0.0856 -0.6684 -0.1794
 1682TIP3    H126537   3.251   0.114   2.670  0.3358  0.6089  0.2746
 1682TIP3    H226538   3.102   0.136   2.685  0.4233  1.4658 -0.0674
 1683TIP3   OH226539   4.859   4.535  16.917 -0.2780  0.5861 -0.1484
 1683TIP3    H126540   4.838   4.615  16.869  1.3676  0.6876 -0.7275
 1683TIP3    H226541   4.926   4.491  16.863 -0.7216 -0.8780  0.4640
 1684TIP3   OH226542   1.738   5.136  13.110  0.1086  0.2956  0.6640
 1684TIP3    H126543   1.799   5.205  13.085  0.1152 -0.5791 -1.9598
 1684TIP3    H226544   1.654   5.180  13.120  0.0555  0.6578 -1.2470
 1685TIP3   OH226545   6.291   0.801   3.581  0.1054  0.0057 -0.0797
 1685TIP3    H126546   6.219   0.846   3.625 -1.0848 -2.0552  0.1941
 1685TIP3    H226547   6.315   0.858   3.508 -1.2190  1.1492  0.3566
 1686TIP3   OH226548   3.066   4.325  16.772 -0.0775 -0.3496  0.0188
 1686TIP3    H126549   3.010   4.387  16.818 -0.1841 -0.3734 -0.0768
 1686TIP3    H226550   3.077   4.253  16.834 -0.2841 -0.4177 -0.0191
 1687TIP3   OH226551   6.159   0.718   5.097  0.0085 -0.7553 -0.2553
 1687TIP3    H126552   6.080   0.699   5.146  0.4698  0.2060  0.8785
 1687TIP3    H226553   6.158   0.656   5.024 -0.0253 -3.0769  1.6690
 1688TIP3   OH226554   2.100   1.166   4.747 -0.3711  0.1444 -0.3142
 1688TIP3    H126555   2.188   1.141   4.717  0.8313  1.2565  2.1742
 1688TIP3    H226556   2.049   1.086   4.738  0.9650 -0.6212 -1.4553
 1689TIP3   OH226557   2.178   2.021   5.728 -0.7345 -0.2422 -0.0429
 1689TIP3    H126558   2.178   1.986   5.817 -3.4903 -0.6246 -0.1369
 1689TIP3    H226559   2.243   1.969   5.681 -1.3628 -2.0467  1.0334
 1690TIP3   OH226560   5.805   3.041   6.723 -0.3908 -0.7360  0.3184
 1690TIP3    H126561   5.728   2.986   6.734 -0.7925  0.2559  2.8064
 1690TIP3    H226562   5.864   2.990   6.667 -1.4051 -2.9914  1.2448
 1691TIP3   OH226563   2.685   5.318   4.163 -0.3269 -0.4621  0.0753
 1691TIP3    H126564   2.717   5.249   4.222  0.0277  1.0488  1.7185
 1691TIP3    H226565   2.758   5.335   4.104  0.4265  0.1160  1.1662
 1692TIP3   OH226566   5.548   4.506  15.410 -0.0129 -0.2992  0.1992
 1692TIP3    H126567   5.500   4.499  15.327 -1.7560 -1.6670  1.2657
 1692TIP3    H226568   5.608   4.431  15.409 -0.7514 -0.9101  0.5852
 1693TIP3   OH226569   1.125   0.322   5.899  0.0804 -0.1040  0.1807
 1693TIP3    H126570   1.129   0.242   5.951 -0.6125  0.2580  0.7925
 1693TIP3    H226571   1.164   0.298   5.815  0.9267 -0.7702  0.7574
 1694TIP3   OH226572   0.598   0.890  15.291  0.0397 -0.1755  0.1291
 1694TIP3    H126573   0.560   0.807  15.319 -0.4129 -0.1117 -0.3021
 1694TIP3    H226574   0.610   0.880  15.196 -1.4350  0.8199 -0.1751
 1695TIP3   OH226575   5.799   4.369   4.769 -0.3785  0.3733  0.1959
 1695TIP3    H126576   5.756   4.454   4.757  0.4572  0.7484 -0.1678
 1695TIP3    H226577   5.772   4.317   4.693  0.4637  0.8847 -0.4610
 1696TIP3   OH226578   5.728   6.310  11.716 -0.5899 -0.1977  0.5084
 1696TIP3    H126579   5.781   6.387  11.735 -0.7110 -0.0508  0.2622
 1696TIP3    H226580   5.639   6.336  11.739 -0.8054  0.1422 -0.6874
 1697TIP3   OH226581   5.687   1.813  14.337 -0.2912 -0.7102  0.1461
 1697TIP3    H126582   5.763   1.840  14.390 -1.4936 -1.7039  2.4127
 1697TIP3    H226583   5.713   1.834  14.247  1.7363  1.1739  1.1113
 1698TIP3   OH226584   3.749   4.465  15.851  0.4111 -0.3299 -0.4513
 1698TIP3    H126585   3.767   4.559  15.860 -0.5019 -0.2390  0.6250
 1698TIP3    H226586   3.712   4.455  15.764 -0.0556  0.4126 -0.3417
 1699TIP3   OH226587   4.883   1.567  14.637 -0.2257 -0.3219  0.2222
 1699TIP3    H126588   4.872   1.628  14.711 -0.9102  0.2929 -0.3730
 1699TIP3    H226589   4.896   1.482  14.678 -1.9622 -0.2079  1.0628
 1700TIP3   OH226590   1.785   4.785   3.319 -0.3160 -0.0302 -0.4149
 1700TIP3    H126591   1.874   4.792   3.284 -0.3524  1.5397 -0.2581
 1700TIP3    H226592   1.785   4.704   3.369  0.9378 -0.2118 -0.6927
 1701TIP3   OH226593   6.407   5.980   0.345  0.1130 -0.3115 -0.2676
 1701TIP3    H126594   6.312   5.991   0.351  0.1870 -0.4620  1.3915
 1701TIP3    H226595   6.442   6.069   0.357  0.2423 -0.5036  0.7820
 1702TIP3   OH226596   1.960   5.097  16.635  0.1630  0.4160 -0.2991
 1702TIP3    H126597   1.940   5.004  16.635  1.2225  0.1831 -0.9250
 1702TIP3    H226598   2.055   5.102  16.626  0.0311  1.5663 -1.2762
 1703TIP3   OH226599   3.964   4.485   3.924  0.0713 -0.6730  0.1481
 1703TIP3    H126600   3.883   4.442   3.897  0.5973 -1.1681 -0.6575
 1703TIP3    H226601   3.962   4.480   4.019 -1.3675  0.2950  0.1946
 1704TIP3   OH226602   3.721   3.541  11.516 -0.7126 -0.4305 -0.2832
 1704TIP3    H126603   3.679   3.587  11.444 -1.9550 -2.0242 -0.6073
 1704TIP3    H226604   3.689   3.585  11.595  1.9840  2.4413 -0.6833
 1705TIP3   OH226605   3.262   5.694  11.406  0.6075  0.2436  0.3104
 1705TIP3    H126606   3.202   5.665  11.475 -1.3644 -1.2543 -1.9349
 1705TIP3    H226607   3.223   5.775  11.372  0.7959  0.2213  0.0384
 1706TIP3   OH226608   0.184   1.237  11.407  0.5057  0.3134 -0.4928
 1706TIP3    H126609   0.108   1.225  11.350  0.7788 -0.3412 -0.7230
 1706TIP3    H226610   0.226   1.317  11.375 -0.4636  1.0573  0.0717
 1707TIP3   OH226611   1.356   4.930   2.362 -0.0751 -0.0715  0.0491
 1707TIP3    H126612   1.373   4.990   2.435  1.2164 -0.5519  0.1548
 1707TIP3    H226613   1.428   4.946   2.301 -0.6123 -0.3691 -0.6698
 1708TIP3   OH226614   0.216   1.197   5.043 -0.6833  0.1511 -0.7856
 1708TIP3    H126615   0.283   1.129   5.046 -0.2039  0.5865 -1.5433
 1708TIP3    H226616   0.263   1.277   5.067 -1.5563 -0.0082  1.6684
 1709TIP3   OH226617   4.806   3.591   5.984 -0.4037  0.4553  0.1000
 1709TIP3    H126618   4.886   3.570   5.936 -0.9931 -0.9494 -0.3283
 1709TIP3    H226619   4.827   3.668   6.036  0.5837  1.3730 -1.6102
 1710TIP3   OH226620   2.379   1.113  12.064 -0.0164  0.0453 -0.1831
 1710TIP3    H126621   2.403   1.188  12.118 -1.3274 -1.2914  2.3338
 1710TIP3    H226622   2.286   1.125  12.046  0.2449  0.0971 -1.5403
 1711TIP3   OH226623   5.681   3.294  14.730 -0.6160  0.3899  0.4311
 1711TIP3    H126624   5.727   3.336  14.658  2.2737  0.2016  2.0706
 1711TIP3    H226625   5.624   3.361  14.766  0.8259  1.6519  0.3896
 1712TIP3   OH226626   2.741   3.704  12.729 -0.0297 -0.6079 -0.3940
 1712TIP3    H126627   2.746   3.613  12.699 -0.9493 -0.8001  0.0336
 1712TIP3    H226628   2.763   3.756  12.651  1.8150 -1.2204 -0.3135
 1713TIP3   OH226629   5.972   0.514   5.007  0.2308 -0.3243 -0.3916
 1713TIP3    H126630   6.015   0.480   4.928 -1.9560 -1.0990 -1.2983
 1713TIP3    H226631   5.879   0.507   4.988 -0.3398  3.3070  0.6709
 1714TIP3   OH226632   0.700   4.734   2.549  0.5534  0.1146  0.5694
 1714TIP3    H126633   0.740   4.815   2.579 -0.6182  2.0680 -2.8484
 1714TIP3    H226634   0.608   4.741   2.574  0.5381 -0.3471  0.6473
 1715TIP3   OH226635   6.351   0.418   4.900 -0.0295  0.0448 -0.2400
 1715TIP3    H126636   6.301   0.498   4.883  1.8572  0.8542 -2.1646
 1715TIP3    H226637   6.378   0.425   4.992 -2.3807  0.1572  0.4874
 1716TIP3   OH226638   4.002   0.408   3.829  0.1419 -0.0470  0.5623
 1716TIP3    H126639   3.932   0.473   3.820  0.2000  0.1075  1.1815
 1716TIP3    H226640   4.045   0.408   3.743  0.1522  0.7452  0.5606
 1717TIP3   OH226641   5.548   2.283   3.500  0.5460 -0.1177  0.1053
 1717TIP3    H126642   5.608   2.317   3.434 -0.3678  0.6516 -0.3415
 1717TIP3    H226643   5.468   2.262   3.451  0.1015 -0.1773  0.8537
 1718TIP3   OH226644   0.840   3.999  14.750  0.3895 -0.2201  0.3338
 1718TIP3    H126645   0.807   3.983  14.662 -0.8155  1.2175  0.4945
 1718TIP3    H226646   0.892   3.921  14.771 -0.5720 -1.2606 -1.0394
 1719TIP3   OH226647   3.845   3.575   3.760  0.1738 -0.2497  0.2659
 1719TIP3    H126648   3.815   3.663   3.735 -0.2589  0.2561  2.4928
 1719TIP3    H226649   3.888   3.542   3.681 -0.8690  1.4132 -1.0437
 1720TIP3   OH226650   6.227   5.319  11.202  0.3815  0.3330  0.4769
 1720TIP3    H126651   6.175   5.258  11.150 -1.3238  1.5717  0.6685
 1720TIP3    H226652   6.318   5.300  11.178 -0.2409 -0.7955 -1.0923
 1721TIP3   OH226653   4.991   5.238  14.052  0.2581  0.0547 -0.5219
 1721TIP3    H126654   4.964   5.290  14.128  1.7838 -0.6732  0.5718
 1721TIP3    H226655   4.911   5.221  14.004 -0.7413  0.5676  0.9276
 1722TIP3   OH226656   3.593   4.794  14.020  0.2732 -0.0229  0.0800
 1722TIP3    H126657   3.504   4.794  13.983 -0.5272 -1.0035  1.9321
 1722TIP3    H226658   3.624   4.704  14.005  1.6227  0.7759 -2.0669
 1723TIP3   OH226659   5.636   3.542  12.936 -0.0787  0.4795 -0.0689
 1723TIP3    H126660   5.546   3.515  12.954  0.9224 -1.7789  1.8248
 1723TIP3    H226661   5.661   3.594  13.012  0.7342 -0.2675  0.1835
 1724TIP3   OH226662   4.759   3.481  13.813 -0.2068  0.4129  0.1320
 1724TIP3    H126663   4.853   3.501  13.816  0.2423 -1.6608  1.8165
 1724TIP3    H226664   4.738   3.457  13.903 -1.9455 -0.9008 -0.6021
 1725TIP3   OH226665   6.667   2.619   4.882  0.2108  0.0896 -0.0623
 1725TIP3    H126666   6.577   2.609   4.914  0.6721  0.0315  1.2530
 1725TIP3    H226667   6.691   2.532   4.850 -0.6973  0.4521 -1.7801
 1726TIP3   OH226668   3.465   1.433   2.853  0.2019 -0.3983  0.5903
 1726TIP3    H126669   3.452   1.363   2.917 -1.8055  1.1854  1.9616
 1726TIP3    H226670   3.552   1.416   2.817  0.8774 -2.0077  2.8610
 1727TIP3   OH226671   3.155   1.766   2.720  0.1957 -0.0836  0.3281
 1727TIP3    H126672   3.063   1.768   2.748 -0.3011 -2.3736 -0.9696
 1727TIP3    H226673   3.189   1.685   2.757  1.7609  0.8522  0.9552
 1728TIP3   OH226674   5.119   5.580  12.556 -0.0697 -0.0846 -0.0734
 1728TIP3    H126675   5.053   5.518  12.523 -1.1558  1.3525 -0.6614
 1728TIP3    H226676   5.073   5.630  12.622  0.4070  0.9949 -0.5494
 1729TIP3   OH226677   0.787   0.862  12.267  0.1212 -0.6285  0.8653
 1729TIP3    H126678   0.744   0.793  12.217  0.2173  0.4490 -0.7496
 1729TIP3    H226679   0.878   0.859  12.237 -0.3950  1.8046 -1.1032
 1730TIP3   OH226680   6.136   3.400   0.288 -0.0614  0.0247  0.1843
 1730TIP3    H126681   6.189   3.457   0.232  0.5494 -0.1456  0.5933
 1730TIP3    H226682   6.081   3.351   0.227  0.7230 -0.2817 -0.2793
 1731TIP3   OH226683   4.544   6.399   3.811 -1.0292  0.5559 -0.1424
 1731TIP3    H126684   4.516   6.307   3.810  0.4487  0.0574  1.5190
 1731TIP3    H226685   4.614   6.403   3.746 -1.4040  0.6148 -0.5447
 1732TIP3   OH226686   3.438   4.529  12.644 -0.0071  0.4789 -0.5379
 1732TIP3    H126687   3.499   4.535  12.718 -1.5775 -1.4666  0.9686
 1732TIP3    H226688   3.465   4.600  12.585  1.1229  2.2553  2.0201
 1733TIP3   OH226689   6.242   1.337   3.974 -0.4157 -0.1343 -0.4781
 1733TIP3    H126690   6.315   1.316   4.032 -0.4517 -1.1187 -0.7815
 1733TIP3    H226691   6.164   1.310   4.024 -0.3084 -3.9597 -2.1764
 1734TIP3   OH226692   6.495   4.931  15.378  0.0661  0.2111  0.6498
 1734TIP3    H126693   6.531   4.843  15.393 -0.7320 -0.1640  0.4062
 1734TIP3    H226694   6.551   4.967  15.308 -1.4772 -1.2854 -1.4281
 1735TIP3   OH226695   5.373   2.841   3.736 -0.5542  0.0417 -0.2211
 1735TIP3    H126696   5.361   2.844   3.641  1.5844  1.6971 -0.4918
 1735TIP3    H226697   5.410   2.927   3.758 -1.8324  0.0009  2.2378
 1736TIP3   OH226698   3.123   1.686   1.709  0.5086  1.0511  0.6212
 1736TIP3    H126699   3.082   1.749   1.650 -0.2402  0.2883  0.3234
 1736TIP3    H226700   3.182   1.636   1.652  0.9241  1.3169  0.8135
 1737TIP3   OH226701   2.559   5.045   0.172 -0.0374  0.1199 -0.1262
 1737TIP3    H126702   2.559   4.950   0.164  0.0536  0.1291 -0.2379
 1737TIP3    H226703   2.467   5.070   0.167 -0.0460  0.0538 -0.2928
 1738TIP3   OH226704   4.451   2.382   3.568 -0.0902  0.2689 -0.6270
 1738TIP3    H126705   4.409   2.417   3.490  1.1392 -0.4220 -1.6070
 1738TIP3    H226706   4.380   2.340   3.617 -0.9912  1.3596 -0.9965
 1739TIP3   OH226707   5.115   5.303   1.452 -0.2628  1.2373 -0.1940
 1739TIP3    H126708   5.120   5.312   1.357  1.7100 -0.8459 -0.3359
 1739TIP3    H226709   5.117   5.208   1.467  0.7941  1.5663  1.9515
 1740TIP3   OH226710   3.745   2.418  16.842 -0.2364 -0.0080 -0.4201
 1740TIP3    H126711   3.674   2.355  16.861 -0.5767  0.2791 -0.7398
 1740TIP3    H226712   3.821   2.383  16.889 -0.7292 -0.0302  0.3738
 1741TIP3   OH226713   2.585   5.933   4.004 -0.0949  0.6493 -0.5156
 1741TIP3    H126714   2.509   5.881   4.030  1.1029 -0.9114 -0.1021
 1741TIP3    H226715   2.640   5.874   3.953  1.5822  1.2978  0.4789
 1742TIP3   OH226716   1.817   0.849  17.137  0.7277  0.2881 -1.0160
 1742TIP3    H126717   1.829   0.928  17.085  1.5076  2.1457  1.8374
 1742TIP3    H226718   1.722   0.835  17.138  0.5793  1.2508 -1.4520
 1743TIP3   OH226719   3.960   1.664  14.009  0.1304  0.5106 -0.2523
 1743TIP3    H126720   4.023   1.728  14.044 -1.2898  1.5097  0.5425
 1743TIP3    H226721   3.937   1.698  13.922  0.2069  0.4947 -0.2782
 1744TIP3   OH226722   0.709   3.128   1.823  0.0527  0.4564 -0.2503
 1744TIP3    H126723   0.780   3.144   1.885  0.1521 -0.8205 -0.0345
 1744TIP3    H226724   0.671   3.215   1.809  1.2450  1.0606  0.1120
 1745TIP3   OH226725   0.464   3.221   2.098 -0.0283  0.0468 -0.0282
 1745TIP3    H126726   0.486   3.294   2.155  3.7972 -1.5687  0.7073
 1745TIP3    H226727   0.452   3.146   2.157 -0.8437 -0.5856 -0.9769
 1746TIP3   OH226728   5.885   5.917  13.165  0.0951 -0.3371  0.0619
 1746TIP3    H126729   5.819   5.963  13.113 -1.2797 -0.1347  1.9105
 1746TIP3    H226730   5.960   5.907  13.106 -0.7874  1.3647 -1.4021
 1747TIP3   OH226731   6.177   2.449   3.046  0.3064 -0.3345  0.4447
 1747TIP3    H126732   6.136   2.475   2.963 -0.3414 -0.9428  0.5690
 1747TIP3    H226733   6.199   2.356   3.033 -0.2864 -0.5730  1.1469
 1748TIP3   OH226734   3.932   1.748  11.629  0.3029 -0.3613 -0.2897
 1748TIP3    H126735   3.984   1.737  11.549 -1.2934  0.7115 -1.5133
 1748TIP3    H226736   3.848   1.706  11.609 -1.0659  2.2035 -0.1756
 1749TIP3   OH226737   2.242   6.811  16.107 -0.5206 -0.2784  0.1732
 1749TIP3    H126738   2.174   6.850  16.052 -0.9078 -0.7661  0.3142
 1749TIP3    H226739   2.324   6.847  16.072 -0.9837  2.1942  1.5375
 1750TIP3   OH226740   5.589   1.654  15.345  0.4503 -0.0627 -0.3108
 1750TIP3    H126741   5.577   1.749  15.352  0.7513 -0.1048  0.8430
 1750TIP3    H226742   5.567   1.620  15.432  0.5566 -1.0294 -0.6544
 1751TIP3   OH226743   2.653   2.790   3.697  0.1882  0.4058 -0.3754
 1751TIP3    H126744   2.672   2.715   3.639  0.0378  0.0893 -0.0177
 1751TIP3    H226745   2.683   2.761   3.783  0.1520  0.7717 -0.2422
 1752TIP3   OH226746   2.517   5.633  14.034  0.4073 -0.1421 -0.0799
 1752TIP3    H126747   2.498   5.580  13.957  0.6400  2.0056 -1.6403
 1752TIP3    H226748   2.431   5.649  14.074  0.1542 -0.1738 -0.6124
 1753TIP3   OH226749   4.719   4.098  12.407 -0.3983  0.3957  0.5319
 1753TIP3    H126750   4.681   4.054  12.483 -2.1726 -0.5063 -0.8365
 1753TIP3    H226751   4.772   4.030  12.364 -2.5610 -0.2562 -1.1806
 1754TIP3   OH226752   5.242   5.897   1.695 -0.2898  0.1062 -0.6435
 1754TIP3    H126753   5.295   5.858   1.764 -0.5828 -1.2357 -1.1545
 1754TIP3    H226754   5.305   5.920   1.627 -0.4223 -2.3751 -1.6600
 1755TIP3   OH226755   4.187   6.279   5.511  0.6287  0.0519  0.1390
 1755TIP3    H126756   4.240   6.351   5.477 -0.6072  1.2183  0.5915
 1755TIP3    H226757   4.097   6.311   5.503  0.0881 -1.3044  0.7018
 1756TIP3   OH226758   0.254   2.353   5.754 -0.2822 -0.0301  0.2551
 1756TIP3    H126759   0.306   2.397   5.822 -0.0399  2.0793 -1.2502
 1756TIP3    H226760   0.176   2.322   5.800 -0.9714  2.9124  1.2263
 1757TIP3   OH226761   6.358   1.660   1.663  0.1218  0.2696 -0.2366
 1757TIP3    H126762   6.272   1.640   1.625 -1.2453  0.9055  2.4036
 1757TIP3    H226763   6.340   1.677   1.756  2.9294  1.6515  0.1142
 1758TIP3   OH226764   0.889   2.595   4.314  0.2581  0.3173 -0.3340
 1758TIP3    H126765   0.873   2.512   4.269 -0.2964 -0.1122  0.6369
 1758TIP3    H226766   0.802   2.629   4.334  0.4928  0.2468  0.8640
 1759TIP3   OH226767   4.663   2.497  11.511 -0.2737  0.0766  0.0956
 1759TIP3    H126768   4.756   2.474  11.505 -0.0353  0.7511  1.0918
 1759TIP3    H226769   4.619   2.432  11.457  0.5965 -1.3903  1.1011
 1760TIP3   OH226770   1.206   6.531   1.823  0.5817  0.3202  0.1957
 1760TIP3    H126771   1.269   6.499   1.887 -0.0628  1.5420  1.4555
 1760TIP3    H226772   1.237   6.619   1.801 -1.1973  1.3207  1.5590
 1761TIP3   OH226773   5.756   2.141  12.547 -0.8538 -0.5585 -0.0490
 1761TIP3    H126774   5.701   2.180  12.479 -1.0735  0.4188  0.6757
 1761TIP3    H226775   5.821   2.209  12.565 -1.0825 -0.6367  1.0492
 1762TIP3   OH226776   2.586   1.160  11.270 -0.0503 -0.2752 -0.2871
 1762TIP3    H126777   2.576   1.144  11.363  0.0122 -0.8378 -0.3717
 1762TIP3    H226778   2.561   1.077  11.228  1.7370 -0.6675 -0.6599
 1763TIP3   OH226779   5.958   3.119   4.704  0.0605 -1.1387 -0.1745
 1763TIP3    H126780   5.901   3.191   4.676 -1.0349 -1.5691  0.8804
 1763TIP3    H226781   6.045   3.144   4.674 -0.2337  0.8176  0.5453
 1764TIP3   OH226782   2.421   5.107   1.234  0.9247 -0.0695  0.1278
 1764TIP3    H126783   2.487   5.171   1.207  0.1411  0.1120 -1.3881
 1764TIP3    H226784   2.471   5.035   1.271  2.0058 -0.0500 -1.2560
 1765TIP3   OH226785   0.544   4.550  10.992 -0.5667 -0.0566  0.5144
 1765TIP3    H126786   0.629   4.594  10.999 -0.4695 -0.2691  0.6809
 1765TIP3    H226787   0.507   4.584  10.910 -0.1000 -0.3471  0.1747
 1766TIP3   OH226788   2.239   3.581   6.133  0.4941  0.1377 -0.5283
 1766TIP3    H126789   2.205   3.512   6.190  2.8327 -0.8444 -0.2570
 1766TIP3    H226790   2.210   3.662   6.174 -0.5890 -0.6257  0.2711
 1767TIP3   OH226791   6.634   0.861   4.554 -0.1810  0.2779 -0.3360
 1767TIP3    H126792   6.613   0.947   4.591 -0.3745  0.8860 -1.8349
 1767TIP3    H226793   6.724   0.844   4.581  0.3198  1.5622 -1.1428
 1768TIP3   OH226794   0.170   5.160  17.104  0.0011 -0.2557 -0.1220
 1768TIP3    H126795   0.146   5.068  17.095 -0.8699 -0.2274  1.6475
 1768TIP3    H226796   0.088   5.208  17.094  0.7992  0.5318 -3.4199
 1769TIP3   OH226797   6.576   1.940  16.462 -0.4766  0.3639  0.4778
 1769TIP3    H126798   6.650   1.985  16.502  0.3598  0.2966 -0.9608
 1769TIP3    H226799   6.515   2.011  16.440 -0.0684  0.5914  0.0756
 1770TIP3   OH226800   2.817   3.721  16.676 -0.1413 -0.6029 -0.0791
 1770TIP3    H126801   2.875   3.793  16.648 -1.8112  0.8122  0.0114
 1770TIP3    H226802   2.730   3.748  16.647 -1.0942 -1.6657  1.6843
 1771TIP3   OH226803   4.042   5.677  13.124 -0.7088 -0.0989  0.5220
 1771TIP3    H126804   4.079   5.742  13.064 -1.1275 -0.9796 -0.7058
 1771TIP3    H226805   3.974   5.725  13.173  1.0559  1.1544  1.7898
 1772TIP3   OH226806   0.543   2.049  13.954  0.1214  0.6116  0.1837
 1772TIP3    H126807   0.483   1.998  13.900  1.2399  0.2275 -0.7293
 1772TIP3    H226808   0.512   2.139  13.947 -0.0503  0.4874 -0.6933
 1773TIP3   OH226809   4.051   3.702  12.977  0.0726 -0.4655 -1.1612
 1773TIP3    H126810   4.016   3.756  12.906  0.8600  1.2561 -0.2734
 1773TIP3    H226811   3.986   3.634  12.989 -0.6695 -0.0656 -2.7095
 1774TIP3   OH226812   3.032   4.695  16.678 -0.1198  0.4969 -0.3003
 1774TIP3    H126813   3.020   4.622  16.738  0.8487 -0.3440 -1.1042
 1774TIP3    H226814   2.946   4.736  16.672 -0.9046 -1.1563 -0.5477
 1775TIP3   OH226815   3.599   2.488   1.890 -0.0209 -0.4400 -0.4360
 1775TIP3    H126816   3.515   2.512   1.928  1.4344  1.3820  1.7859
 1775TIP3    H226817   3.633   2.568   1.852  1.2509 -0.8504 -0.2122
 1776TIP3   OH226818   2.026   3.159   3.272  0.6330  0.7805  0.2086
 1776TIP3    H126819   2.079   3.237   3.290 -0.1451  1.8392 -1.8938
 1776TIP3    H226820   2.075   3.112   3.206  1.0526 -0.5037  1.4140
 1777TIP3   OH226821   6.083   1.573  13.384  0.0873 -0.6057  0.4337
 1777TIP3    H126822   6.172   1.557  13.353 -0.1840 -2.4132  0.5316
 1777TIP3    H226823   6.032   1.500  13.349 -1.2487  0.1216  0.8393
 1778TIP3   OH226824   5.123   0.933  16.478 -0.2674  0.2120  0.5930
 1778TIP3    H126825   5.027   0.930  16.475 -0.2896  2.1735 -2.1715
 1778TIP3    H226826   5.144   0.932  16.572 -2.8286 -3.3739  1.2220
 1779TIP3   OH226827   4.752   2.080  12.337 -0.2159  0.3135 -0.0013
 1779TIP3    H126828   4.725   2.153  12.393  0.5796  0.0629  0.7429
 1779TIP3    H226829   4.677   2.062  12.281 -0.6762  1.2265  0.3181
 1780TIP3   OH226830   0.823   1.997  11.562  0.0853  0.4585  0.3587
 1780TIP3    H126831   0.755   1.990  11.495  1.7058 -0.2606 -1.2754
 1780TIP3    H226832   0.797   2.072  11.615 -1.5186  0.7216 -0.7495
 1781TIP3   OH226833   0.207   0.642  11.364  0.4878  0.7841 -0.4914
 1781TIP3    H126834   0.240   0.585  11.295  0.0070 -0.6094  0.3917
 1781TIP3    H226835   0.280   0.701  11.383  1.3844 -0.2289 -0.7047
 1782TIP3   OH226836   0.788   1.453   1.334 -0.0227 -0.3493 -0.3925
 1782TIP3    H126837   0.802   1.462   1.429  1.3706 -3.0706 -0.3032
 1782TIP3    H226838   0.871   1.478   1.295 -0.6842  1.0366 -0.9537
 1783TIP3   OH226839   3.368   1.753   0.871  0.0369 -0.2172  0.4514
 1783TIP3    H126840   3.319   1.751   0.953  0.0267 -0.9328  0.4325
 1783TIP3    H226841   3.317   1.698   0.811  0.4182 -0.2809  0.1851
 1784TIP3   OH226842   6.742   0.004  10.746  0.4178 -0.1499 -0.5331
 1784TIP3    H126843   6.814  -0.054  10.724 -0.2936 -0.4669 -2.0660
 1784TIP3    H226844   6.689   0.010  10.666 -1.4917 -0.2652  0.6752
 1785TIP3   OH226845   4.284   3.663  14.999  0.0406 -0.3775 -0.4864
 1785TIP3    H126846   4.304   3.688  15.089  0.8609 -0.5968 -0.6043
 1785TIP3    H226847   4.267   3.747  14.955  1.5488 -0.1059 -0.5816
 1786TIP3   OH226848   5.714   6.226   2.940  0.5545 -0.1521 -0.1121
 1786TIP3    H126849   5.786   6.198   2.883 -0.2717  1.1476 -1.8170
 1786TIP3    H226850   5.654   6.151   2.941  0.3981 -0.0505 -1.2516
 1787TIP3   OH226851   6.513   6.152   2.567  0.0637  0.0330 -0.4467
 1787TIP3    H126852   6.471   6.167   2.651  0.5095  1.7071 -0.5067
 1787TIP3    H226853   6.441   6.140   2.506 -0.2631 -0.8888  0.1113
 1788TIP3   OH226854   2.423   6.542  13.164  0.6938  0.1320 -0.6809
 1788TIP3    H126855   2.481   6.466  13.171  0.2762 -0.1189  0.1969
 1788TIP3    H226856   2.405   6.566  13.255 -0.5426  0.2398 -0.9474
 1789TIP3   OH226857   1.446   2.767  12.217 -0.6844  0.5432 -0.0700
 1789TIP3    H126858   1.415   2.809  12.137 -1.9133  0.2060  0.2232
 1789TIP3    H226859   1.416   2.824  12.287 -1.9642 -0.5446  0.3008
 1790TIP3   OH226860   5.936   0.837  12.273 -0.2194  0.2921 -0.2369
 1790TIP3    H126861   5.998   0.764  12.272 -0.2544  0.2361  0.7641
 1790TIP3    H226862   5.990   0.915  12.288 -0.1542  0.5066 -1.5605
 1791TIP3   OH226863   2.378   1.198  15.209 -0.3338 -0.0772  0.4273
 1791TIP3    H126864   2.337   1.279  15.237  1.0485 -0.1104  2.7162
 1791TIP3    H226865   2.310   1.131  15.220 -0.2890  0.1641  2.3583
 1792TIP3   OH226866   1.790   4.031  13.138 -0.6640 -0.3624  0.5877
 1792TIP3    H126867   1.805   3.958  13.197 -1.1046 -1.0010 -0.0883
 1792TIP3    H226868   1.831   4.005  13.055 -0.5283  0.2954  0.4382
 1793TIP3   OH226869   5.803   2.979  14.344  0.2793  0.1245 -0.3367
 1793TIP3    H126870   5.854   2.902  14.369  1.2040  1.4892  2.0734
 1793TIP3    H226871   5.866   3.037  14.301  0.3441  0.9721  0.8848
 1794TIP3   OH226872   0.938   3.468   5.361 -0.2724  0.0807  0.5084
 1794TIP3    H126873   0.958   3.494   5.451  1.9869  0.4988 -0.0792
 1794TIP3    H226874   0.976   3.537   5.307 -2.4521  0.3271 -0.7535
 1795TIP3   OH226875   5.892   6.774   2.782  0.0560 -0.1174 -0.2531
 1795TIP3    H126876   5.810   6.746   2.822 -0.8065  1.4389 -0.8718
 1795TIP3    H226877   5.885   6.744   2.691 -0.7047  1.6927 -0.8177
 1796TIP3   OH226878   1.814   6.611  14.700 -0.0165  0.1987 -0.5973
 1796TIP3    H126879   1.789   6.695  14.738 -0.5148 -1.0423  1.9672
 1796TIP3    H226880   1.866   6.569  14.769  1.0013 -1.2044 -2.2015
 1797TIP3   OH226881   2.391   4.735   4.308 -0.3518 -0.0200 -0.2823
 1797TIP3    H126882   2.329   4.700   4.243  0.7762  0.0309 -1.4092
 1797TIP3    H226883   2.366   4.694   4.390 -1.6540 -0.2830 -0.7929
 1798TIP3   OH226884   4.336   0.135   2.584 -0.4746  0.0228  0.2097
 1798TIP3    H126885   4.332   0.046   2.550  0.2466  0.4285 -0.9750
 1798TIP3    H226886   4.291   0.131   2.668  0.9037 -1.8036  0.8874
 1799TIP3   OH226887   4.471   4.051  14.872  0.1948  0.5761 -0.1459
 1799TIP3    H126888   4.475   3.974  14.814  3.4405 -0.5146  1.4220
 1799TIP3    H226889   4.508   4.121  14.819 -0.0419  0.3881 -0.5699
 1800TIP3   OH226890   4.687   5.052  16.914 -0.0638 -0.1135 -0.0238
 1800TIP3    H126891   4.683   4.957  16.903  1.2791 -0.1463 -0.2999
 1800TIP3    H226892   4.659   5.087  16.829 -0.4082 -0.2608  0.0299
 1801TIP3   OH226893   6.004   3.793   4.163  0.0068 -0.3195 -0.1508
 1801TIP3    H126894   6.040   3.828   4.082  0.4009 -0.7152 -0.1490
 1801TIP3    H226895   5.930   3.850   4.183  0.8153  0.6824  0.0105
 1802TIP3   OH226896   5.329   2.594  14.750  0.4262 -0.1371 -0.5850
 1802TIP3    H126897   5.356   2.554  14.833 -1.5282  0.3434  0.3112
 1802TIP3    H226898   5.268   2.531  14.712  0.2002  0.3127 -0.9609
 1803TIP3   OH226899   0.338   1.134   4.366  0.2370  0.0153  0.2277
 1803TIP3    H126900   0.384   1.051   4.354  1.5972  0.7234  0.4294
 1803TIP3    H226901   0.284   1.143   4.287  0.5169 -0.7845 -0.0565
 1804TIP3   OH226902   3.394   4.853   1.243 -0.4906 -0.3120 -0.4580
 1804TIP3    H126903   3.383   4.800   1.164  0.8023 -2.5267  0.7821
 1804TIP3    H226904   3.343   4.808   1.310 -0.6712  0.9176  0.2541
 1805TIP3   OH226905   0.122   0.471   2.287 -0.0619  0.0410 -0.5396
 1805TIP3    H126906   0.125   0.548   2.230 -3.9051  1.0368  0.4960
 1805TIP3    H226907   0.128   0.506   2.375  0.4590 -1.0496 -0.1335
 1806TIP3   OH226908   3.831   3.294   3.090 -0.9964  0.2018 -0.9125
 1806TIP3    H126909   3.745   3.299   3.132 -1.0832 -0.7117 -0.9785
 1806TIP3    H226910   3.829   3.364   3.024 -0.1997  2.8405  1.7526
 1807TIP3   OH226911   4.520   4.389  16.069 -0.2374  0.2432  0.1462
 1807TIP3    H126912   4.611   4.378  16.096 -0.1297 -0.8024 -0.6076
 1807TIP3    H226913   4.468   4.360  16.144  0.0449  0.4188  0.4118
 1808TIP3   OH226914   2.238   6.469  13.397  0.8783 -0.0603 -0.3187
 1808TIP3    H126915   2.263   6.377  13.408  1.4108  0.0584 -0.5700
 1808TIP3    H226916   2.142   6.467  13.399  0.8695 -0.7156 -1.1385
 1809TIP3   OH226917   2.880   1.951  11.439  0.3703  0.1951  0.1742
 1809TIP3    H126918   2.798   1.981  11.478  0.3675  0.3552  0.0459
 1809TIP3    H226919   2.920   2.031  11.404  1.6563  0.4899  2.2425
 1810TIP3   OH226920   0.081   5.471   5.396  0.1343  0.2909 -0.2702
 1810TIP3    H126921  -0.005   5.498   5.428  0.2266  1.4631 -0.9560
 1810TIP3    H226922   0.108   5.400   5.454 -0.5678  1.0323  0.9745
 1811TIP3   OH226923   4.493   1.452   1.794  0.0330 -0.2770  0.0936
 1811TIP3    H126924   4.415   1.397   1.785  0.4102 -0.5200 -1.9399
 1811TIP3    H226925   4.549   1.404   1.855 -0.7890 -0.8076  0.4467
 1812TIP3   OH226926   2.722   1.236  10.070 -0.0120 -0.9761  0.3351
 1812TIP3    H126927   2.662   1.301  10.107 -0.0381  0.4111 -2.0405
 1812TIP3    H226928   2.688   1.152  10.100 -3.1993 -0.2226 -0.9373
 1813TIP3   OH226929   4.295   5.129   2.387 -0.1294  0.1289 -0.2535
 1813TIP3    H126930   4.269   5.094   2.302  0.0576  0.8778 -0.6234
 1813TIP3    H226931   4.274   5.222   2.382 -0.7913  0.0464  0.7831
 1814TIP3   OH226932   1.478   1.139  11.158  0.4070  0.5468 -0.4782
 1814TIP3    H126933   1.512   1.058  11.197 -0.5079 -0.1440 -1.0868
 1814TIP3    H226934   1.555   1.182  11.121  0.7420 -0.6923 -1.2813
 1815TIP3   OH226935   1.174   3.184  16.396 -0.1549  0.2186  0.2864
 1815TIP3    H126936   1.110   3.170  16.327 -0.5660 -2.3797  1.1819
 1815TIP3    H226937   1.259   3.183  16.351 -0.4633 -0.7922 -0.2594
 1816TIP3   OH226938   4.189   4.154  17.268 -0.0763 -0.2330  0.0652
 1816TIP3    H126939   4.194   4.177  17.361 -1.4246 -1.6728  0.5173
 1816TIP3    H226940   4.197   4.058  17.267 -2.2206 -0.4334 -1.1207
 1817TIP3   OH226941   0.785   0.988   4.391 -0.2734  0.2103 -0.9088
 1817TIP3    H126942   0.720   1.052   4.362  0.3895  0.9227 -0.8211
 1817TIP3    H226943   0.804   0.937   4.312  0.9682  1.6681 -1.5755
 1818TIP3   OH226944   2.995   1.405  15.077 -0.3663  0.0108  0.0615
 1818TIP3    H126945   3.070   1.448  15.118  0.1206  2.2581 -3.0419
 1818TIP3    H226946   2.919   1.454  15.108 -0.1844  0.4838 -0.2519
 1819TIP3   OH226947   3.460   0.511  15.980 -0.3704  0.3841  0.3890
 1819TIP3    H126948   3.495   0.463  15.905 -1.4853  0.2422 -0.0459
 1819TIP3    H226949   3.365   0.502  15.973 -0.4866  0.2510  1.8967
 1820TIP3   OH226950   3.848   3.206   1.690  0.2223  0.3734 -0.5335
 1820TIP3    H126951   3.813   3.146   1.755  1.8396  0.8010  0.7730
 1820TIP3    H226952   3.839   3.293   1.729 -0.2462  0.7943 -1.5498
 1821TIP3   OH226953   0.411   0.675  15.099 -0.0345  0.9264 -0.8775
 1821TIP3    H126954   0.434   0.650  15.189  0.3656  2.6598 -0.4813
 1821TIP3    H226955   0.414   0.593  15.050 -0.0789 -0.0098  0.6532
 1822TIP3   OH226956   2.921   3.807  11.577  0.2387 -0.0590  0.4808
 1822TIP3    H126957   2.875   3.891  11.586  0.2221 -0.1596  1.3281
 1822TIP3    H226958   2.857   3.749  11.535  0.1936  0.2995  0.0436
 1823TIP3   OH226959   5.839   3.821  16.822 -0.4438  0.2888 -0.1246
 1823TIP3    H126960   5.896   3.764  16.873 -1.6961 -0.7466  0.1299
 1823TIP3    H226961   5.832   3.778  16.737 -2.4570 -0.6500  0.4970
 1824TIP3   OH226962   4.340   1.014   1.811 -0.6433  0.0467 -0.1703
 1824TIP3    H126963   4.366   0.926   1.838 -0.6413  0.2362  0.4520
 1824TIP3    H226964   4.376   1.023   1.722 -0.9532 -0.7046 -0.3797
 1825TIP3   OH226965   6.213   0.075  12.863 -0.3626  0.0726  0.0350
 1825TIP3    H126966   6.202  -0.020  12.856 -1.8882  0.0869  1.8793
 1825TIP3    H226967   6.297   0.085  12.908 -0.1489 -0.3949 -0.2516
 1826TIP3   OH226968   4.834   5.825  10.683  0.2389  1.0470 -1.4519
 1826TIP3    H126969   4.838   5.860  10.772 -1.2297  0.5008 -1.1624
 1826TIP3    H226970   4.913   5.771  10.675 -0.5277 -0.3567  0.1468
 1827TIP3   OH226971   5.872   2.596  17.046 -0.4195 -0.8766  0.4444
 1827TIP3    H126972   5.883   2.509  17.085 -1.3945 -1.7664 -1.2294
 1827TIP3    H226973   5.795   2.587  16.990  0.3013  0.6917 -0.8170
 1828TIP3   OH226974   0.512   4.388  13.126 -0.4890  0.6537  0.3314
 1828TIP3    H126975   0.510   4.324  13.197  3.8809 -0.3115 -0.2643
 1828TIP3    H226976   0.554   4.465  13.165 -0.5939  1.1157 -0.4569
 1829TIP3   OH226977   2.315   0.860   4.291  0.2587  0.3150 -0.0349
 1829TIP3    H126978   2.286   0.845   4.200 -0.5346 -2.6765  0.6563
 1829TIP3    H226979   2.243   0.827   4.344  0.8964  1.7023  1.7169
 1830TIP3   OH226980   0.153   2.627   1.221 -0.0562 -0.3507  0.1912
 1830TIP3    H126981   0.085   2.654   1.160  2.0794  0.6580 -1.8313
 1830TIP3    H226982   0.152   2.531   1.217 -0.8163 -0.3215 -0.4386
 1831TIP3   OH226983   1.941   3.800  12.682 -0.1518  0.0164 -0.2499
 1831TIP3    H126984   1.874   3.844  12.630 -0.4762  1.1144  1.0719
 1831TIP3    H226985   2.021   3.852  12.668 -0.3446  0.5730  0.6796
 1832TIP3   OH226986   4.446   4.643  14.667 -0.1249  0.2755  0.0718
 1832TIP3    H126987   4.409   4.687  14.590 -0.2371 -0.8902 -0.5564
 1832TIP3    H226988   4.541   4.658  14.659 -0.2493  1.2999  0.4409
 1833TIP3   OH226989   6.620   4.509  12.400 -0.0954  0.2592 -0.0172
 1833TIP3    H126990   6.691   4.539  12.344  0.0407 -1.1438 -0.6351
 1833TIP3    H226991   6.654   4.515  12.489 -0.3149  2.5126 -0.0690
 1834TIP3   OH226992   4.835   1.635   2.111  1.0671 -0.1262  0.0098
 1834TIP3    H126993   4.922   1.671   2.090  0.1474  2.7274  0.8837
 1834TIP3    H226994   4.853   1.548   2.146  3.3936 -0.5980 -2.1786
 1835TIP3   OH226995   0.653   1.524   2.868 -0.0583  0.0127 -0.0607
 1835TIP3    H126996   0.661   1.456   2.935  0.8779 -0.0675 -0.2567
 1835TIP3    H226997   0.719   1.590   2.891 -0.1592  0.2908 -0.5410
 1836TIP3   OH226998   5.930   6.623   5.139 -0.0483 -0.1985  0.2857
 1836TIP3    H126999   6.005   6.580   5.098 -0.9368 -0.0313 -1.5268
 1836TIP3    H227000   5.878   6.552   5.176  0.6905 -0.3552  1.0478
 1837TIP3   OH227001   2.193   4.209  15.735 -0.3943  0.4413  0.7960
 1837TIP3    H127002   2.128   4.139  15.742  0.8041 -0.7580  0.3814
 1837TIP3    H227003   2.231   4.216  15.822  0.7123 -0.6932  0.4373
 1838TIP3   OH227004   0.689   3.149   0.771  0.3054  0.5330  0.5933
 1838TIP3    H127005   0.654   3.074   0.722  0.0033  0.3349  1.0972
 1838TIP3    H227006   0.723   3.208   0.705 -0.1683  0.3050  0.1444
 1839TIP3   OH227007   2.608   4.592  11.331 -0.1713  0.4726  0.5281
 1839TIP3    H127008   2.521   4.583  11.370  0.0103 -0.1899  0.7882
 1839TIP3    H227009   2.595   4.652  11.257 -0.3775  2.2877  2.0191
 1840TIP3   OH227010   6.234   5.536  14.531 -0.0968 -0.7845 -0.1467
 1840TIP3    H127011   6.223   5.564  14.622 -1.9731 -0.7905 -0.3535
 1840TIP3    H227012   6.148   5.502  14.505  0.1399  0.0675 -2.2082
 1841TIP3   OH227013   4.081   5.947   6.001  0.4243  0.3609 -0.1695
 1841TIP3    H127014   4.097   5.880   6.069 -0.1558 -1.7999 -2.0902
 1841TIP3    H227015   3.987   5.964   6.006  0.3480  0.0537 -0.5623
 1842TIP3   OH227016   4.457   5.079  12.151 -0.2239  0.8302 -0.1491
 1842TIP3    H127017   4.503   4.995  12.151 -0.4775  0.6764  1.4045
 1842TIP3    H227018   4.526   5.145  12.162 -0.3426  0.6048  2.1026
 1843TIP3   OH227019   4.761   2.717   0.384  0.6622  0.1730 -0.1488
 1843TIP3    H127020   4.847   2.708   0.425  1.3054 -0.9856 -1.7105
 1843TIP3    H227021   4.767   2.799   0.334  0.9365 -0.0213 -0.4364
 1844TIP3   OH227022   4.803   5.673   2.290 -0.0945 -0.7445 -0.1286
 1844TIP3    H127023   4.799   5.656   2.384 -1.8899 -0.4959 -0.1331
 1844TIP3    H227024   4.781   5.766   2.281  3.9484  0.2611 -0.5305
 1845TIP3   OH227025   1.009   5.248   1.336  0.3221  0.8745 -0.1930
 1845TIP3    H127026   1.073   5.295   1.283  0.7018  0.7859  0.1859
 1845TIP3    H227027   0.943   5.218   1.273  0.5943  1.0592 -0.5666
 1846TIP3   OH227028   3.837   6.323   5.726  0.1384 -0.7315 -0.7352
 1846TIP3    H127029   3.888   6.246   5.702 -0.2625 -1.2891  0.1580
 1846TIP3    H227030   3.831   6.319   5.822  1.0595  1.0081 -0.5817
 1847TIP3   OH227031   5.909   4.244   3.448 -0.0712 -0.1025  0.5788
 1847TIP3    H127032   5.976   4.289   3.500 -1.6062  2.8740  0.0843
 1847TIP3    H227033   5.832   4.241   3.505 -0.2091 -1.5050  0.3372
 1848TIP3   OH227034   5.153   1.699   5.082 -0.2234  0.1159 -0.0941
 1848TIP3    H127035   5.168   1.605   5.085 -0.4894  0.0865  0.3657
 1848TIP3    H227036   5.227   1.734   5.031 -1.0331 -0.5243 -1.7328
 1849TIP3   OH227037   4.953   6.813   4.515 -0.3126  0.1980 -0.3741
 1849TIP3    H127038   4.932   6.755   4.442 -0.5000 -0.2742  0.0451
 1849TIP3    H227039   5.038   6.781   4.547 -1.3218 -1.1090  1.0850
 1850TIP3   OH227040   0.324   5.521  13.542 -0.4916  0.5912 -0.0046
 1850TIP3    H127041   0.262   5.594  13.538  1.4565  2.2352 -0.9397
 1850TIP3    H227042   0.387   5.539  13.473  0.6846 -1.4053  0.5066
 1851TIP3   OH227043   5.592   3.993  16.806  0.1959  0.1533 -0.1759
 1851TIP3    H127044   5.557   3.939  16.735  0.5507  0.2193 -0.3963
 1851TIP3    H227045   5.665   3.942  16.841  1.7611  1.3494 -1.6321
 1852TIP3   OH227046   5.591   0.680  16.742 -0.5637  0.3472  0.2926
 1852TIP3    H127047   5.664   0.703  16.799  0.3966 -1.8462  0.0041
 1852TIP3    H227048   5.514   0.688  16.797  0.1054  0.7111  1.1794
 1853TIP3   OH227049   5.724   4.042   2.552  0.2643 -0.2318 -0.1079
 1853TIP3    H127050   5.815   4.062   2.531  0.8406 -1.9263  0.7528
 1853TIP3    H227051   5.681   4.128   2.551  1.5109  0.4134 -2.1003
 1854TIP3   OH227052   3.125   4.920   0.412  0.5927  0.0858 -0.5706
 1854TIP3    H127053   3.178   4.904   0.334  0.2718 -0.3212 -0.7061
 1854TIP3    H227054   3.065   4.846   0.415 -0.5240  0.9678 -0.8792
 1855TIP3   OH227055   2.397   1.894  16.364 -0.0002 -0.6071 -0.1295
 1855TIP3    H127056   2.355   1.976  16.389  0.6979 -0.1900 -0.3128
 1855TIP3    H227057   2.447   1.868  16.441  1.2679  0.1076 -0.6994
 1856TIP3   OH227058   3.130   6.641  12.383  0.3855  0.1305 -0.6023
 1856TIP3    H127059   3.058   6.688  12.426  0.9205 -0.9151  1.4977
 1856TIP3    H227060   3.195   6.628  12.453  0.8069 -2.5785 -1.4433
 1857TIP3   OH227061   6.476   1.606  14.922  0.2442  0.0422  0.0952
 1857TIP3    H127062   6.481   1.678  14.985 -1.6059 -0.0949  0.4360
 1857TIP3    H227063   6.409   1.548  14.958  0.7822 -1.1978 -0.8550
 1858TIP3   OH227064   1.826   2.376  17.045  0.6326 -0.4000 -0.4260
 1858TIP3    H127065   1.788   2.452  17.000  3.0730  0.4510 -1.1388
 1858TIP3    H227066   1.886   2.414  17.109 -0.6003 -1.6899  1.5710
 1859TIP3   OH227067   3.989   1.669  12.584  0.3787 -0.3298 -0.1357
 1859TIP3    H127068   4.060   1.684  12.521  0.4174  0.4720  0.0885
 1859TIP3    H227069   3.914   1.716  12.547  0.6630  0.9560  0.8838
 1860TIP3   OH227070   4.696   5.413  13.813  0.1693  0.2742 -0.2774
 1860TIP3    H127071   4.757   5.487  13.817 -0.3584  0.8600 -2.3273
 1860TIP3    H227072   4.610   5.454  13.801 -0.1820 -0.6519 -0.9212
 1861TIP3   OH227073   4.173   6.763   0.849 -0.3873 -0.0114 -0.1085
 1861TIP3    H127074   4.082   6.736   0.836 -0.1044 -1.2638  0.5074
 1861TIP3    H227075   4.224   6.705   0.793  0.1675 -0.3115  0.7066
 1862TIP3   OH227076   6.333   1.469   3.157  0.0027  0.1150 -0.7675
 1862TIP3    H127077   6.400   1.531   3.131 -0.0018  0.1726 -0.6401
 1862TIP3    H227078   6.371   1.421   3.231  0.0608 -0.1292 -0.9537
 1863TIP3   OH227079   5.254   3.553  13.744 -0.2632  0.9820 -0.4284
 1863TIP3    H127080   5.275   3.553  13.651 -2.7796  0.2411 -1.0461
 1863TIP3    H227081   5.286   3.469  13.777 -1.0808  0.4050 -1.0773
 1864TIP3   OH227082   4.164   5.253  12.571  0.3254  0.1333 -0.2437
 1864TIP3    H127083   4.138   5.295  12.489 -2.5758  1.5473  1.3674
 1864TIP3    H227084   4.139   5.161  12.560 -0.0556  0.3176 -0.9084
 1865TIP3   OH227085   3.440   5.467   6.003  0.4571  0.1010  0.9974
 1865TIP3    H127086   3.353   5.429   5.994  0.9636 -0.6002 -1.4687
 1865TIP3    H227087   3.499   5.391   6.005  1.1573  0.6206  0.4542
 1866TIP3   OH227088   1.619   2.362  11.644 -0.1757  0.6988 -0.3105
 1866TIP3    H127089   1.655   2.443  11.681  1.0901 -0.1210  0.2428
 1866TIP3    H227090   1.659   2.292  11.695  0.9544 -0.4109 -2.6546
 1867TIP3   OH227091   2.606   2.493   3.890 -0.4050 -0.0832  0.5219
 1867TIP3    H127092   2.647   2.495   3.977  0.8514  0.1349 -0.0649
 1867TIP3    H227093   2.679   2.505   3.829 -1.0750 -1.7172 -0.6380
 1868TIP3   OH227094   5.331   0.197  12.939 -0.4297 -0.3852 -0.3521
 1868TIP3    H127095   5.420   0.234  12.945 -0.9603  0.9876 -0.7445
 1868TIP3    H227096   5.327   0.134  13.011  1.1660 -1.1305 -0.8782
 1869TIP3   OH227097   3.267   0.226   5.314  0.8685 -0.2810 -0.2333
 1869TIP3    H127098   3.200   0.158   5.316  1.2898 -0.7109 -0.4693
 1869TIP3    H227099   3.270   0.260   5.404  0.1410 -0.0675 -0.2936
 1870TIP3   OH227100   5.470   6.685  15.911 -0.2465 -0.5786 -0.0921
 1870TIP3    H127101   5.543   6.708  15.853  0.0819 -0.1457  0.4849
 1870TIP3    H227102   5.409   6.758  15.902 -1.0045 -1.3276 -1.2037
 1871TIP3   OH227103   2.021   2.574   5.334 -0.0408  0.2425  0.9322
 1871TIP3    H127104   2.106   2.577   5.377  0.1157  0.8055  0.5837
 1871TIP3    H227105   2.010   2.482   5.309 -0.3643 -0.2084  2.6418
 1872TIP3   OH227106   5.120   1.810  14.829 -0.1903  0.6025  0.3558
 1872TIP3    H127107   5.137   1.798  14.736  1.4103  0.4204  0.6654
 1872TIP3    H227108   5.150   1.899  14.847  0.4937  0.2580  0.9226
 1873TIP3   OH227109   1.020   1.296   0.946 -0.3764 -0.8095  0.0501
 1873TIP3    H127110   0.993   1.274   0.857 -1.5128  0.3444  0.0832
 1873TIP3    H227111   1.057   1.384   0.938  0.1876 -0.9945  0.6013
 1874TIP3   OH227112   6.631   3.560   3.568 -0.1429  0.0364 -0.0165
 1874TIP3    H127113   6.634   3.585   3.660  0.5684 -1.7597  0.4595
 1874TIP3    H227114   6.712   3.594   3.531 -0.7625  1.3938 -0.1630
 1875TIP3   OH227115   6.542   0.443   5.764  0.2683  0.0394 -0.2501
 1875TIP3    H127116   6.595   0.509   5.721 -1.2812  1.7966  0.4388
 1875TIP3    H227117   6.470   0.425   5.703 -0.6566  0.8295  0.5732
 1876TIP3   OH227118   2.629   4.486  16.245  0.0214 -0.3652 -0.4850
 1876TIP3    H127119   2.597   4.513  16.159  1.7013  1.4523 -0.5650
 1876TIP3    H227120   2.686   4.557  16.274  0.3717 -1.4494  1.6540
 1877TIP3   OH227121   4.310   3.596   5.073  0.7235 -0.4050 -0.0910
 1877TIP3    H127122   4.346   3.528   5.017  3.5914 -0.2495  1.4620
 1877TIP3    H227123   4.363   3.593   5.152 -0.5504  2.1215  0.9363
 1878TIP3   OH227124   4.689   4.762   3.311  0.3068  0.1378 -0.3321
 1878TIP3    H127125   4.771   4.715   3.299 -0.8070 -1.5093 -1.6706
 1878TIP3    H227126   4.699   4.841   3.258  0.5451 -0.6678 -1.4999
 1879TIP3   OH227127   2.852   2.987  15.547 -0.3081  0.2276 -0.5068
 1879TIP3    H127128   2.793   2.917  15.576  0.2947  0.6931  1.8920
 1879TIP3    H227129   2.866   3.041  15.624  1.9924  1.0527 -1.4547
 1880TIP3   OH227130   2.744   1.401   1.874  0.1605  0.2592  0.7304
 1880TIP3    H127131   2.824   1.419   1.824 -1.2583  0.7184 -1.4225
 1880TIP3    H227132   2.738   1.305   1.876  0.9671  0.2100  1.2765
 1881TIP3   OH227133   6.501   1.497  12.742  0.1252 -0.4883 -0.2613
 1881TIP3    H127134   6.438   1.444  12.693  0.1531  0.4406 -1.3549
 1881TIP3    H227135   6.574   1.509  12.681  0.5440 -0.0403  0.3237
 1882TIP3   OH227136   1.915   3.243  13.337  0.0967  0.2210  0.7700
 1882TIP3    H127137   1.846   3.307  13.318 -0.7212 -1.1560 -1.1196
 1882TIP3    H227138   1.876   3.159  13.312  2.2773 -0.6456  0.2241
 1883TIP3   OH227139   5.570   0.330  11.450  1.0140  0.5701 -0.2760
 1883TIP3    H127140   5.657   0.317  11.410  1.3650 -0.5691  0.8184
 1883TIP3    H227141   5.547   0.243  11.484 -0.5135  0.8957 -0.4509
 1884TIP3   OH227142   1.611   1.907   4.453  0.4539 -0.2937 -0.3186
 1884TIP3    H127143   1.593   1.943   4.366  1.3225  2.8710  0.7569
 1884TIP3    H227144   1.706   1.910   4.462  0.3577 -0.2391  0.8555
 1885TIP3   OH227145   5.251   4.649   3.543 -0.5739  0.3535  0.1071
 1885TIP3    H127146   5.269   4.563   3.581 -2.5492 -0.4160 -0.6417
 1885TIP3    H227147   5.313   4.656   3.470 -1.3197 -1.0240 -0.6749
 1886TIP3   OH227148   4.337   4.241  13.157 -0.6783  0.5514  0.3566
 1886TIP3    H127149   4.248   4.209  13.139 -0.3556 -0.2272  0.1384
 1886TIP3    H227150   4.342   4.324  13.108 -0.0122 -1.2446 -2.7768
 1887TIP3   OH227151   2.712   5.018  15.266  0.4239 -0.2218 -0.1087
 1887TIP3    H127152   2.717   5.095  15.209  0.5931  0.7522  1.1796
 1887TIP3    H227153   2.632   5.033  15.317 -0.0427 -1.3724 -0.4970
 1888TIP3   OH227154   2.632   1.849   1.935 -0.1971  0.9826  0.2847
 1888TIP3    H127155   2.635   1.937   1.896  0.1427  1.4887  1.4258
 1888TIP3    H227156   2.702   1.850   2.001  0.0985 -0.2948  0.0048
 1889TIP3   OH227157   6.158   1.964   3.294 -0.0681 -0.0310  0.1660
 1889TIP3    H127158   6.126   1.879   3.324 -0.9432  0.0477 -0.4993
 1889TIP3    H227159   6.253   1.957   3.297 -0.1338 -0.3957  1.8809
 1890TIP3   OH227160   3.450   1.602  13.348 -0.6889 -0.6399  0.2580
 1890TIP3    H127161   3.375   1.660  13.359 -0.9243 -0.7772 -0.5525
 1890TIP3    H227162   3.527   1.657  13.364 -0.9953 -0.9781  3.1532
 1891TIP3   OH227163   3.780   5.742   5.544 -0.0408  0.1173 -0.3618
 1891TIP3    H127164   3.784   5.670   5.481  0.0953  1.0133 -1.4064
 1891TIP3    H227165   3.869   5.777   5.547 -0.4638  1.3102 -1.1670
 1892TIP3   OH227166   0.420   6.313  12.032  0.1451  0.4850  0.6698
 1892TIP3    H127167   0.331   6.280  12.046 -0.0163  1.4223  1.9081
 1892TIP3    H227168   0.476   6.239  12.054 -0.3558 -0.8045 -2.1467
 1893TIP3   OH227169   3.564   5.761  13.522  0.2127  0.1916 -0.2590
 1893TIP3    H127170   3.485   5.719  13.486  1.3267 -1.1316 -1.1804
 1893TIP3    H227171   3.585   5.709  13.600 -1.6613  2.4994  1.8913
 1894TIP3   OH227172   4.503   6.325  12.775  0.2322  0.6608  0.6750
 1894TIP3    H127173   4.576   6.315  12.714 -1.3604 -1.7008 -0.9579
 1894TIP3    H227174   4.438   6.376  12.726 -0.2094  0.5872  1.1790
 1895TIP3   OH227175   3.886   6.173   4.108 -0.3690 -0.2855 -0.3696
 1895TIP3    H127176   3.937   6.254   4.098 -2.5691  1.1268 -0.3827
 1895TIP3    H227177   3.878   6.161   4.202 -1.8263  0.6769 -0.3608
 1896TIP3   OH227178   3.304   6.222  13.154 -0.1119  0.2391  0.1534
 1896TIP3    H127179   3.210   6.234  13.139 -0.2993 -2.5108 -1.1842
 1896TIP3    H227180   3.346   6.285  13.094 -1.0815  0.9689  0.2273
 1897TIP3   OH227181   5.611   4.398   1.314 -0.2064 -0.0785 -0.1920
 1897TIP3    H127182   5.595   4.396   1.220 -0.3222  0.5359 -0.1853
 1897TIP3    H227183   5.650   4.484   1.330  2.1875 -1.1487 -0.0687
 1898TIP3   OH227184   6.308   1.854  15.928 -0.5195 -0.3199 -0.5057
 1898TIP3    H127185   6.257   1.922  15.884  0.4480  1.0123  0.3759
 1898TIP3    H227186   6.290   1.866  16.021  0.7144 -0.3863 -0.2449
 1899TIP3   OH227187   2.337   2.258   4.632 -0.4154 -0.3379  0.1663
 1899TIP3    H127188   2.250   2.294   4.614 -0.4414 -0.4359  0.1002
 1899TIP3    H227189   2.329   2.218   4.718 -0.4786 -0.4889  0.0901
 1900TIP3   OH227190   3.088   0.599  15.748 -0.6396  0.2307  0.3737
 1900TIP3    H127191   3.099   0.694  15.750 -1.0248  0.3540 -2.1235
 1900TIP3    H227192   3.028   0.583  15.675  0.0027 -1.9932  0.2876
 1901TIP3   OH227193   6.774   2.966  16.220  0.2130  0.2921 -0.3955
 1901TIP3    H127194   6.809   2.929  16.139 -0.2488 -1.9023  0.3907
 1901TIP3    H227195   6.848   2.970  16.279 -0.0664 -0.9035  0.0463
 1902TIP3   OH227196   5.196   3.754   2.379  0.4304 -0.3907  0.4047
 1902TIP3    H127197   5.223   3.791   2.295 -0.0703  0.1649  0.4819
 1902TIP3    H227198   5.216   3.822   2.443  2.8707 -1.6671  1.0509
 1903TIP3   OH227199   1.121   0.376   4.336 -0.8289 -0.0312 -0.6688
 1903TIP3    H127200   1.185   0.311   4.364 -0.4088  0.0216 -1.5019
 1903TIP3    H227201   1.059   0.327   4.282 -1.9516 -0.2443  0.7721
 1904TIP3   OH227202   1.409   4.038   3.540  0.0595 -0.0699 -0.4820
 1904TIP3    H127203   1.329   4.026   3.592  0.7127 -1.6455  0.1938
 1904TIP3    H227204   1.480   4.030   3.603  0.8910 -2.4876 -1.6567
 1905TIP3   OH227205   0.436   2.319  11.253  0.2999  0.2990  0.3580
 1905TIP3    H127206   0.403   2.234  11.223 -1.4339  1.3953 -0.9463
 1905TIP3    H227207   0.361   2.360  11.297  1.3383  0.8587  1.6268
 1906TIP3   OH227208   4.325   1.273  11.905 -0.0675  0.7562  0.0144
 1906TIP3    H127209   4.243   1.271  11.955 -0.2349 -0.7943 -0.3098
 1906TIP3    H227210   4.340   1.366  11.888 -1.2132  1.1285  0.9701
 1907TIP3   OH227211   0.384   6.051   1.782 -0.1197 -0.4049  0.1541
 1907TIP3    H127212   0.303   6.094   1.756 -0.0810 -0.8084 -0.6514
 1907TIP3    H227213   0.361   6.001   1.861 -0.8125 -1.0033 -0.4177
 1908TIP3   OH227214   6.575   0.289   4.433  0.3878 -0.3866 -0.2380
 1908TIP3    H127215   6.488   0.284   4.393 -0.5411  2.2002  1.3501
 1908TIP3    H227216   6.559   0.325   4.521  3.0607  0.0416  0.1097
 1909TIP3   OH227217   1.070   6.169   4.460  0.2610  0.3925  0.3604
 1909TIP3    H127218   1.026   6.206   4.383  0.8776  1.1833  0.3824
 1909TIP3    H227219   1.070   6.241   4.524 -0.4567 -0.3271  1.1957
 1910TIP3   OH227220   2.874   6.162  12.427 -0.5022  0.2131  0.1287
 1910TIP3    H127221   2.884   6.069  12.449 -2.9199  0.1966  1.3413
 1910TIP3    H227222   2.810   6.163  12.356  0.6904  0.8570 -0.9391
 1911TIP3   OH227223   1.190   1.535  16.599 -0.3271  0.5842  0.0517
 1911TIP3    H127224   1.109   1.484  16.606  0.1191 -0.2613 -0.8487
 1911TIP3    H227225   1.209   1.561  16.689 -1.2567  0.2551  0.3575
 1912TIP3   OH227226   1.315   0.312  13.626 -0.6878  0.0846  0.3195
 1912TIP3    H127227   1.227   0.278  13.640  0.0206 -1.8245  0.1700
 1912TIP3    H227228   1.305   0.374  13.553 -1.4683 -1.9670 -1.3581
 1913TIP3   OH227229   2.258   1.470   3.658  0.1484 -0.5854 -0.1983
 1913TIP3    H127230   2.175   1.511   3.681 -0.3866 -1.0023 -1.3443
 1913TIP3    H227231   2.238   1.376   3.655  0.5033 -0.6338 -1.1269
 1914TIP3   OH227232   1.874   3.258   4.911  0.0287 -0.0622 -0.4561
 1914TIP3    H127233   1.843   3.266   5.001 -0.1353  3.4618 -0.7805
 1914TIP3    H227234   1.943   3.192   4.916 -0.5111 -0.5109  2.0710
 1915TIP3   OH227235   2.687   4.747   5.054 -0.0192 -0.2315 -0.5872
 1915TIP3    H127236   2.611   4.690   5.042 -1.0580  1.2251 -1.0314
 1915TIP3    H227237   2.759   4.698   5.015 -1.0249 -0.9599 -1.5865
 1916TIP3   OH227238   4.498   4.747   0.559  0.0321  0.3410 -0.7719
 1916TIP3    H127239   4.476   4.667   0.608 -0.6658  0.5944 -0.6662
 1916TIP3    H227240   4.554   4.797   0.618  0.6615 -0.1752 -0.9256
 1917TIP3   OH227241   4.411   0.586   1.050 -0.0401  0.3033 -0.0508
 1917TIP3    H127242   4.495   0.624   1.078 -0.5433  0.3566  1.4145
 1917TIP3    H227243   4.357   0.662   1.028  0.5693  0.2430 -1.8667
 1918TIP3   OH227244   1.594   3.728   1.603 -0.6135 -0.1743 -0.1214
 1918TIP3    H127245   1.636   3.792   1.660  2.1987 -1.2294 -0.9210
 1918TIP3    H227246   1.605   3.763   1.515  0.7776 -1.6210 -0.5483
 1919TIP3   OH227247   1.767   2.560  14.124  0.0336  0.6049 -0.0829
 1919TIP3    H127248   1.782   2.475  14.167 -0.0143  0.0059 -1.2292
 1919TIP3    H227249   1.843   2.573  14.068  0.2098  1.4980  0.3539
 1920TIP3   OH227250   4.289   2.960  14.626 -0.1359 -0.0557  0.6081
 1920TIP3    H127251   4.316   2.955  14.535 -0.2903  0.0028  0.5590
 1920TIP3    H227252   4.369   2.982  14.674 -0.2281  0.7543  0.3948
 1921TIP3   OH227253   3.707   6.431  14.091  0.0352 -0.2906  0.3625
 1921TIP3    H127254   3.671   6.348  14.125 -0.0969 -0.0856  0.7319
 1921TIP3    H227255   3.706   6.490  14.167  0.5401 -0.0821  0.2118
 1922TIP3   OH227256   4.149   0.766  13.997 -0.2796 -0.4943  0.3800
 1922TIP3    H127257   4.125   0.689  14.049 -3.4021  0.8030  1.0150
 1922TIP3    H227258   4.154   0.837  14.061 -4.3444  1.1679 -0.9451
 1923TIP3   OH227259   2.095   1.111  12.097 -0.2592  0.0040  0.0299
 1923TIP3    H127260   2.059   1.178  12.155  1.9881  2.3155 -1.1489
 1923TIP3    H227261   2.099   1.032  12.151  0.2078  1.6776  2.5127
 1924TIP3   OH227262   4.153   2.775  14.775  0.1271 -0.5446 -0.0231
 1924TIP3    H127263   4.129   2.708  14.711 -1.4267  0.1479 -0.1772
 1924TIP3    H227264   4.181   2.850  14.723 -1.0924  0.0035  0.0948
 1925TIP3   OH227265   2.796   2.179   2.759  0.0463  0.1855 -0.0566
 1925TIP3    H127266   2.783   2.133   2.676 -0.4849 -0.0339  0.1424
 1925TIP3    H227267   2.883   2.217   2.752  0.9323 -1.7202  0.1829
 1926TIP3   OH227268   0.293   1.887  10.917  0.4526 -0.0798  0.3513
 1926TIP3    H127269   0.339   1.812  10.880 -1.1107 -0.1150 -1.6367
 1926TIP3    H227270   0.225   1.848  10.973  0.1763 -0.1433 -0.0227
 1927TIP3   OH227271   5.113   4.756  12.863 -0.3888  0.1690  0.7079
 1927TIP3    H127272   5.160   4.834  12.834  1.1247 -0.8393  0.3997
 1927TIP3    H227273   5.114   4.761  12.959 -0.8995  0.8586  0.6854
 1928TIP3   OH227274   4.345   6.536  10.405 -0.0937 -0.0852  0.3105
 1928TIP3    H127275   4.296   6.554  10.486 -1.0963 -0.1473 -0.2765
 1928TIP3    H227276   4.278   6.519  10.340  0.7479 -1.3346 -0.2450
 1929TIP3   OH227277   5.819   4.713   3.296 -0.5546  0.3486 -0.0500
 1929TIP3    H127278   5.763   4.679   3.365 -0.6589  2.3411  0.8798
 1929TIP3    H227279   5.785   4.672   3.216 -2.1260  0.0621  0.7330
 1930TIP3   OH227280   1.665   0.270  16.030 -0.4645  0.2938 -0.1495
 1930TIP3    H127281   1.585   0.303  16.070 -1.1225 -2.5533  1.0371
 1930TIP3    H227282   1.732   0.284  16.096 -1.0868 -2.2416  1.0692
 1931TIP3   OH227283   6.605   1.433  15.273 -0.4897 -0.5163 -0.3451
 1931TIP3    H127284   6.611   1.444  15.368  0.1702 -0.4364 -0.3893
 1931TIP3    H227285   6.532   1.372  15.259 -0.4946 -0.6355  0.2193
 1932TIP3   OH227286   5.629   4.781   6.328 -0.3970 -0.0203 -0.2539
 1932TIP3    H127287   5.700   4.825   6.281 -0.3507 -0.8654 -0.9791
 1932TIP3    H227288   5.566   4.851   6.346  0.2530  0.5832 -0.3036
 1933TIP3   OH227289   0.130   5.007   4.663  0.3463  0.0859  0.3279
 1933TIP3    H127290   0.214   4.962   4.672  1.0856  1.3824  0.1623
 1933TIP3    H227291   0.140   5.086   4.716 -0.7835  0.2270  0.3342
 1934TIP3   OH227292   3.876   5.757   2.287  0.4162 -0.3591 -0.0833
 1934TIP3    H127293   3.822   5.681   2.268 -0.1075 -0.2129  0.8221
 1934TIP3    H227294   3.826   5.808   2.350  1.3530  0.0676  0.3352
 1935TIP3   OH227295   4.763   0.902  15.456 -0.0496  0.1383  0.4236
 1935TIP3    H127296   4.791   0.811  15.456  0.7651  0.3716 -0.9859
 1935TIP3    H227297   4.762   0.927  15.549  2.2799 -0.5577  0.6796
 1936TIP3   OH227298   0.749   3.874   6.721  0.0893 -0.0465  0.6740
 1936TIP3    H127299   0.805   3.797   6.719 -1.8263 -1.4529 -1.1311
 1936TIP3    H227300   0.676   3.849   6.779 -0.0123  0.8025  0.9289
 1937TIP3   OH227301   0.228   6.466   1.247  0.5445  0.0107 -0.2222
 1937TIP3    H127302   0.157   6.529   1.261  0.3086 -0.2525 -0.2326
 1937TIP3    H227303   0.228   6.451   1.152  0.3404 -0.3112 -0.1688
 1938TIP3   OH227304   6.593   0.188   5.145 -1.1371 -0.4154 -0.2235
 1938TIP3    H127305   6.667   0.196   5.205  0.5320 -2.1688 -1.9519
 1938TIP3    H227306   6.517   0.219   5.195  0.6137  0.5880  1.8789
 1939TIP3   OH227307   4.504   5.664  12.604 -0.4427 -0.1183 -0.0316
 1939TIP3    H127308   4.451   5.691  12.528 -1.4453 -0.0630  0.6869
 1939TIP3    H227309   4.442   5.656  12.675  0.3056 -1.4563  0.4885
 1940TIP3   OH227310   4.379   4.551  12.407  0.7725  0.0824  0.1035
 1940TIP3    H127311   4.371   4.643  12.382  1.3361  0.0062 -0.3761
 1940TIP3    H227312   4.399   4.506  12.324  1.3607 -0.3508  0.4745
 1941TIP3   OH227313   5.201   3.471   2.399  0.0007 -0.0643  0.1533
 1941TIP3    H127314   5.191   3.564   2.418  0.4006 -0.2079  1.1218
 1941TIP3    H227315   5.114   3.434   2.414  0.0889 -0.0155  0.8113
 1942TIP3   OH227316   4.906   0.221  15.425  0.7765 -0.1471 -0.5400
 1942TIP3    H127317   4.929   0.129  15.439 -1.7530 -1.3191 -3.4425
 1942TIP3    H227318   4.989   0.267  15.425  2.0015 -2.1763  2.3237
 1943TIP3   OH227319   4.448   0.038  12.227 -0.1312  0.7178  0.0982
 1943TIP3    H127320   4.543   0.024  12.227 -0.3776 -1.2376 -0.8134
 1943TIP3    H227321   4.434   0.100  12.155  0.3032 -0.4347 -1.0131
 1944TIP3   OH227322   6.312   0.273  13.525 -0.3409 -0.9328 -0.0271
 1944TIP3    H127323   6.356   0.267  13.441 -0.1876  0.7077 -0.0641
 1944TIP3    H227324   6.283   0.364  13.531  0.7594 -0.6962  2.2471
 1945TIP3   OH227325   5.918   4.100   3.112  0.4704 -0.2415  0.2571
 1945TIP3    H127326   5.992   4.076   3.167  1.0072  1.2863  0.2222
 1945TIP3    H227327   5.955   4.108   3.024  0.4289  1.2952  0.3714
 1946TIP3   OH227328   3.096   4.005  12.269  0.0064 -0.1319  1.0632
 1946TIP3    H127329   3.010   3.978  12.238  0.6661 -2.8883  1.4910
 1946TIP3    H227330   3.123   4.074  12.209 -2.2909  0.4131  0.6398
 1947TIP3   OH227331   1.737   4.901  14.779  0.0383  0.4001 -0.4630
 1947TIP3    H127332   1.766   4.941  14.697 -0.3779 -0.7842 -1.1871
 1947TIP3    H227333   1.664   4.844  14.755  0.0812 -0.1623  0.6871
 1948TIP3   OH227334   2.689   1.556  13.369 -0.0282  0.1618  0.6825
 1948TIP3    H127335   2.725   1.511  13.445 -0.3495 -0.1246  0.6666
 1948TIP3    H227336   2.598   1.576  13.393 -0.8678 -2.0451 -0.5194
 1949TIP3   OH227337   5.413   0.505   3.682 -0.1459  0.8193  0.3128
 1949TIP3    H127338   5.366   0.429   3.717  2.2356 -0.4950  0.7898
 1949TIP3    H227339   5.397   0.502   3.588 -0.2280 -0.1734  0.3496
 1950TIP3   OH227340   1.313   6.226   4.016  0.1319 -0.3780 -0.0781
 1950TIP3    H127341   1.348   6.266   3.936 -1.8249 -0.4154 -0.9827
 1950TIP3    H227342   1.281   6.141   3.988 -1.9677  0.2210  0.4028
 1951TIP3   OH227343   2.038   4.677  13.376 -0.2587 -0.3736  0.0497
 1951TIP3    H127344   2.048   4.679  13.280  1.2288  2.0883  0.2176
 1951TIP3    H227345   1.946   4.700  13.391 -0.5719 -1.0615 -0.8105
 1952TIP3   OH227346   3.530   6.257  14.444  0.2559  0.3095  0.2653
 1952TIP3    H127347   3.614   6.302  14.455  0.5059  0.3726 -1.6454
 1952TIP3    H227348   3.509   6.221  14.530  2.3970  0.0340  0.6819
 1953TIP3   OH227349   4.737   0.810  16.880  0.7685 -0.2302 -0.0630
 1953TIP3    H127350   4.738   0.744  16.950  1.3182 -0.9962 -0.7836
 1953TIP3    H227351   4.806   0.782  16.820 -0.0758  0.1021 -1.2054
 1954TIP3   OH227352   2.908   0.365   2.617  0.0067  0.0300  0.0044
 1954TIP3    H127353   2.942   0.360   2.706  1.6798  1.1001 -0.5524
 1954TIP3    H227354   2.878   0.456   2.608  0.3801  0.0857 -0.7059
 1955TIP3   OH227355   0.147   4.714   5.541  1.1738  0.1242 -0.0591
 1955TIP3    H127356   0.114   4.633   5.502  2.5869 -0.4041 -0.1949
 1955TIP3    H227357   0.114   4.712   5.631 -0.8015  0.5936 -0.7471
 1956TIP3   OH227358   3.823   2.715  16.530  0.4343  0.8768 -0.3899
 1956TIP3    H127359   3.823   2.620  16.513  0.4719  0.5989  1.0736
 1956TIP3    H227360   3.747   2.748  16.482 -1.3588 -0.3689  1.5213
 1957TIP3   OH227361   4.311   5.792  16.280  0.1480  0.1007  0.7717
 1957TIP3    H127362   4.314   5.718  16.220 -0.5416 -0.5081  1.4729
 1957TIP3    H227363   4.227   5.835  16.262  0.6872  0.9126  0.1416
 1958TIP3   OH227364   2.700   4.267  12.533  0.0060 -0.2557 -0.2977
 1958TIP3    H127365   2.675   4.293  12.444  0.8479  0.0001 -0.4620
 1958TIP3    H227366   2.678   4.342  12.587 -3.9197 -1.7453  0.3094
 1959TIP3   OH227367   2.515   4.763  15.250  0.3935  0.0292  0.1527
 1959TIP3    H127368   2.559   4.800  15.174 -1.7382 -0.3671 -1.3203
 1959TIP3    H227369   2.496   4.838  15.307 -3.2063  1.2292 -2.4423
 1960TIP3   OH227370   5.294   5.585   2.682 -0.2018 -0.2429  0.1404
 1960TIP3    H127371   5.239   5.631   2.746  0.0934  0.2611  0.0311
 1960TIP3    H227372   5.317   5.652   2.618  1.4749 -0.1664  0.7984
 1961TIP3   OH227373   3.398   3.379   2.512  0.3021  0.1647  0.0862
 1961TIP3    H127374   3.349   3.310   2.556 -0.1240  0.1983 -0.3310
 1961TIP3    H227375   3.355   3.389   2.427  0.7082  0.5552 -0.0785
 1962TIP3   OH227376   0.429   3.975  15.108 -0.2540  0.7408 -0.5999
 1962TIP3    H127377   0.511   3.948  15.065 -1.0827 -0.2058 -1.6168
 1962TIP3    H227378   0.451   3.979  15.201  0.5946 -0.9191 -0.6967
 1963TIP3   OH227379   3.455   0.355   3.844 -0.0226  0.5896 -0.3649
 1963TIP3    H127380   3.523   0.363   3.911  0.0983 -0.0565 -0.4135
 1963TIP3    H227381   3.393   0.425   3.865 -0.2643  0.0547  0.7522
 1964TIP3   OH227382   0.236   6.612  14.014 -0.6792 -0.3850 -0.6008
 1964TIP3    H127383   0.318   6.660  14.002 -1.1414  0.6050  0.1136
 1964TIP3    H227384   0.258   6.541  14.074 -0.1223 -0.7242 -1.2023
 1965TIP3   OH227385   2.637   1.155  13.674 -0.0410 -0.2348 -0.1027
 1965TIP3    H127386   2.616   1.248  13.684 -0.3736 -0.0824 -1.9815
 1965TIP3    H227387   2.563   1.119  13.625  1.1454 -1.0060 -1.3617
 1966TIP3   OH227388   0.643   5.355   5.931  0.2266  0.0447  0.1632
 1966TIP3    H127389   0.724   5.385   5.973 -0.3782  1.1814  0.5410
 1966TIP3    H227390   0.587   5.328   6.004  0.6721 -1.8188 -0.1609
 1967TIP3   OH227391   4.971   0.228   1.067  0.1818 -0.2131  0.0591
 1967TIP3    H127392   5.062   0.231   1.097 -0.0594  0.2177  0.7798
 1967TIP3    H227393   4.934   0.311   1.098  0.2877  0.9115 -2.6791
 1968TIP3   OH227394   0.199   4.582   0.598 -0.1436 -0.3908  0.4299
 1968TIP3    H127395   0.294   4.571   0.589 -0.4979 -1.6003 -2.6919
 1968TIP3    H227396   0.169   4.605   0.510 -3.0067 -2.3633  0.8000
 1969TIP3   OH227397   4.434   2.940   4.900 -0.2170 -0.1577 -0.2284
 1969TIP3    H127398   4.376   2.986   4.960  0.1873 -0.4419  0.3889
 1969TIP3    H227399   4.519   2.982   4.911 -0.3649  0.4417 -1.3388
 1970TIP3   OH227400   6.211   0.764  12.268 -0.4299  0.5976  0.4959
 1970TIP3    H127401   6.248   0.701  12.206  1.2859 -0.0223  2.1234
 1970TIP3    H227402   6.213   0.847  12.220 -3.2190 -0.5767 -1.8731
 1971TIP3   OH227403   4.695   4.066  15.630  0.1771  0.5069 -0.1379
 1971TIP3    H127404   4.747   4.070  15.550  2.4333  2.6448  1.3548
 1971TIP3    H227405   4.715   3.981  15.667  1.9867  0.9643 -0.0209
 1972TIP3   OH227406   6.800   4.387   2.544  0.6013 -1.0970  0.3099
 1972TIP3    H127407   6.774   4.401   2.635  3.8409 -2.8168  1.6097
 1972TIP3    H227408   6.734   4.327   2.510 -0.8082 -0.2297  1.4371
 1973TIP3   OH227409   3.583   5.403   3.440  0.4630  0.0393  0.0678
 1973TIP3    H127410   3.639   5.335   3.404  0.6171 -0.3765  1.0743
 1973TIP3    H227411   3.515   5.355   3.488 -0.1579  0.5627 -0.2816
 1974TIP3   OH227412   3.923   5.442  12.502 -0.0507 -0.2382 -0.2435
 1974TIP3    H127413   3.978   5.461  12.426  0.1677 -2.6068 -0.7135
 1974TIP3    H227414   3.953   5.505  12.568  1.8760 -0.1710 -1.1277
 1975TIP3   OH227415   1.018   4.305   0.396 -0.4041 -0.3096 -0.6879
 1975TIP3    H127416   1.021   4.401   0.394 -1.4633 -0.2910 -1.6122
 1975TIP3    H227417   1.077   4.278   0.327  1.0794 -0.3621  0.5670
 1976TIP3   OH227418   4.948   5.272   6.134 -0.4238  0.0129 -0.0234
 1976TIP3    H127419   4.964   5.258   6.227 -0.4597  1.0200  0.1367
 1976TIP3    H227420   4.964   5.186   6.094  1.1695 -0.0447  0.6900
 1977TIP3   OH227421   1.706   3.952  15.630  0.5942  0.2349  0.2962
 1977TIP3    H127422   1.690   4.046  15.643 -0.5433  0.1897 -0.7750
 1977TIP3    H227423   1.679   3.912  15.713  0.4349  0.7738  0.5107
 1978TIP3   OH227424   2.259   0.782  15.275  0.6296 -0.0569  0.2982
 1978TIP3    H127425   2.212   0.865  15.270 -1.0437 -0.9946 -0.1855
 1978TIP3    H227426   2.246   0.752  15.365 -2.2880 -1.7264 -0.6074
 1979TIP3   OH227427   5.944   4.075   5.352 -0.0712  0.2026  0.6851
 1979TIP3    H127428   5.885   4.126   5.407 -1.7295  1.9214 -2.5100
 1979TIP3    H227429   6.030   4.083   5.394 -1.1247  2.0563  2.5741
 1980TIP3   OH227430   4.874   3.590  11.826 -0.7487 -0.3219  0.5227
 1980TIP3    H127431   4.795   3.642  11.840 -1.2786 -0.0441 -2.9736
 1980TIP3    H227432   4.855   3.506  11.868 -2.6934 -0.0769  0.1667
 1981TIP3   OH227433   3.026   1.635  16.346 -0.0902 -0.1741  0.3346
 1981TIP3    H127434   3.076   1.675  16.275 -0.9796 -0.5746 -0.5325
 1981TIP3    H227435   3.017   1.543  16.321 -0.0599 -0.4165  1.1706
 1982TIP3   OH227436   6.542   5.159  12.012  0.4491  0.1200  0.2872
 1982TIP3    H127437   6.603   5.128  12.079  1.4432  0.3141 -0.5196
 1982TIP3    H227438   6.557   5.100  11.938  0.6674  1.0620 -0.4168
 1983TIP3   OH227439   1.657   1.179  12.380  0.5577  0.3303 -0.1377
 1983TIP3    H127440   1.702   1.096  12.395  0.5759  0.3352 -0.1644
 1983TIP3    H227441   1.708   1.243  12.430 -1.6071 -0.2619  2.9427
 1984TIP3   OH227442   1.356   1.493  13.486  0.1708 -0.2461 -0.5516
 1984TIP3    H127443   1.436   1.441  13.497 -0.4276 -0.8762  0.9357
 1984TIP3    H227444   1.322   1.467  13.400  1.2303 -0.4081 -0.9398
 1985TIP3   OH227445   6.141   6.610   2.423 -0.1011 -0.5758  0.0349
 1985TIP3    H127446   6.107   6.652   2.344  1.1247  0.0723 -0.1701
 1985TIP3    H227447   6.213   6.555   2.392  0.1408 -0.6133  0.6546
 1986TIP3   OH227448   5.700   0.554   3.005 -0.1890  0.5821 -0.0817
 1986TIP3    H127449   5.714   0.468   3.045  0.7920  1.0800  0.6595
 1986TIP3    H227450   5.788   0.593   3.000 -0.4053  0.8987 -1.8899
 1987TIP3   OH227451   1.246   0.092   4.873 -0.3393  0.1380  0.8287
 1987TIP3    H127452   1.234   0.143   4.793 -0.2933 -1.0742  0.0222
 1987TIP3    H227453   1.170   0.034   4.875  1.8600 -2.9968 -0.7873
 1988TIP3   OH227454   3.957   2.737  12.818 -0.6478  0.0497  0.4474
 1988TIP3    H127455   3.922   2.683  12.889  3.0900 -2.8569  0.2085
 1988TIP3    H227456   4.044   2.763  12.847  0.1345  0.5862 -2.1859
 1989TIP3   OH227457   4.257   3.030  15.202  0.3728  0.1227  0.1110
 1989TIP3    H127458   4.281   3.034  15.295  0.1137  1.0144  0.1402
 1989TIP3    H227459   4.167   3.061  15.199  0.3939  0.1331 -0.4399
 1990TIP3   OH227460   6.651   4.324  17.194 -0.1984 -0.6545 -0.5748
 1990TIP3    H127461   6.660   4.264  17.120  3.0681 -1.3909  0.3341
 1990TIP3    H227462   6.695   4.404  17.165 -1.7184  0.1832 -0.5944
 1991TIP3   OH227463   6.363   1.346   5.586  0.0927 -0.7082  0.6280
 1991TIP3    H127464   6.352   1.435   5.620 -0.0120 -0.5858  0.2697
 1991TIP3    H227465   6.299   1.294   5.635 -1.7648 -0.0830 -1.1043
 1992TIP3   OH227466   5.461   5.122  16.862 -0.4090  0.0981  0.2556
 1992TIP3    H127467   5.512   5.045  16.885  1.0131  0.7437 -0.6561
 1992TIP3    H227468   5.388   5.123  16.924 -0.8909 -2.4175 -0.2371
 1993TIP3   OH227469   6.587   5.974   3.963 -0.0589 -0.2747 -0.1905
 1993TIP3    H127470   6.652   5.904   3.967  0.1991 -0.1241 -1.4252
 1993TIP3    H227471   6.504   5.929   3.951 -0.1120 -0.4400  0.7680
 1994TIP3   OH227472   6.603   3.309   1.127 -0.3770 -0.1697 -0.3345
 1994TIP3    H127473   6.619   3.384   1.184 -0.0465 -1.6108  1.5133
 1994TIP3    H227474   6.531   3.337   1.071 -0.4086  1.4472  0.4716
 1995TIP3   OH227475   6.175   3.178  16.318 -0.3500  0.4717 -0.2710
 1995TIP3    H127476   6.105   3.228  16.359  0.6311  1.3883  0.2986
 1995TIP3    H227477   6.254   3.206  16.364  0.7164  1.2176 -2.5381
 1996TIP3   OH227478   6.074   6.332   4.809 -0.4931 -0.1178  0.2218
 1996TIP3    H127479   6.095   6.384   4.887  0.0871  0.8451 -0.5705
 1996TIP3    H227480   6.007   6.270   4.839 -0.1609  0.1395  1.5252
 1997TIP3   OH227481   4.454   6.024   1.822 -0.0150 -0.2858 -0.5931
 1997TIP3    H127482   4.522   6.025   1.753  0.7004 -1.2843  0.0873
 1997TIP3    H227483   4.384   5.971   1.785  0.9654 -2.0335 -0.0238
 1998TIP3   OH227484   6.321   3.963   1.826 -0.5936 -0.3458  0.3335
 1998TIP3    H127485   6.257   3.949   1.755 -0.7018  0.3161  0.3053
 1998TIP3    H227486   6.289   3.908   1.898 -0.3279 -1.2492 -0.2185
 1999TIP3   OH227487   3.003   3.249  11.768  0.6574  0.5811  0.1194
 1999TIP3    H127488   3.066   3.259  11.696  0.6258  0.0383  0.0164
 1999TIP3    H227489   3.051   3.279  11.846  1.3063 -0.5484  0.1662
 2000TIP3   OH227490   4.417   6.451  16.670 -0.1458 -0.0230 -0.8219
 2000TIP3    H127491   4.380   6.372  16.709  1.3389  0.3877  1.4815
 2000TIP3    H227492   4.400   6.520  16.735  1.8124  0.7997 -1.1643
 2001TIP3   OH227493   0.346   3.179  12.128  0.0057  0.2380  0.2709
 2001TIP3    H127494   0.299   3.259  12.153 -0.5586  0.3394 -1.0648
 2001TIP3    H227495   0.416   3.210  12.070 -0.8302 -0.3212 -1.0575
 2002TIP3   OH227496   5.101   4.688  14.595  0.4927  0.4251  0.1253
 2002TIP3    H127497   5.054   4.627  14.651  0.8915 -2.2071 -2.2812
 2002TIP3    H227498   5.190   4.653  14.591  1.7161  3.1785  1.5121
 2003TIP3   OH227499   3.772   0.731   5.841 -0.3947 -0.2620  0.1548
 2003TIP3    H127500   3.778   0.820   5.877  1.2254 -0.8688  1.4343
 2003TIP3    H227501   3.807   0.739   5.752  0.8429  0.1469  0.6753
 2004TIP3   OH227502   2.148   3.337   1.852 -0.5481  0.2377  0.0581
 2004TIP3    H127503   2.184   3.382   1.928 -0.3021  0.5363 -0.2313
 2004TIP3    H227504   2.224   3.299   1.808 -0.6020  0.7366 -0.4703
 2005TIP3   OH227505   2.252   0.343  10.787 -0.2741 -0.1421 -0.0337
 2005TIP3    H127506   2.226   0.434  10.799 -1.3095 -0.4240 -0.1212
 2005TIP3    H227507   2.300   0.343  10.704 -0.2670  0.3215 -0.0312
 2006TIP3   OH227508   1.929   2.085   3.869  0.2560  0.7530  0.2027
 2006TIP3    H127509   1.871   2.011   3.848 -0.9434  1.5493  0.6221
 2006TIP3    H227510   1.940   2.132   3.787  0.9234  0.1837 -0.0392
 2007TIP3   OH227511   4.572   6.199  11.163 -0.6896  0.1959  0.0053
 2007TIP3    H127512   4.504   6.136  11.140 -3.4521  1.9950  2.7229
 2007TIP3    H227513   4.604   6.169  11.248  0.8832  0.1915 -0.5873
 2008TIP3   OH227514   4.740   5.963   0.952  0.6297  0.3127  0.2418
 2008TIP3    H127515   4.707   6.021   0.883 -0.9765 -0.8190  0.0333
 2008TIP3    H227516   4.772   5.886   0.905 -0.6781 -0.5607  0.7552
 2009TIP3   OH227517   2.226   4.522   0.277 -0.2597 -0.5242 -0.2875
 2009TIP3    H127518   2.238   4.554   0.366 -0.8472 -0.0609 -0.3703
 2009TIP3    H227519   2.261   4.433   0.278  1.4475  0.1363 -0.0602
 2010TIP3   OH227520   3.711   1.899  15.860  0.0686  0.9751 -0.3518
 2010TIP3    H127521   3.689   1.965  15.794 -1.2690  0.7550 -0.1468
 2010TIP3    H227522   3.749   1.948  15.933 -0.1787  1.4295 -0.5328
 2011TIP3   OH227523   0.778   5.213  11.066 -0.2602 -0.2028  0.8332
 2011TIP3    H127524   0.710   5.206  10.999 -0.8146  0.6681  1.2955
 2011TIP3    H227525   0.846   5.151  11.039 -1.3591 -1.2677  0.5115
 2012TIP3   OH227526   2.532   4.046  10.589  0.3959  0.1809  0.5326
 2012TIP3    H127527   2.444   4.083  10.599 -0.0123 -0.8197  0.6963
 2012TIP3    H227528   2.580   4.079  10.664  0.1024  0.5626  0.5569
 2013TIP3   OH227529   5.875   6.242  16.705 -0.0657  0.5169  0.5058
 2013TIP3    H127530   5.946   6.297  16.672 -0.4105  0.4815 -0.3031
 2013TIP3    H227531   5.818   6.228  16.630 -0.2160 -0.5764  0.8094
 2014TIP3   OH227532   6.329   1.974  16.888  0.5158  0.1194  0.1877
 2014TIP3    H127533   6.342   2.059  16.930  3.3057  0.3840 -1.0834
 2014TIP3    H227534   6.325   1.911  16.961 -2.0912  1.3356  1.1590
 2015TIP3   OH227535   1.635   5.820   4.385 -0.4096  0.0234  0.0892
 2015TIP3    H127536   1.622   5.741   4.333 -1.3157  0.8000 -0.8739
 2015TIP3    H227537   1.719   5.805   4.429 -0.8352 -1.7094  0.3717
 2016TIP3   OH227538   5.176   1.361  13.773 -0.0426 -0.1474 -0.5274
 2016TIP3    H127539   5.163   1.435  13.713 -1.9161 -1.9940 -2.5253
 2016TIP3    H227540   5.110   1.373  13.841 -1.3927 -0.7041 -1.6821
 2017TIP3   OH227541   1.619   0.228  12.654 -0.1154 -0.9685  0.1175
 2017TIP3    H127542   1.656   0.144  12.683  0.4859 -0.6564  0.2805
 2017TIP3    H227543   1.538   0.205  12.610  0.7466 -1.7620 -1.0789
 2018TIP3   OH227544   1.124   1.677   5.885  0.2565 -0.3747  0.1687
 2018TIP3    H127545   1.152   1.728   5.809  0.9404 -1.8303 -0.5813
 2018TIP3    H227546   1.028   1.686   5.886  0.1673 -1.0314 -1.3741
 2019TIP3   OH227547   2.424   2.856   3.083  0.4913 -0.4825 -0.5237
 2019TIP3    H127548   2.342   2.871   3.037  1.1409  1.2374 -1.1666
 2019TIP3    H227549   2.406   2.883   3.173  1.3852  3.6568 -1.4691
 2020TIP3   OH227550   1.395   6.628   5.328 -0.0437 -0.1723 -0.7159
 2020TIP3    H127551   1.449   6.703   5.353 -0.4837 -0.3988  0.9739
 2020TIP3    H227552   1.432   6.599   5.244 -0.1488  2.1752 -1.6135
 2021TIP3   OH227553   1.767   4.998   4.131  0.3593 -0.1323 -0.7859
 2021TIP3    H127554   1.818   4.948   4.068  1.2509  1.7870 -1.6264
 2021TIP3    H227555   1.826   5.067   4.161 -1.7562  2.3005 -1.9838
 2022TIP3   OH227556   3.087   6.211   9.949  0.2714 -0.2067 -0.0372
 2022TIP3    H127557   3.100   6.299   9.985  1.8557  0.4252 -2.0480
 2022TIP3    H227558   3.021   6.171  10.006 -1.3621  2.7003  0.1994
 2023TIP3   OH227559   3.181   5.729  14.284 -0.5360  0.5118 -0.4996
 2023TIP3    H127560   3.138   5.643  14.293 -0.6394  0.7741  2.0662
 2023TIP3    H227561   3.170   5.769  14.370  3.1082  1.4284 -0.3971
 2024TIP3   OH227562   1.858   4.140   0.490  0.4890  0.0349 -0.1142
 2024TIP3    H127563   1.864   4.227   0.451 -0.3881  0.6897  1.1601
 2024TIP3    H227564   1.771   4.108   0.466  0.9676 -0.6727 -0.9314
 2025TIP3   OH227565   4.368   3.524  12.957 -0.2122 -0.1957 -0.1669
 2025TIP3    H127566   4.353   3.592  12.891 -0.9687  0.2691  0.4833
 2025TIP3    H227567   4.405   3.570  13.032 -2.4753 -0.1701  0.9837
 2026TIP3   OH227568   0.516   3.920   5.600  0.4056  0.6826  0.3769
 2026TIP3    H127569   0.440   3.886   5.646  0.0994 -0.4598 -0.9245
 2026TIP3    H227570   0.481   3.954   5.518  1.3420 -0.2273 -0.4076
 2027TIP3   OH227571   2.906   0.387   5.596 -0.1407  0.8378 -0.3446
 2027TIP3    H127572   2.883   0.320   5.532  0.1295 -0.1371  0.5724
 2027TIP3    H227573   2.927   0.338   5.676  0.9547  1.9473  0.0636
 2028TIP3   OH227574   6.578   1.993   6.259 -0.2457  0.3551  0.2704
 2028TIP3    H127575   6.484   1.981   6.271  0.0907 -1.4640  1.1586
 2028TIP3    H227576   6.587   2.086   6.237 -2.2429  0.5419  0.1416
 2029TIP3   OH227577   3.633   3.719  11.701  0.0868 -0.5835  0.4364
 2029TIP3    H127578   3.624   3.798  11.648  4.2410  0.3437  0.9260
 2029TIP3    H227579   3.671   3.750  11.783  1.1620 -3.0217  0.8981
 2030TIP3   OH227580   2.664   3.986   1.238  0.2828 -0.3777  0.1643
 2030TIP3    H127581   2.599   4.054   1.255  1.0425 -0.0525  1.8112
 2030TIP3    H227582   2.720   4.023   1.170 -1.2645 -0.6815 -1.3130
 2031TIP3   OH227583   2.352   2.234  15.495  0.4707 -0.2166 -0.2927
 2031TIP3    H127584   2.262   2.239  15.528  1.5312  0.3158  2.6597
 2031TIP3    H227585   2.375   2.324  15.472 -0.1142 -0.5209 -2.1257
 2032TIP3   OH227586   0.634   2.796   5.562 -0.0713 -0.3582 -0.0425
 2032TIP3    H127587   0.586   2.785   5.480  0.2633  2.0143 -0.6130
 2032TIP3    H227588   0.662   2.888   5.561  0.2970 -0.3912  2.5419
 2033TIP3   OH227589   2.617   2.640  13.553  0.3253 -0.0811 -0.3550
 2033TIP3    H127590   2.648   2.704  13.490 -0.4609 -0.0868 -0.7483
 2033TIP3    H227591   2.591   2.565  13.501 -1.6342  0.4372 -0.1597
 2034TIP3   OH227592   0.242   3.570   1.875 -0.2677 -0.6597 -0.5855
 2034TIP3    H127593   0.176   3.631   1.842  2.2895  1.3993 -2.0947
 2034TIP3    H227594   0.228   3.569   1.970 -2.9767 -0.9420 -0.9399
 2035TIP3   OH227595   4.345   3.982   0.774 -0.1188 -0.1724  0.4761
 2035TIP3    H127596   4.294   4.031   0.838 -0.6972 -1.7954  1.3057
 2035TIP3    H227597   4.434   4.014   0.784 -0.5573  0.9931  0.6976
 2036TIP3   OH227598   5.426   0.017  12.138  0.1000  0.4545  0.0251
 2036TIP3    H127599   5.486   0.086  12.168 -0.5180 -0.1972  2.8752
 2036TIP3    H227600   5.484  -0.056  12.115  0.7914  1.9849 -3.4121
 2037TIP3   OH227601   1.137   5.615   2.416 -0.2626  0.0232 -0.1055
 2037TIP3    H127602   1.060   5.662   2.385 -0.7970 -1.0916 -0.5209
 2037TIP3    H227603   1.199   5.619   2.344  0.5065  1.8737  0.6454
 2038TIP3   OH227604   5.344   6.813  10.550 -0.1014 -0.1630 -0.3019
 2038TIP3    H127605   5.356   6.855  10.635 -0.4267  2.1748 -1.3762
 2038TIP3    H227606   5.422   6.837  10.500  0.4087 -2.0757 -0.4765
 2039TIP3   OH227607   0.890   5.473   0.621  0.4061 -0.5579 -0.3146
 2039TIP3    H127608   0.853   5.387   0.601  0.1260 -0.1919 -1.3812
 2039TIP3    H227609   0.814   5.528   0.638  0.3266  0.5025 -3.7070
 2040TIP3   OH227610   0.455   3.147   4.678 -0.6533 -0.0024 -0.3844
 2040TIP3    H127611   0.405   3.094   4.740  0.3982  1.5108  1.8086
 2040TIP3    H227612   0.520   3.193   4.732  0.5124  1.0981 -2.6489
 2041TIP3   OH227613   0.727   1.266   3.878 -0.7143  0.1992 -0.0125
 2041TIP3    H127614   0.639   1.242   3.908 -0.7662  0.1539 -0.1983
 2041TIP3    H227615   0.724   1.361   3.869 -1.0126  0.1172 -0.8526
 2042TIP3   OH227616   5.266   5.998  14.205  0.1415  0.0363  0.4369
 2042TIP3    H127617   5.217   5.929  14.250 -0.6781 -0.3823 -1.0615
 2042TIP3    H227618   5.336   6.022  14.266  0.2787 -1.9324  1.0616
 2043TIP3   OH227619   3.543   4.301   2.295 -0.1797 -0.3764 -0.3562
 2043TIP3    H127620   3.449   4.319   2.299 -0.1458 -0.4117  0.6842
 2043TIP3    H227621   3.583   4.388   2.285 -0.1478 -0.0445  2.4089
 2044TIP3   OH227622   2.815   3.928   4.770  0.4400  0.4328 -0.0091
 2044TIP3    H127623   2.725   3.897   4.757 -0.0578  2.6709 -2.3517
 2044TIP3    H227624   2.852   3.929   4.682  3.1647 -1.4740  1.0617
 2045TIP3   OH227625   2.912   2.218   3.578 -0.5350 -0.2896 -0.0151
 2045TIP3    H127626   2.916   2.311   3.603 -3.6855  0.3534 -1.5813
 2045TIP3    H227627   2.925   2.170   3.660  1.0779  1.5407  0.8286
 2046TIP3   OH227628   1.368   3.972   4.001  0.4695 -0.2088  0.4118
 2046TIP3    H127629   1.334   4.055   3.968  1.4974  0.8483  1.9510
 2046TIP3    H227630   1.362   3.912   3.927 -2.0692  0.7144 -0.1599
 2047TIP3   OH227631   5.659   2.236  17.171 -0.2319  0.5557 -0.3187
 2047TIP3    H127632   5.639   2.181  17.246 -1.7692  0.3244 -0.8874
 2047TIP3    H227633   5.639   2.325  17.199 -0.1046  0.5502 -0.2136
 2048TIP3   OH227634   1.058   6.245  13.007  0.0373 -0.1641 -0.1160
 2048TIP3    H127635   1.047   6.315  13.072 -0.3118 -0.5030  0.1939
 2048TIP3    H227636   0.989   6.262  12.942 -2.1717 -2.0632  1.6219
 2049TIP3   OH227637   3.848   2.612  14.759  0.1277  0.7819  0.3730
 2049TIP3    H127638   3.789   2.684  14.739 -1.8024 -0.5753  0.9693
 2049TIP3    H227639   3.827   2.588  14.850  2.1153  0.7478  0.8491
 2050TIP3   OH227640   2.554   5.730  13.575  0.4056 -0.1650 -0.0124
 2050TIP3    H127641   2.640   5.698  13.604 -0.1244  0.2832  2.0993
 2050TIP3    H227642   2.534   5.803  13.634 -1.4803 -0.3477 -0.3989
 2051TIP3   OH227643   0.333   0.663  10.696 -0.1225 -0.0116 -0.0000
 2051TIP3    H127644   0.247   0.656  10.654  1.2519 -0.1927 -2.9283
 2051TIP3    H227645   0.358   0.572  10.714 -0.0277 -0.0384 -0.2640
 2052TIP3   OH227646   6.723   0.876  14.205  0.0793 -0.1940 -0.1375
 2052TIP3    H127647   6.727   0.792  14.160 -1.1837 -0.4986  0.3007
 2052TIP3    H227648   6.666   0.861  14.281 -0.5446  1.1577 -0.3087
 2053TIP3   OH227649   4.533   6.012   5.204 -0.1469 -0.3521  0.7217
 2053TIP3    H127650   4.527   6.101   5.170  1.4302 -0.3988  0.2831
 2053TIP3    H227651   4.442   5.984   5.215 -0.6574  1.5742  1.5705
 2054TIP3   OH227652   3.743   5.813  17.135 -0.2879  0.1110  0.2430
 2054TIP3    H127653   3.670   5.818  17.073 -1.5530  1.5975  1.8227
 2054TIP3    H227654   3.703   5.786  17.218  1.3723 -1.6997  0.4878
 2055TIP3   OH227655   2.744   2.706   0.918  0.1910  0.2034  1.1008
 2055TIP3    H127656   2.732   2.736   0.827  3.8575 -2.8291 -0.4836
 2055TIP3    H227657   2.781   2.782   0.963 -1.9930  1.8641  0.2468
 2056TIP3   OH227658   4.499   1.920   6.424 -0.3803 -0.3356 -0.1979
 2056TIP3    H127659   4.550   1.874   6.491  2.0453  2.7509  0.1648
 2056TIP3    H227660   4.430   1.965   6.473 -1.5305 -1.8810 -0.3456
 2057TIP3   OH227661   4.774   1.549  11.120  0.4609 -0.1901  0.4598
 2057TIP3    H127662   4.681   1.570  11.115  0.3390 -0.6295  0.8839
 2057TIP3    H227663   4.808   1.608  11.187  0.8168  1.1217 -0.8483
 2058TIP3   OH227664   2.667   1.905  15.316  0.1441 -0.5668 -0.2375
 2058TIP3    H127665   2.692   1.872  15.230  1.8549  1.0034 -0.3758
 2058TIP3    H227666   2.699   1.840  15.378  3.2329  0.6379 -0.5136
 2059TIP3   OH227667   6.028   1.222   4.154 -0.4750  0.3087  0.4520
 2059TIP3    H127668   6.071   1.157   4.210 -0.4506 -0.5286 -0.5193
 2059TIP3    H227669   5.991   1.286   4.215  0.3239 -0.1031  1.3836
 2060TIP3   OH227670   6.784   6.761   2.146 -0.3378 -0.2451 -0.0770
 2060TIP3    H127671   6.742   6.844   2.170  0.6424  0.5184 -0.9178
 2060TIP3    H227672   6.806   6.719   2.229  0.6195  1.1120  0.3796
 2061TIP3   OH227673   5.614   0.311   5.642  0.0204 -0.2089  0.0767
 2061TIP3    H127674   5.691   0.364   5.664 -0.9167  2.0994 -2.0310
 2061TIP3    H227675   5.620   0.298   5.547 -2.1671 -0.0136 -0.1110
 2062TIP3   OH227676   6.775   1.862   0.500 -0.2677  0.1336  0.3945
 2062TIP3    H127677   6.818   1.906   0.574  0.4868 -0.0660  0.0849
 2062TIP3    H227678   6.738   1.782   0.538  0.3737 -0.1172  0.5166
 2063TIP3   OH227679   5.604   1.027   0.748 -0.2386 -0.4085 -0.2579
 2063TIP3    H127680   5.638   0.976   0.675 -0.0384 -1.0286  0.2624
 2063TIP3    H227681   5.517   1.055   0.720  0.6676  1.1522 -1.5859
 2064TIP3   OH227682   5.636   3.077   3.644 -0.2423 -0.1250 -0.1517
 2064TIP3    H127683   5.701   3.056   3.711  0.7150  1.6844 -0.4587
 2064TIP3    H227684   5.585   3.148   3.682 -1.7763 -1.2360 -0.0954
 2065TIP3   OH227685   5.509   3.494   5.635  0.1304 -0.1787 -0.0575
 2065TIP3    H127686   5.570   3.421   5.639  0.4994  0.1842  1.2097
 2065TIP3    H227687   5.564   3.570   5.612 -0.3419 -0.3858 -1.9573
 2066TIP3   OH227688   1.215   3.386   3.331 -0.1153  0.2398  0.7624
 2066TIP3    H127689   1.194   3.429   3.248  2.9970  2.1135  0.8396
 2066TIP3    H227690   1.135   3.340   3.355 -1.2696  0.0622 -3.0131
 2067TIP3   OH227691   1.637   3.103   5.221 -0.0869  0.3943  0.4670
 2067TIP3    H127692   1.623   3.195   5.243  0.3814  0.7400 -0.6344
 2067TIP3    H227693   1.671   3.064   5.301  0.0631  1.2656  0.8306
 2068TIP3   OH227694   4.780   3.224  12.200  0.1293 -0.0815  0.2181
 2068TIP3    H127695   4.770   3.262  12.113  0.7281 -0.1222  0.1268
 2068TIP3    H227696   4.739   3.287  12.259  0.4488  0.3428 -0.0101
 2069TIP3   OH227697   4.145   3.576   0.426 -0.0363 -0.2060  1.1576
 2069TIP3    H127698   4.072   3.545   0.479  0.5871 -0.8155  1.6621
 2069TIP3    H227699   4.214   3.596   0.490 -0.1813  1.5465  0.7926
 2070TIP3   OH227700   6.376   2.036   5.683  0.2290 -0.4314 -0.5055
 2070TIP3    H127701   6.294   2.036   5.733  0.5356  1.3958  0.0268
 2070TIP3    H227702   6.444   2.019   5.748  0.2624 -2.4430 -1.0228
 2071TIP3   OH227703   5.441   1.374  15.980  0.3301 -0.3947  0.1487
 2071TIP3    H127704   5.525   1.365  15.936 -0.0013  1.8945 -0.9810
 2071TIP3    H227705   5.377   1.349  15.914 -0.0631  1.3543 -0.1583
 2072TIP3   OH227706   4.338   2.061   1.021  0.4988 -0.7656  0.2474
 2072TIP3    H127707   4.304   2.080   1.109 -0.6300 -1.3715 -0.0474
 2072TIP3    H227708   4.429   2.090   1.024 -0.1447  1.2408  0.9415
 2073TIP3   OH227709   2.265   3.084   0.814  0.0484 -0.1255  0.4564
 2073TIP3    H127710   2.338   3.024   0.826 -0.3153 -0.4638  1.0191
 2073TIP3    H227711   2.281   3.125   0.729 -0.3842 -1.9597 -0.5340
 2074TIP3   OH227712   2.428   3.846  13.733  0.0395  0.6372 -0.3320
 2074TIP3    H127713   2.450   3.821  13.823  0.2113  1.5354 -0.1227
 2074TIP3    H227714   2.508   3.827  13.684 -0.4540 -1.0003 -0.5282
 2075TIP3   OH227715   3.933   6.205  11.838 -0.2943  0.2770 -0.5933
 2075TIP3    H127716   3.874   6.135  11.808  0.9634 -1.2163  0.3759
 2075TIP3    H227717   3.909   6.280  11.784 -2.6035 -0.4960 -0.7146
 2076TIP3   OH227718   0.027   5.105  16.671  0.2112  0.1615  0.8048
 2076TIP3    H127719   0.084   5.032  16.698  0.0651  0.1688  1.1331
 2076TIP3    H227720  -0.056   5.063  16.650  1.1007 -0.1815 -2.2031
 2077TIP3   OH227721   2.226   4.767  12.247  0.0558  0.5811  0.3923
 2077TIP3    H127722   2.244   4.859  12.269  1.6205  0.1758  0.8315
 2077TIP3    H227723   2.304   4.738  12.199 -0.4626 -0.5025  0.2002
 2078TIP3   OH227724   6.071   6.488  15.507  0.7822  0.2951 -0.1269
 2078TIP3    H127725   6.163   6.515  15.507  1.5852 -2.3228  2.1255
 2078TIP3    H227726   6.048   6.481  15.414  2.3902  2.3726 -0.7150
 2079TIP3   OH227727   3.957   4.857  16.319  0.1407  0.0310 -0.1334
 2079TIP3    H127728   3.900   4.816  16.383  1.3724 -1.9427 -0.2551
 2079TIP3    H227729   3.972   4.789  16.253  2.6850  0.4673 -0.0586
 2080TIP3   OH227730   1.400   0.382   3.236 -0.1648  0.1661  0.0476
 2080TIP3    H127731   1.426   0.313   3.175  0.9294 -0.7097  1.4684
 2080TIP3    H227732   1.401   0.340   3.322 -0.5307  1.6791  0.8098
 2081TIP3   OH227733   1.484   2.804  13.702  0.2313 -0.0971 -0.0523
 2081TIP3    H127734   1.450   2.758  13.779 -0.6922  1.3956  0.4494
 2081TIP3    H227735   1.570   2.835  13.729  1.0657 -1.8968 -0.5508
 2082TIP3   OH227736   0.472   5.193  14.146  0.7022  0.4686 -0.1782
 2082TIP3    H127737   0.529   5.119  14.128  0.3907  0.0250  0.5935
 2082TIP3    H227738   0.400   5.155  14.197  0.8365  1.3986  0.7213
 2083TIP3   OH227739   1.215   6.790  15.072  0.5495  0.5293 -0.3558
 2083TIP3    H127740   1.286   6.734  15.039 -0.3159 -1.8974  1.7176
 2083TIP3    H227741   1.237   6.804  15.164 -1.8762 -0.6599  0.4389
 2084TIP3   OH227742   4.937   0.489  13.693 -0.4872  0.8175  0.2329
 2084TIP3    H127743   4.906   0.504  13.604  0.4110 -1.2689 -0.4666
 2084TIP3    H227744   4.979   0.571  13.718  1.5526  0.5989 -2.2550
 2085TIP3   OH227745   6.083   5.310  13.806  0.0552  0.1487 -0.3078
 2085TIP3    H127746   6.074   5.330  13.712 -0.4205 -0.2725 -0.3552
 2085TIP3    H227747   6.110   5.218  13.808  0.9703  0.4246 -0.0568
 2086TIP3   OH227748   6.294   1.604   5.244  0.0524 -0.0104  0.0444
 2086TIP3    H127749   6.283   1.510   5.253 -0.8272 -0.0718 -1.4801
 2086TIP3    H227750   6.388   1.617   5.236  0.4815 -0.4151  3.6545
 2087TIP3   OH227751   5.051   3.049   5.464  0.8012 -0.4350  0.8166
 2087TIP3    H127752   5.067   2.965   5.507  0.5578 -0.8418  0.1136
 2087TIP3    H227753   5.040   3.111   5.536  1.3716 -0.9312  1.3364
 2088TIP3   OH227754   4.433   0.885  11.258 -0.3111  0.0510 -0.6423
 2088TIP3    H127755   4.405   0.957  11.202 -1.7191 -0.0840 -0.1200
 2088TIP3    H227756   4.517   0.914  11.294  0.2055  0.4788 -2.1689
 2089TIP3   OH227757   1.231   0.521  12.999 -0.6556 -0.1470 -0.2542
 2089TIP3    H127758   1.277   0.469  12.933 -0.9509 -1.3865  0.4973
 2089TIP3    H227759   1.139   0.497  12.990 -0.6102 -0.8921  1.0922
 2090TIP3   OH227760   0.148   3.273   1.137  0.2525 -0.1994  0.3873
 2090TIP3    H127761   0.058   3.303   1.150 -0.2592 -1.4375 -0.1416
 2090TIP3    H227762   0.147   3.182   1.168  1.4201 -0.1073  0.7230
 2091TIP3   OH227763   3.595   2.840   3.581 -0.0463  0.1109 -0.3680
 2091TIP3    H127764   3.567   2.901   3.513  0.2698  0.1706 -0.4454
 2091TIP3    H227765   3.658   2.889   3.634  0.3414 -0.2046 -0.5364
 2092TIP3   OH227766   4.509   2.848  16.726 -0.4975  0.6445 -0.0070
 2092TIP3    H127767   4.560   2.861  16.647 -0.4816 -0.1613 -0.1359
 2092TIP3    H227768   4.573   2.822  16.792 -0.8135 -1.0009 -0.3292
 2093TIP3   OH227769   4.017   4.946   6.519 -0.5491 -0.3113 -0.6536
 2093TIP3    H127770   3.968   4.968   6.440 -2.3939 -0.3387  0.4530
 2093TIP3    H227771   3.951   4.943   6.588  1.1254  0.3554  1.0219
 2094TIP3   OH227772   5.525   2.857  11.378  0.7508 -0.2236  0.0577
 2094TIP3    H127773   5.536   2.879  11.285  0.2773  1.2222  0.3232
 2094TIP3    H227774   5.595   2.795  11.397  0.5739 -0.8883 -1.3834
 2095TIP3   OH227775   2.694   6.469  13.502 -0.0992 -0.1281  0.4288
 2095TIP3    H127776   2.653   6.433  13.581 -0.1641  1.2225  1.0406
 2095TIP3    H227777   2.643   6.433  13.430 -1.8289  0.8128  1.1447
 2096TIP3   OH227778   4.074   4.402  15.664  0.2236 -0.3990  0.0868
 2096TIP3    H127779   4.022   4.408  15.584 -1.0392 -0.3879  0.8879
 2096TIP3    H227780   4.011   4.380  15.732  1.3556 -0.8561  1.0082
 2097TIP3   OH227781   5.095   1.004  11.742  0.2213  0.2909 -0.3028
 2097TIP3    H127782   5.058   1.092  11.746 -1.8731 -0.4913 -1.6833
 2097TIP3    H227783   5.021   0.946  11.760  1.8676 -1.1947  2.1282
 2098TIP3   OH227784   0.201   4.491   0.008 -0.5203  0.2958  0.3419
 2098TIP3    H127785   0.184   4.575   0.049 -0.5240  0.4175  0.0943
 2098TIP3    H227786   0.282   4.460   0.050 -0.5135  0.4271  0.4261
 2099TIP3   OH227787   0.881   3.130  10.613  0.3322  0.1065  0.2695
 2099TIP3    H127788   0.793   3.094  10.626  0.7783 -2.3369 -2.8200
 2099TIP3    H227789   0.886   3.203  10.674 -3.4424 -0.3729  1.3064
 2100TIP3   OH227790   5.989   3.323   3.716  0.0453 -0.3255  0.3302
 2100TIP3    H127791   5.980   3.292   3.626  0.4580 -0.2113  0.2462
 2100TIP3    H227792   5.919   3.387   3.727  0.7676  0.5969 -0.3189
 2101TIP3   OH227793   0.317   5.664   5.135 -0.5770 -0.2676 -0.0068
 2101TIP3    H127794   0.309   5.569   5.141  0.0957 -0.4453 -1.6867
 2101TIP3    H227795   0.284   5.686   5.048  0.2658  0.9114 -0.0492
 2102TIP3   OH227796   6.780   3.416  13.994 -0.2325 -0.1045 -0.1527
 2102TIP3    H127797   6.727   3.365  13.933  0.0775 -0.2541 -0.2959
 2102TIP3    H227798   6.716   3.472  14.039 -0.4597  0.0428 -0.6451
 2103TIP3   OH227799   4.695   4.018   2.977  0.3846 -0.3061  0.3378
 2103TIP3    H127800   4.713   4.092   2.920 -0.2453  0.0226  0.5711
 2103TIP3    H227801   4.602   4.023   2.996  0.7356  0.1084  2.1120
 2104TIP3   OH227802   5.798   1.409   5.594 -0.1087  0.0079  0.5077
 2104TIP3    H127803   5.888   1.439   5.581  0.2310 -1.3011 -0.1835
 2104TIP3    H227804   5.804   1.314   5.596 -1.2848 -0.0618  1.9378
 2105TIP3   OH227805   1.334   3.938  16.520  0.3144 -0.1554  0.0624
 2105TIP3    H127806   1.395   3.923  16.593  0.5057  1.3611  0.2212
 2105TIP3    H227807   1.364   4.019  16.480 -0.8319 -0.0765 -0.6500
 2106TIP3   OH227808   4.841   2.283   0.703  0.5040  0.6863  0.2184
 2106TIP3    H127809   4.800   2.199   0.683  1.3877  0.1162  0.7746
 2106TIP3    H227810   4.810   2.305   0.791  0.6237  0.7220  0.2518
 2107TIP3   OH227811   2.558   0.447   2.809 -0.1788 -0.1335 -0.2871
 2107TIP3    H127812   2.590   0.391   2.739 -0.4158 -1.7955  0.9197
 2107TIP3    H227813   2.625   0.443   2.877  0.0573  1.4691 -0.3975
 2108TIP3   OH227814   6.309   4.869   2.033  0.1545  0.6904 -0.1245
 2108TIP3    H127815   6.293   4.867   2.127 -1.4405  0.6443 -0.3817
 2108TIP3    H227816   6.267   4.950   2.003 -0.5402  0.0360 -0.9790
 2109TIP3   OH227817   3.387   6.425  13.841  0.5412 -0.4244 -0.2047
 2109TIP3    H127818   3.360   6.418  13.932 -0.3606  0.8641 -0.3554
 2109TIP3    H227819   3.477   6.456  13.845  0.1704  0.6199  0.2430
 2110TIP3   OH227820   0.893   0.545  12.307 -0.1692  0.0865  0.5214
 2110TIP3    H127821   0.856   0.456  12.309  1.2756 -0.5088  2.5782
 2110TIP3    H227822   0.927   0.554  12.218  1.7014 -2.3260  0.9247
 2111TIP3   OH227823   1.757   6.353   0.866  0.0749  0.4156 -0.1542
 2111TIP3    H127824   1.689   6.376   0.804  0.9964 -0.0553 -1.3703
 2111TIP3    H227825   1.715   6.293   0.927 -1.0123  1.3999  0.0780
 2112TIP3   OH227826   4.721   5.742  12.260 -0.2120 -0.4138 -0.1396
 2112TIP3    H127827   4.750   5.806  12.325 -1.2601  1.9072 -1.8849
 2112TIP3    H227828   4.792   5.738  12.197  0.2032 -1.6380  0.3748
 2113TIP3   OH227829   0.451   2.671   1.779  0.4465  0.3193 -0.2915
 2113TIP3    H127830   0.412   2.583   1.778  0.0290  0.5136 -1.2056
 2113TIP3    H227831   0.499   2.676   1.697  1.7991  0.3570  0.4964
 2114TIP3   OH227832   1.588   1.107  11.505  0.2661  0.2146 -0.5880
 2114TIP3    H127833   1.617   1.032  11.453  0.6739 -0.0833  0.0584
 2114TIP3    H227834   1.652   1.176  11.487 -0.4865  0.6321 -1.6997
 2115TIP3   OH227835   5.724   1.952  10.973 -0.0904  0.3606  0.2484
 2115TIP3    H127836   5.741   2.027  10.916 -2.9198  0.3349 -0.7205
 2115TIP3    H227837   5.720   1.990  11.061  0.3701  1.0611 -0.0305
 2116TIP3   OH227838   2.123   1.241  13.071 -0.5187 -0.3301  0.5910
 2116TIP3    H127839   2.187   1.232  13.000  0.1376  0.0693  1.1315
 2116TIP3    H227840   2.059   1.171  13.054 -0.9432  0.4284 -1.0003
 2117TIP3   OH227841   4.419   2.463  13.960 -0.1684 -0.0684  0.2879
 2117TIP3    H127842   4.366   2.387  13.985 -0.1439 -0.2122 -0.1052
 2117TIP3    H227843   4.450   2.443  13.872 -1.5834  1.1625 -0.5134
 2118TIP3   OH227844   5.249   4.953  12.118 -0.1508 -0.0649 -0.2211
 2118TIP3    H127845   5.303   4.888  12.163  0.7374  1.3694  0.8055
 2118TIP3    H227846   5.282   4.953  12.028 -0.4224 -1.2972 -0.3359
 2119TIP3   OH227847   4.281   5.523  11.575  0.1951  0.0008  0.3052
 2119TIP3    H127848   4.268   5.608  11.532  0.2276  0.1748  0.6332
 2119TIP3    H227849   4.306   5.464  11.504 -1.6206 -0.1617 -0.2235
 2120TIP3   OH227850   5.667   1.290  12.633 -0.4373 -0.0996  0.0204
 2120TIP3    H127851   5.735   1.319  12.573 -0.6432 -3.1876 -1.8139
 2120TIP3    H227852   5.715   1.242  12.701 -0.6636 -1.6325 -0.8713
 2121TIP3   OH227853   1.502   2.732   2.927  0.6087 -0.3309  0.4723
 2121TIP3    H127854   1.451   2.790   2.871  0.7615 -1.1211 -0.4926
 2121TIP3    H227855   1.493   2.769   3.015 -1.7997 -0.5713  0.3613
 2122TIP3   OH227856   1.657   6.765  12.703 -0.1478  0.2205  0.3102
 2122TIP3    H127857   1.649   6.764  12.607  0.6837  1.0042  0.2347
 2122TIP3    H227858   1.622   6.680  12.730  0.0788 -0.2128 -0.7240
 2123TIP3   OH227859   1.217   1.857   3.803 -0.2578  0.1158  0.4186
 2123TIP3    H127860   1.242   1.919   3.871  0.5152 -1.4154  1.5665
 2123TIP3    H227861   1.286   1.791   3.805 -2.0855 -1.8542  0.6159
 2124TIP3   OH227862   0.861   5.223  15.599  0.8552 -0.3474  0.7294
 2124TIP3    H127863   0.770   5.193  15.603  0.3738  0.9866 -0.1040
 2124TIP3    H227864   0.856   5.316  15.620  1.9337 -0.0999 -0.1158
 2125TIP3   OH227865   1.897   0.650   5.296  0.4410  0.1505 -0.1578
 2125TIP3    H127866   1.854   0.717   5.349 -0.9605  0.0173 -1.1169
 2125TIP3    H227867   1.899   0.572   5.352 -1.1434 -0.0306 -0.3388
 2126TIP3   OH227868   0.134   0.880   3.696  0.4230  0.5935 -0.2854
 2126TIP3    H127869   0.152   0.801   3.748 -1.0523  1.7509  2.0652
 2126TIP3    H227870   0.065   0.853   3.634 -1.8588  0.5987  2.1493
 2127TIP3   OH227871   0.474   5.896  13.547  0.3620 -0.0277 -0.0938
 2127TIP3    H127872   0.506   5.977  13.587 -0.6506  0.0863  0.5308
 2127TIP3    H227873   0.459   5.919  13.455  1.9152 -0.0537 -0.3591
 2128TIP3   OH227874   5.482   5.708   0.917  0.0498 -0.1452  0.3815
 2128TIP3    H127875   5.391   5.738   0.916  0.1378  0.1192 -1.3018
 2128TIP3    H227876   5.494   5.671   1.004 -0.9267  2.0983  1.5051
 2129TIP3   OH227877   6.766   5.687   2.779  0.2990 -0.1558 -0.0862
 2129TIP3    H127878   6.772   5.779   2.807  2.5262 -0.1752 -0.4249
 2129TIP3    H227879   6.746   5.639   2.860 -0.9674  0.6094  0.0779
 2130TIP3   OH227880   0.768   0.067  15.602 -0.2322  0.2011 -0.3677
 2130TIP3    H127881   0.767   0.089  15.509 -1.2914  2.7430  0.1953
 2130TIP3    H227882   0.728   0.143  15.645 -2.7035 -2.2697  1.8979
 2131TIP3   OH227883   0.138   3.056   2.487  0.3633  0.7474 -0.3643
 2131TIP3    H127884   0.125   3.150   2.477 -0.4934  0.9432  2.1368
 2131TIP3    H227885   0.220   3.048   2.537 -1.2287  0.3639  2.3250
 2132TIP3   OH227886   1.402   3.882   4.808  0.4793 -0.3450 -0.0573
 2132TIP3    H127887   1.310   3.873   4.784  0.8904  0.8816 -2.2488
 2132TIP3    H227888   1.446   3.812   4.760  0.8475 -0.1853  0.0456
 2133TIP3   OH227889   4.188   4.642  14.794  0.0581  0.4810 -0.1982
 2133TIP3    H127890   4.156   4.649  14.704  0.6718  0.4519 -0.4243
 2133TIP3    H227891   4.282   4.661  14.787 -0.3769  3.1963  0.8311
 2134TIP3   OH227892   5.619   4.242   3.576 -0.0078 -0.4324 -0.4916
 2134TIP3    H127893   5.624   4.248   3.671 -1.0867  1.7473 -0.5365
 2134TIP3    H227894   5.527   4.221   3.558 -0.0308  0.1750 -1.0940
 2135TIP3   OH227895   6.790   3.330  15.598  0.6937  0.2928 -0.0973
 2135TIP3    H127896   6.700   3.361  15.593  0.2717 -0.9537 -0.4013
 2135TIP3    H227897   6.817   3.322  15.506  0.6967 -0.5448 -0.0189
 2136TIP3   OH227898   1.273   0.573   5.433 -0.0561 -0.2460  0.2943
 2136TIP3    H127899   1.332   0.646   5.451 -0.7580  0.6896 -1.1293
 2136TIP3    H227900   1.329   0.504   5.397 -0.0001  1.1159 -2.3250
 2137TIP3   OH227901   4.583   0.131   1.327  0.4232  0.3137 -0.1736
 2137TIP3    H127902   4.526   0.081   1.386 -2.1498  2.8808 -0.3963
 2137TIP3    H227903   4.650   0.168   1.385  0.5665 -0.8868  0.4369
 2138TIP3   OH227904   3.039   5.007   5.537  0.6259 -0.4549 -0.1655
 2138TIP3    H127905   3.069   4.990   5.448 -0.8657 -0.1761 -0.7381
 2138TIP3    H227906   3.047   5.102   5.547 -1.3998 -0.1903 -0.8397
 2139TIP3   OH227907   1.806   3.820   5.987  0.0260 -0.1361  0.3405
 2139TIP3    H127908   1.725   3.869   5.972 -0.1794  0.1186  2.2465
 2139TIP3    H227909   1.866   3.883   6.025 -0.2007 -1.3049  2.6948
 2140TIP3   OH227910   0.643   6.194  13.330  0.0399 -0.2471  0.1150
 2140TIP3    H127911   0.610   6.256  13.265  1.9676 -0.0457 -0.7008
 2140TIP3    H227912   0.734   6.179  13.305 -0.0702 -2.5550  0.9634
 2141TIP3   OH227913   3.433   5.656   3.107 -0.1228 -0.6911  0.0951
 2141TIP3    H127914   3.509   5.688   3.058 -1.7216  2.8562 -0.2218
 2141TIP3    H227915   3.358   5.695   3.062 -2.2111 -4.2768  0.2831
 2142TIP3   OH227916   5.968   1.143  14.184 -0.2957  0.0816  0.1963
 2142TIP3    H127917   5.877   1.123  14.206  0.2837 -0.3230  2.2861
 2142TIP3    H227918   6.015   1.062  14.204  0.5480  0.3072 -0.8390
 2143TIP3   OH227919   4.339   0.548   0.004 -0.0788  0.0545 -0.1201
 2143TIP3    H127920   4.374   0.636  -0.002  1.2608 -0.4501  0.1393
 2143TIP3    H227921   4.244   0.559   0.002  0.0843  1.5224  0.2717
 2144TIP3   OH227922   4.389   1.762   4.722 -0.0932 -0.2860 -0.3542
 2144TIP3    H127923   4.465   1.738   4.668  1.1125 -0.2249  1.2771
 2144TIP3    H227924   4.411   1.730   4.809 -1.4248  0.8118  0.4029
 2145TIP3   OH227925   2.073   5.605  11.170  0.6777  0.1771  0.5763
 2145TIP3    H127926   2.119   5.530  11.132  0.5121 -0.1685  1.0589
 2145TIP3    H227927   2.098   5.605  11.262 -0.1302  0.1108  0.7969
 2146TIP3   OH227928   1.484   5.886  14.913 -0.0069 -0.7967  0.7074
 2146TIP3    H127929   1.533   5.804  14.902 -0.0301 -0.8963  1.2899
 2146TIP3    H227930   1.441   5.876  14.998 -0.5908 -0.4747  0.4525
 2147TIP3   OH227931   5.513   5.297   0.735 -0.1446 -0.6331  0.3551
 2147TIP3    H127932   5.477   5.320   0.649  0.4988  0.3526  0.3429
 2147TIP3    H227933   5.441   5.311   0.796 -0.4878 -0.9569  0.0212
 2148TIP3   OH227934   4.332   3.618   4.439  0.2142 -0.5244  0.8994
 2148TIP3    H127935   4.406   3.559   4.454  0.8826 -0.2015 -0.9954
 2148TIP3    H227936   4.372   3.699   4.406 -1.0426 -0.8821 -1.6327
 2149TIP3   OH227937   3.833   5.885   3.008  0.0943 -0.7858 -0.0901
 2149TIP3    H127938   3.742   5.860   3.024 -0.3743 -0.3628 -1.9537
 2149TIP3    H227939   3.843   5.969   3.053 -0.6729 -0.4606 -0.5112
 2150TIP3   OH227940   4.644   5.244  12.716  0.0702  0.2751  0.0125
 2150TIP3    H127941   4.552   5.261  12.735 -0.4379 -0.5395 -1.5906
 2150TIP3    H227942   4.692   5.309  12.768 -1.3001 -0.5489  2.3829
 2151TIP3   OH227943   2.942   2.599  16.872 -0.3801  0.1089 -0.1261
 2151TIP3    H127944   2.873   2.626  16.811 -1.3953  0.9193  1.3680
 2151TIP3    H227945   2.901   2.603  16.958  1.1694 -0.6381  0.6633
 2152TIP3   OH227946   1.013   2.093  12.049 -0.6916  0.0085 -0.5388
 2152TIP3    H127947   1.093   2.080  12.101 -0.9307 -1.0130 -0.4174
 2152TIP3    H227948   0.968   2.166  12.093 -0.4804 -0.2944  0.1937
 2153TIP3   OH227949   6.544   5.876  12.443  0.1471 -0.3349 -0.3531
 2153TIP3    H127950   6.626   5.925  12.437  0.5209 -0.7285  1.2329
 2153TIP3    H227951   6.559   5.813  12.514 -1.7141 -0.0236  0.3509
 2154TIP3   OH227952   1.352   3.380  10.793  0.1186  0.3822  0.4652
 2154TIP3    H127953   1.360   3.426  10.710 -0.6019 -1.2385 -0.5193
 2154TIP3    H227954   1.421   3.417  10.848  0.6587  1.3932 -0.8817
 2155TIP3   OH227955   1.609   6.033  11.112 -0.7451 -0.1463 -0.1423
 2155TIP3    H127956   1.519   6.011  11.135 -0.4397 -1.3128 -0.0507
 2155TIP3    H227957   1.637   6.093  11.181 -1.1425 -0.5194  0.3477
 2156TIP3   OH227958   6.657   6.521  15.578 -0.1287  0.2329  0.0559
 2156TIP3    H127959   6.576   6.514  15.630  0.5294  1.2278  1.2440
 2156TIP3    H227960   6.726   6.528  15.644  0.8635  0.0582 -0.9687
 2157TIP3   OH227961   1.546   3.377  12.682 -0.1898 -0.8742  0.6497
 2157TIP3    H127962   1.482   3.444  12.708 -0.2846 -0.3095 -1.0032
 2157TIP3    H227963   1.631   3.418  12.696 -0.2586  0.4567 -2.4688
 2158TIP3   OH227964   0.974   3.550   3.650  0.4222  0.5069 -0.2391
 2158TIP3    H127965   1.068   3.536   3.664 -0.0802 -0.5423  2.3246
 2158TIP3    H227966   0.960   3.524   3.559  2.3864 -0.6260 -0.2533
 2159TIP3   OH227967   1.768   4.997   3.097 -0.5417 -0.6139  0.8949
 2159TIP3    H127968   1.756   5.091   3.078  0.3627 -0.8017 -0.7657
 2159TIP3    H227969   1.799   4.994   3.187 -0.6253  0.6967  0.9783
 2160TIP3   OH227970   0.433   1.624  11.317 -0.1475 -0.3308  0.6698
 2160TIP3    H127971   0.478   1.694  11.269  0.6881 -0.7290  0.8614
 2160TIP3    H227972   0.343   1.656  11.327 -0.8952 -1.1751 -2.9608
 2161TIP3   OH227973   6.189   0.142   4.972  0.2004 -0.8139 -0.0579
 2161TIP3    H127974   6.249   0.139   4.897 -2.1947 -2.3237 -1.9738
 2161TIP3    H227975   6.131   0.216   4.953 -1.1503 -1.9287 -0.2777
 2162TIP3   OH227976   3.054   0.359   0.057 -0.5374  0.2879  0.3262
 2162TIP3    H127977   3.049   0.295   0.128 -1.8967 -0.1009 -0.1008
 2162TIP3    H227978   3.039   0.308  -0.023  0.5317  0.7957 -0.2146
 2163TIP3   OH227979   4.285   0.942  16.088  0.0248  0.1435 -0.0773
 2163TIP3    H127980   4.237   0.901  16.161  0.6474 -1.6147 -0.6451
 2163TIP3    H227981   4.216   0.966  16.026 -0.4181  0.7290  0.6193
 2164TIP3   OH227982   3.026   2.687   3.752  0.4100  0.0612 -0.5125
 2164TIP3    H127983   3.090   2.724   3.691  1.9267  0.1498  1.0904
 2164TIP3    H227984   3.016   2.754   3.820  1.0648 -1.2726  0.9432
 2165TIP3   OH227985   3.320   5.807  17.231  0.0022  0.3327  0.2327
 2165TIP3    H127986   3.398   5.859  17.212 -0.7853  1.2892 -0.4496
 2165TIP3    H227987   3.344   5.718  17.209  1.0537  0.5561  0.4716
 2166TIP3   OH227988   6.329   6.581  15.520 -0.0267 -0.3139 -0.6072
 2166TIP3    H127989   6.348   6.553  15.609  2.1579 -2.8440 -1.8023
 2166TIP3    H227990   6.362   6.671  15.515 -0.0259 -0.2113  1.0737
 2167TIP3   OH227991   2.585   5.050   0.800  0.6884 -0.0417  0.2987
 2167TIP3    H127992   2.604   5.005   0.883  1.0228  0.7159  0.6377
 2167TIP3    H227993   2.629   5.134   0.808 -0.6229  0.6873  0.0123
 2168TIP3   OH227994   5.759   1.142   4.817  0.0982 -0.3165  0.0479
 2168TIP3    H127995   5.678   1.180   4.782  0.2797 -0.9048 -1.0487
 2168TIP3    H227996   5.829   1.189   4.771  0.4555  1.5823  2.4373
 2169TIP3   OH227997   6.752   0.091  11.260 -0.4003  0.6451  0.1701
 2169TIP3    H127998   6.779   0.109  11.170 -2.0284 -1.1137 -0.7063
 2169TIP3    H227999   6.833   0.093  11.310  0.5451  1.5548 -1.3470
 2170TIP3   OH228000   4.951   3.375   0.180 -0.3992 -0.3587  0.1657
 2170TIP3    H128001   4.951   3.302   0.118 -1.4993  0.9173 -1.3951
 2170TIP3    H228002   4.886   3.350   0.246 -0.3204 -1.0595 -0.0133
 2171TIP3   OH228003   5.821   2.042   1.247  0.3363 -0.2143  0.8451
 2171TIP3    H128004   5.827   2.136   1.229 -2.1207  0.0648  1.2890
 2171TIP3    H228005   5.813   2.001   1.160  0.2240  0.0865  0.7137
 2172TIP3   OH228006   1.158   0.772  11.235 -0.1651  0.1022  0.2140
 2172TIP3    H128007   1.074   0.815  11.250  0.4327  0.6991  1.9944
 2172TIP3    H228008   1.202   0.826  11.170 -0.3713  0.8659  0.7069
 2173TIP3   OH228009   0.521   0.733   5.936 -0.0238  0.1260  0.0085
 2173TIP3    H128010   0.507   0.750   6.029  0.5250  1.3494 -0.1184
 2173TIP3    H228011   0.485   0.810   5.892 -0.2309 -0.4194 -0.7896
 2174TIP3   OH228012   4.472   3.613   5.297  0.4391 -0.5481  0.8129
 2174TIP3    H128013   4.533   3.644   5.363  0.7179 -0.8131  0.6799
 2174TIP3    H228014   4.394   3.588   5.346 -0.0790  1.0846  0.8432
 2175TIP3   OH228015   3.925   3.582   2.446 -0.3573 -0.1370 -0.4030
 2175TIP3    H128016   3.962   3.638   2.377  1.2104  0.4733  0.8815
 2175TIP3    H228017   3.834   3.611   2.454 -0.1925  0.6762 -1.3104
 2176TIP3   OH228018   5.601   2.663   3.225  0.3491 -0.4159 -0.3994
 2176TIP3    H128019   5.666   2.594   3.219  0.2559 -0.5190 -0.2306
 2176TIP3    H228020   5.558   2.648   3.309 -0.0154 -0.4572 -0.5918
 2177TIP3   OH228021   1.799   2.216  11.815  1.2433  0.0587  0.6441
 2177TIP3    H128022   1.822   2.133  11.858 -0.9963 -0.2054  1.3828
 2177TIP3    H228023   1.862   2.279  11.850  1.2721 -0.7777  2.1452
 2178TIP3   OH228024   5.224   0.963   5.243  0.2299 -0.0420  0.1917
 2178TIP3    H128025   5.248   1.048   5.281  2.3440 -0.8239  0.7028
 2178TIP3    H228026   5.173   0.920   5.311  0.2013  0.3259  0.4077
 2179TIP3   OH228027   1.284   6.646   4.141  0.5305  0.0827 -0.3904
 2179TIP3    H128028   1.296   6.559   4.180 -0.7429  1.5586  3.5454
 2179TIP3    H228029   1.224   6.631   4.067 -0.7556 -2.2003  1.0460
 2180TIP3   OH228030   3.762   2.762   0.325 -0.1349  0.9367  0.5211
 2180TIP3    H128031   3.848   2.733   0.296 -0.7124  0.1607 -0.4498
 2180TIP3    H228032   3.731   2.818   0.254 -0.0869  1.9104  1.2505
 2181TIP3   OH228033   5.379   1.540   4.159 -0.4044  0.2715 -0.5621
 2181TIP3    H128034   5.398   1.578   4.245 -1.8905  1.0467 -0.5591
 2181TIP3    H228035   5.368   1.616   4.102  0.8774 -0.2496 -1.5115
 2182TIP3   OH228036   6.777   4.918  11.213 -0.0169  0.3798  0.0731
 2182TIP3    H128037   6.760   5.004  11.176  0.3135  0.5720  0.3753
 2182TIP3    H228038   6.860   4.890  11.172 -0.3029  0.0553 -0.2963
 2183TIP3   OH228039   1.355   5.741  14.566  0.9275 -0.0925 -0.3251
 2183TIP3    H128040   1.274   5.691  14.552 -0.1596  2.0671 -2.0484
 2183TIP3    H228041   1.396   5.698  14.642 -1.4684 -1.6723  0.1573
 2184TIP3   OH228042   1.598   6.467   3.438  0.3632 -0.2184 -0.7080
 2184TIP3    H128043   1.690   6.460   3.465 -0.7014 -1.2148  2.8900
 2184TIP3    H228044   1.584   6.390   3.383  1.0582 -1.4221  0.7638
 2185TIP3   OH228045   1.391   6.375  12.153 -0.0787 -0.3381 -0.2669
 2185TIP3    H128046   1.421   6.456  12.193 -1.2303 -0.0133 -0.0225
 2185TIP3    H228047   1.301   6.364  12.186 -1.0355 -0.0990 -2.6984
 2186TIP3   OH228048   2.173   1.939   5.350  0.3947  0.0135 -0.0056
 2186TIP3    H128049   2.203   1.852   5.323 -0.5149 -0.4313  0.4178
 2186TIP3    H228050   2.230   1.962   5.424  0.6595 -0.2010 -0.1410
 2187TIP3   OH228051   2.344   6.813   6.481 -0.4779  0.4104 -0.3426
 2187TIP3    H128052   2.275   6.800   6.546 -0.0286 -1.1414 -0.1658
 2187TIP3    H228053   2.425   6.795   6.529 -0.1292 -0.4520 -1.2501
 2188TIP3   OH228054   1.123   6.057  12.113  0.0340  0.2146 -0.1379
 2188TIP3    H128055   1.058   6.126  12.128 -0.8936 -0.1684 -2.1345
 2188TIP3    H228056   1.074   5.976  12.125  0.2662 -0.0765 -1.1308
 2189TIP3   OH228057   2.087   4.173  13.135  0.0173 -0.0423 -0.5311
 2189TIP3    H128058   2.069   4.082  13.161  0.1398  0.2014  0.4355
 2189TIP3    H228059   2.120   4.214  13.215  3.6633 -0.1314 -1.8675
 2190TIP3   OH228060   4.591   1.617   4.577  0.2715 -0.2857 -0.2712
 2190TIP3    H128061   4.557   1.547   4.634 -1.8441 -0.2369 -1.4069
 2190TIP3    H228062   4.639   1.571   4.509  1.5798 -0.4304  0.7341
 2191TIP3   OH228063   1.551   3.333   4.645  0.4157  0.0858 -0.5300
 2191TIP3    H128064   1.579   3.359   4.557 -0.8732  0.5749 -0.8198
 2191TIP3    H228065   1.611   3.379   4.704 -0.2574  1.7779 -1.1085
 2192TIP3   OH228066   3.324   1.522  15.497 -0.4544 -0.2978 -0.0438
 2192TIP3    H128067   3.261   1.594  15.495 -1.6665 -1.3089  0.8307
 2192TIP3    H228068   3.378   1.539  15.575 -1.0160 -0.5516  0.4053
 2193TIP3   OH228069   6.367   2.139   0.648  0.2452  0.0452  0.4233
 2193TIP3    H128070   6.406   2.055   0.671  1.0717  0.1935 -0.4245
 2193TIP3    H228071   6.293   2.148   0.708  0.9316 -0.6782  1.3917
 2194TIP3   OH228072   0.688   0.445   5.149 -0.2207  0.1218 -0.3688
 2194TIP3    H128073   0.611   0.451   5.205 -0.4745  1.3056 -0.8246
 2194TIP3    H228074   0.657   0.398   5.072  0.3283 -2.1975  0.8027
 2195TIP3   OH228075   6.340   5.497   5.482  0.2651 -0.2361 -0.0869
 2195TIP3    H128076   6.425   5.539   5.470 -0.8152  1.2899 -2.8359
 2195TIP3    H228077   6.333   5.435   5.409 -1.0093 -0.2581  0.0445
 2196TIP3   OH228078   4.791   0.340   3.605  0.2176  0.5559  0.0710
 2196TIP3    H128079   4.732   0.286   3.659  0.9566  0.5499  0.8818
 2196TIP3    H228080   4.879   0.317   3.635  0.6052  1.0681 -0.6615
 2197TIP3   OH228081   4.648   2.086  11.453 -0.5144  0.3768  0.2443
 2197TIP3    H128082   4.643   2.181  11.463 -1.2729  0.3148  0.4748
 2197TIP3    H228083   4.735   2.070  11.415 -0.4234  1.1642  0.1216
 2198TIP3   OH228084   2.823   3.438  14.432  0.2539  0.1571  0.2344
 2198TIP3    H128085   2.898   3.398  14.476  0.6716  0.8719  0.1784
 2198TIP3    H228086   2.749   3.421  14.491  1.1752  2.9494  2.2940
 2199TIP3   OH228087   0.581   2.385  16.267  0.0402  0.1487 -0.1196
 2199TIP3    H128088   0.536   2.303  16.246  1.8155 -0.8994  0.1127
 2199TIP3    H228089   0.616   2.415  16.184 -1.9603  1.5343 -0.4981
 2200TIP3   OH228090   5.399   2.919  13.416  0.2902  0.0582 -0.3187
 2200TIP3    H128091   5.376   2.993  13.472  1.6514  1.1093 -1.1053
 2200TIP3    H228092   5.486   2.892  13.445  0.8013  0.2944 -1.5738
 2201TIP3   OH228093   0.731   1.065   0.900 -0.3605  0.2325  0.4063
 2201TIP3    H128094   0.792   1.031   0.966 -2.4516 -0.8713  1.8446
 2201TIP3    H228095   0.658   1.100   0.951 -2.8012 -2.1468 -1.2988
 2202TIP3   OH228096   6.383   5.298   0.104 -0.0567  0.3976 -0.2572
 2202TIP3    H128097   6.439   5.302   0.026  0.3610 -0.3545 -0.0101
 2202TIP3    H228098   6.431   5.348   0.170 -0.1049  0.5020 -0.3009
 2203TIP3   OH228099   2.490   1.716   1.766  0.1176 -0.8735 -0.1730
 2203TIP3    H128100   2.548   1.769   1.821 -1.3490 -0.3052  0.8686
 2203TIP3    H228101   2.496   1.628   1.802 -0.2355 -0.6614  0.4093
 2204TIP3   OH228102   3.683   3.535  16.259 -0.7920  0.3084  0.0621
 2204TIP3    H128103   3.639   3.451  16.272  0.9938 -0.8347 -1.2266
 2204TIP3    H228104   3.765   3.527  16.308 -0.8539  1.5177  0.3858
 2205TIP3   OH228105   4.112   0.755  15.454 -0.1433 -0.3245  0.5228
 2205TIP3    H128106   4.202   0.728  15.435  0.5178  1.5544  0.8202
 2205TIP3    H228107   4.109   0.763  15.549  0.2985  2.5637  0.3363
 2206TIP3   OH228108   3.653   6.350   4.244 -0.3038 -0.2622  0.4856
 2206TIP3    H128109   3.674   6.256   4.245 -1.9567 -0.6645 -0.4624
 2206TIP3    H228110   3.684   6.382   4.328 -2.4787 -2.3028  2.1348
 2207TIP3   OH228111   6.283   4.072   5.197  0.2239  0.5290  0.2866
 2207TIP3    H128112   6.281   4.008   5.268 -0.9975 -0.4630 -0.6248
 2207TIP3    H228113   6.282   4.157   5.242 -1.1731 -0.0794  1.4316
 2208TIP3   OH228114   2.811   1.823  13.414  0.1794 -0.7205 -0.3052
 2208TIP3    H128115   2.775   1.735  13.420 -0.4862 -0.3688  1.0809
 2208TIP3    H228116   2.745   1.872  13.365  1.1085 -1.2537 -2.1600
 2209TIP3   OH228117   6.234   0.113  14.541 -0.3100 -0.3066 -0.5664
 2209TIP3    H128118   6.229   0.023  14.510  2.8149 -1.1674  1.1868
 2209TIP3    H228119   6.173   0.161  14.485  1.8045 -2.5630 -5.0746
 2210TIP3   OH228120   0.902   3.904  16.113  0.4490  0.0354  0.1452
 2210TIP3    H128121   0.982   3.901  16.165 -0.8100  2.9087  2.3535
 2210TIP3    H228122   0.840   3.849  16.161  1.0353 -2.2044 -1.5751
 2211TIP3   OH228123   5.616   5.961  12.436 -0.1365 -0.2328 -0.1159
 2211TIP3    H128124   5.694   5.994  12.482 -1.7755  2.0333  1.1726
 2211TIP3    H228125   5.624   5.997  12.347 -0.3813  1.1965  0.4149
 2212TIP3   OH228126   2.379   5.574  12.666  0.1196  0.2460  0.2038
 2212TIP3    H128127   2.361   5.499  12.722  1.6348 -1.5708 -1.6310
 2212TIP3    H228128   2.299   5.587  12.616  0.1227 -0.6974 -0.0538
 2213TIP3   OH228129   6.408   5.246   6.898 -0.1468  0.5367  0.0830
 2213TIP3    H128130   6.489   5.196   6.891 -0.8881 -0.7461  0.5210
 2213TIP3    H228131   6.348   5.204   6.836 -1.1861  0.0680  1.3986
 2214TIP3   OH228132   6.037   6.002  13.570 -0.5126 -0.1493  0.4495
 2214TIP3    H128133   5.976   5.936  13.537 -0.5682 -0.2887  0.8333
 2214TIP3    H228134   5.983   6.059  13.624 -0.0421 -1.0573  1.8911
 2215TIP3   OH228135   4.899   5.776   0.815 -0.5046  0.0742  0.0727
 2215TIP3    H128136   4.919   5.862   0.778 -1.4439  1.4557  2.6708
 2215TIP3    H228137   4.853   5.731   0.744  0.5357  1.4720 -1.5380
 2216TIP3   OH228138   0.870   2.848  11.156 -0.2974  0.5561  0.1151
 2216TIP3    H128139   0.938   2.791  11.120  0.1830 -0.4565  2.5292
 2216TIP3    H228140   0.788   2.809  11.127  0.0920  0.2865 -0.6317
 2217TIP3   OH228141   2.173   4.140   2.895  0.3947  0.1384  0.8411
 2217TIP3    H128142   2.163   4.213   2.834 -0.0281 -1.8386 -1.5361
 2217TIP3    H228143   2.091   4.138   2.945  1.1738  2.4378  2.2903
 2218TIP3   OH228144   3.171   3.110  10.972  0.4592  0.0179 -0.2685
 2218TIP3    H128145   3.088   3.145  10.940  0.5780  1.1984  0.6898
 2218TIP3    H228146   3.238   3.160  10.925  0.6270  0.3996  0.3677
 2219TIP3   OH228147   1.110   6.031  16.372 -0.0003 -0.2007  0.2408
 2219TIP3    H128148   1.175   6.082  16.422 -0.7910  1.6836 -0.6013
 2219TIP3    H228149   1.152   6.015  16.288 -0.0364 -0.2972  0.2409
 2220TIP3   OH228150   6.467   1.220   3.048 -0.4720  0.4824 -0.2373
 2220TIP3    H128151   6.434   1.269   2.973 -1.2298  0.5726  0.1567
 2220TIP3    H228152   6.519   1.150   3.009 -0.4185  0.8476 -0.8344
 2221TIP3   OH228153   5.699   2.067  15.963 -0.0713  0.4758 -0.0701
 2221TIP3    H128154   5.609   2.040  15.980 -0.3260  1.5038  0.2047
 2221TIP3    H228155   5.734   1.998  15.906 -1.4371  0.7593 -1.2727
 2222TIP3   OH228156   4.865   0.251  13.582  0.1348  0.3119 -0.5207
 2222TIP3    H128157   4.836   0.342  13.593  2.1258  1.0090 -0.8059
 2222TIP3    H228158   4.882   0.243  13.488  0.7594 -0.0945 -0.3742
 2223TIP3   OH228159   6.544   4.173  14.501  0.3810  0.1493  0.2783
 2223TIP3    H128160   6.508   4.142  14.418 -0.6778  0.9685  0.4234
 2223TIP3    H228161   6.637   4.186  14.483  0.5494 -1.5753 -0.2172
 2224TIP3   OH228162   4.190   1.804  16.918  0.3757  0.6263  0.0571
 2224TIP3    H128163   4.180   1.895  16.889  1.7345  1.6133  2.5405
 2224TIP3    H228164   4.166   1.806  17.011  0.8070 -1.5000  0.2392
 2225TIP3   OH228165   2.742   2.780  15.672 -0.1990 -0.0511  0.2020
 2225TIP3    H128166   2.808   2.777  15.741  0.3394 -0.2005 -0.3162
 2225TIP3    H228167   2.689   2.702  15.686  2.6175 -2.5136 -2.2072
 2226TIP3   OH228168   6.542   0.766  10.849  0.0530 -0.0503  0.1889
 2226TIP3    H128169   6.452   0.794  10.831  0.0797 -0.9581 -1.4200
 2226TIP3    H228170   6.537   0.670  10.849  1.3083 -0.1204 -1.3990
 2227TIP3   OH228171   3.506   3.229   1.557 -0.0764  0.3559 -0.1469
 2227TIP3    H128172   3.550   3.210   1.474  0.3536 -1.4416  0.4815
 2227TIP3    H228173   3.522   3.322   1.572 -2.0106  1.2717 -3.1801
 2228TIP3   OH228174   3.339   5.008   5.712 -0.0270 -0.4294 -0.2778
 2228TIP3    H128175   3.276   5.078   5.700  1.3665  0.8914 -0.0428
 2228TIP3    H228176   3.321   4.974   5.800  1.4005  1.8653  0.9723
 2229TIP3   OH228177   5.960   2.828  12.676 -1.0432  0.2087 -0.0102
 2229TIP3    H128178   6.034   2.815  12.735 -1.2750  1.7146  0.6599
 2229TIP3    H228179   5.910   2.747  12.681 -0.5659 -0.0252  1.1802
 2230TIP3   OH228180   3.577   0.749  14.106  0.0964 -0.1514 -0.2472
 2230TIP3    H128181   3.520   0.824  14.093  0.8832  0.2590 -1.4334
 2230TIP3    H228182   3.649   0.763  14.045  0.2138 -1.9037 -0.5359
 2231TIP3   OH228183   1.640   3.029  16.839  0.0095 -0.0951 -0.0517
 2231TIP3    H128184   1.660   3.120  16.859 -0.8217 -0.2416  1.5991
 2231TIP3    H228185   1.721   2.982  16.857 -1.3805 -0.5994  5.9512
 2232TIP3   OH228186   2.507   2.902  12.891 -0.2958  0.4354 -0.0912
 2232TIP3    H128187   2.439   2.885  12.957  0.6886 -0.0435  0.8170
 2232TIP3    H228188   2.506   2.824  12.836  1.7866 -1.1077  1.9438
 2233TIP3   OH228189   4.375   1.840   4.212 -0.1367 -0.3678  0.4133
 2233TIP3    H128190   4.458   1.814   4.252 -0.1342 -0.9337  0.0443
 2233TIP3    H228191   4.331   1.757   4.191 -0.5314 -0.0717  0.0598
 2234TIP3   OH228192   1.740   1.890   3.849 -0.3770  0.4406  0.8135
 2234TIP3    H128193   1.708   1.804   3.876 -0.7345  0.5128  0.6326
 2234TIP3    H228194   1.696   1.906   3.765  0.1981  0.5106  0.5206
 2235TIP3   OH228195   6.313   2.055  16.426 -0.3483  0.4188 -0.5276
 2235TIP3    H128196   6.259   2.051  16.505 -1.4610  0.8145 -1.2632
 2235TIP3    H228197   6.254   2.030  16.355  0.0595  2.1487 -1.5053
 2236TIP3   OH228198   5.708   0.990   3.162 -0.2472  0.0761  0.3694
 2236TIP3    H128199   5.691   1.003   3.255  0.6347  1.1046  0.3938
 2236TIP3    H228200   5.646   1.048   3.118 -0.7556 -0.5108  0.3164
 2237TIP3   OH228201   3.926   2.165  15.930  0.1014 -0.1262  0.7940
 2237TIP3    H128202   3.972   2.088  15.896 -0.1409 -0.6850  1.7155
 2237TIP3    H228203   3.958   2.238  15.876  0.6660 -0.7975  0.2080
 2238TIP3   OH228204   1.916   2.040   1.109 -0.1383 -0.1166 -0.2214
 2238TIP3    H128205   1.911   2.126   1.068  1.1139 -0.5731 -1.3834
 2238TIP3    H228206   1.837   1.995   1.081 -0.8429  0.6782  0.4683
 2239TIP3   OH228207   5.407   4.458   3.608 -0.0961  0.4981  0.1818
 2239TIP3    H128208   5.486   4.458   3.554 -0.7403  3.0865 -0.8698
 2239TIP3    H228209   5.373   4.369   3.602  0.9397  0.2207 -2.1148
 2240TIP3   OH228210   6.404   6.560  15.246  0.5236 -0.5150  0.4114
 2240TIP3    H128211   6.361   6.580  15.329  0.4223 -2.1967  0.7851
 2240TIP3    H228212   6.470   6.494  15.268  0.0920 -1.4273 -0.9343
 2241TIP3   OH228213   1.448   3.184  16.246 -0.6337  0.2455  0.5972
 2241TIP3    H128214   1.513   3.120  16.218  0.2195  0.9975  0.8472
 2241TIP3    H228215   1.497   3.266  16.258 -1.9609  1.3314 -1.1569
 2242TIP3   OH228216   3.488   3.014   1.774 -0.1537 -0.4251 -0.3380
 2242TIP3    H128217   3.547   3.077   1.734 -0.1244  0.3829  0.9533
 2242TIP3    H228218   3.424   2.994   1.705  0.4581  0.1961 -1.0983
 2243TIP3   OH228219   1.107   2.208   3.290 -0.6362  0.0036  0.9172
 2243TIP3    H128220   1.102   2.136   3.353 -0.4481  0.3499  1.3262
 2243TIP3    H228221   1.182   2.260   3.318  0.2647 -0.5884 -0.3842
 2244TIP3   OH228222   3.577   4.020   2.903  0.0658 -0.1948 -0.7283
 2244TIP3    H128223   3.529   4.099   2.877 -1.1959 -0.7728 -0.1695
 2244TIP3    H228224   3.658   4.054   2.942 -2.5319  1.0657  3.9204
 2245TIP3   OH228225   0.677   5.607  11.127  0.1359  0.2312  0.3000
 2245TIP3    H128226   0.672   5.612  11.032 -2.0141  3.2265  0.5013
 2245TIP3    H228227   0.610   5.543  11.152  1.7748 -1.7391 -0.2473
 2246TIP3   OH228228   3.442   1.697   0.429  0.3391 -0.3341 -0.0438
 2246TIP3    H128229   3.487   1.617   0.402  2.0867  0.6136  0.0658
 2246TIP3    H228230   3.428   1.686   0.523  1.3819 -0.1107  0.1363
 2247TIP3   OH228231   5.603   5.194  12.531  0.0157 -0.0221  0.4298
 2247TIP3    H128232   5.517   5.209  12.569  0.0440  2.7878 -0.5141
 2247TIP3    H228233   5.610   5.259  12.461  1.7422 -2.1316 -1.4341
 2248TIP3   OH228234   2.423   1.421  15.749  0.5051  0.2341  0.2002
 2248TIP3    H128235   2.355   1.480  15.781 -0.2025 -0.6805  0.4063
 2248TIP3    H228236   2.393   1.333  15.774  0.8401 -0.3393 -1.3551
 2249TIP3   OH228237   0.550   3.755  14.564 -0.2951  0.1364 -0.0277
 2249TIP3    H128238   0.573   3.728  14.653  0.0309 -2.0195 -0.7251
 2249TIP3    H228239   0.607   3.829  14.546  0.2370  0.0619  1.2637
 2250TIP3   OH228240   3.385   0.494   4.855  0.7423 -0.0379 -0.4609
 2250TIP3    H128241   3.334   0.548   4.915  0.2788 -1.4123  0.3926
 2250TIP3    H228242   3.330   0.487   4.776  0.0288 -0.7170  0.0922
 2251TIP3   OH228243   2.705   4.938  16.921  0.3304  0.9506  0.1241
 2251TIP3    H128244   2.657   4.899  16.994  0.1658  2.6802  0.9578
 2251TIP3    H228245   2.667   5.025  16.911  1.9324  1.5967 -0.5135
 2252TIP3   OH228246   2.739   3.734  15.229 -0.4681 -0.1129 -0.5311
 2252TIP3    H128247   2.662   3.681  15.208  0.4465 -0.6398 -2.6776
 2252TIP3    H228248   2.725   3.817  15.184 -1.0023  0.7945  1.2605
 2253TIP3   OH228249   1.755   1.326   3.524 -0.0564 -0.5461 -0.2471
 2253TIP3    H128250   1.772   1.413   3.560 -2.4648  0.3680 -1.2638
 2253TIP3    H228251   1.726   1.274   3.599 -0.6009  0.0896 -0.0186
 2254TIP3   OH228252   4.287   3.706   1.111  0.2180  0.5647 -0.5835
 2254TIP3    H128253   4.301   3.666   1.197  1.1320  2.0663 -0.0145
 2254TIP3    H228254   4.195   3.689   1.091  0.4764 -1.4475 -0.1852
 2255TIP3   OH228255   2.615   0.521  15.120 -0.4862 -0.0761  0.1497
 2255TIP3    H128256   2.524   0.496  15.109 -0.7241  0.3314  1.2158
 2255TIP3    H228257   2.613   0.616  15.133 -0.1558 -0.3930  2.8209
 2256TIP3   OH228258   2.458   4.295   4.339 -0.6237 -0.5093 -0.1076
 2256TIP3    H128259   2.465   4.329   4.428  1.9960  0.0939 -0.4969
 2256TIP3    H228260   2.432   4.204   4.350  1.9379 -1.1363  1.4449
 2257TIP3   OH228261   0.099   0.750   0.856  0.1397 -0.2022  0.0469
 2257TIP3    H128262   0.155   0.697   0.799  0.2439 -1.9363  1.7380
 2257TIP3    H228263   0.020   0.765   0.804  1.1768  0.2417 -1.4462
 2258TIP3   OH228264   1.521   1.897  14.714 -0.2746 -0.4906 -0.1269
 2258TIP3    H128265   1.470   1.816  14.721  0.0405 -0.9885 -3.0350
 2258TIP3    H228266   1.459   1.966  14.738 -0.8530 -1.5031  1.3520
 2259TIP3   OH228267   3.771   2.566  15.032 -0.3763 -0.4664 -0.1045
 2259TIP3    H128268   3.701   2.628  15.049  1.6191  1.3917  1.6058
 2259TIP3    H228269   3.753   2.492  15.089 -1.1884 -0.1914 -0.0079
 2260TIP3   OH228270   1.958   4.043  15.335 -0.6470 -0.6010  0.6523
 2260TIP3    H128271   1.943   4.066  15.243  1.5946 -1.7166 -0.0313
 2260TIP3    H228272   2.025   4.105  15.364 -0.5851 -0.9321  1.2122
 2261TIP3   OH228273   5.827   5.298  13.475  0.2222  0.3816  0.2326
 2261TIP3    H128274   5.864   5.212  13.454  0.4686  0.4396  0.4255
 2261TIP3    H228275   5.739   5.279  13.508  0.8559  0.0745  1.7920
 2262TIP3   OH228276   0.073   4.728  12.913 -0.1508 -1.1094 -0.7740
 2262TIP3    H128277   0.116   4.746  12.997  1.0281  1.5847 -1.9155
 2262TIP3    H228278  -0.019   4.719  12.935 -0.0438  1.0028  0.6376
 2263TIP3   OH228279   6.595   2.583   6.100  0.0055  0.8172  0.4067
 2263TIP3    H128280   6.627   2.648   6.163  2.2507  0.4389 -0.2915
 2263TIP3    H228281   6.534   2.632   6.045 -0.2366  1.7069  1.4410
 2264TIP3   OH228282   2.192   2.564   1.284 -0.1798 -0.4847 -0.3148
 2264TIP3    H128283   2.175   2.583   1.376  0.1282 -1.0915 -0.1290
 2264TIP3    H228284   2.217   2.648   1.246  0.5121 -0.3961  0.3447
 2265TIP3   OH228285   0.062   6.729  12.440  0.2126  0.0837  0.0044
 2265TIP3    H128286   0.147   6.720  12.397  0.5326  0.7412  0.4929
 2265TIP3    H228287   0.073   6.686  12.525  0.0949  0.2965  0.1267
 2266TIP3   OH228288   3.518   5.904   5.101 -0.5632 -0.2700  0.4491
 2266TIP3    H128289   3.503   5.813   5.073 -0.5302 -0.7630  2.0113
 2266TIP3    H228290   3.447   5.953   5.059 -0.8557 -1.0890 -0.0350
 2267TIP3   OH228291   4.839   5.272   2.165 -0.5592  0.2205 -0.6354
 2267TIP3    H128292   4.745   5.293   2.163 -0.4889  0.5232 -0.8870
 2267TIP3    H228293   4.882   5.355   2.142 -0.2457 -0.0308 -0.9556
 2268TIP3   OH228294   6.302   4.597  12.694  0.1720  0.2548 -0.6512
 2268TIP3    H128295   6.259   4.532  12.748 -0.8279  1.8167  0.4754
 2268TIP3    H228296   6.237   4.618  12.626  1.2164 -1.3035 -2.1669
 2269TIP3   OH228297   0.040   2.028   4.780  0.6171 -0.6986  0.2739
 2269TIP3    H128298   0.052   2.002   4.689 -2.7318 -0.6807 -0.2662
 2269TIP3    H228299   0.016   2.121   4.775 -0.4473 -0.9135  1.0616
 2270TIP3   OH228300   0.701   6.505   0.515 -0.0959 -0.1118 -0.0448
 2270TIP3    H128301   0.625   6.543   0.560 -0.7647  0.1837 -1.4017
 2270TIP3    H228302   0.733   6.575   0.458  1.5573 -0.0437  0.9192
 2271TIP3   OH228303   0.342   2.819  13.611 -0.3845  0.1400  0.1458
 2271TIP3    H128304   0.248   2.804  13.623  0.1384 -2.9084  0.7240
 2271TIP3    H228305   0.350   2.845  13.519 -1.8694  1.3086  0.3177
 2272TIP3   OH228306   5.530   2.719   0.323 -0.8190  0.1361 -0.8091
 2272TIP3    H128307   5.518   2.808   0.289  0.6325  0.9509  0.7664
 2272TIP3    H228308   5.624   2.705   0.323 -0.8233 -0.2041  1.9324
 2273TIP3   OH228309   3.575   0.499  13.921  0.0959  0.2025 -0.5885
 2273TIP3    H128310   3.661   0.540  13.912  0.1216  0.2055 -0.3489
 2273TIP3    H228311   3.521   0.542  13.855  0.0807  0.7303 -0.2353
 2274TIP3   OH228312   1.363   5.291   0.493 -0.4488  0.1732  0.0786
 2274TIP3    H128313   1.316   5.230   0.550 -1.1735  0.2296 -0.4478
 2274TIP3    H228314   1.357   5.376   0.538  1.4965 -0.3537  1.3415
 2275TIP3   OH228315   2.580   5.185  16.897 -0.1988  0.4833 -0.1753
 2275TIP3    H128316   2.615   5.268  16.928  0.2375  0.3783 -0.3886
 2275TIP3    H228317   2.543   5.205  16.811 -0.8163  0.6297  0.1241
 2276TIP3   OH228318   4.903   6.359  10.860 -0.0114 -0.8856 -0.2422
 2276TIP3    H128319   4.960   6.344  10.784  1.2043 -2.6412  0.9870
 2276TIP3    H228320   4.814   6.346  10.826  0.3135  1.2006 -2.0181
 2277TIP3   OH228321   3.725   6.556  12.589  0.3246 -0.3327 -0.0760
 2277TIP3    H128322   3.784   6.518  12.524  0.9145 -2.1212  1.4657
 2277TIP3    H228323   3.674   6.482  12.622 -1.0565  0.7965  0.3929
 2278TIP3   OH228324   0.245   4.912   1.384  0.6623 -0.2121  0.3740
 2278TIP3    H128325   0.181   4.948   1.446 -1.0063 -3.8649  0.9036
 2278TIP3    H228326   0.200   4.916   1.299  2.3754  3.3871 -0.4599
 2279TIP3   OH228327   6.295   3.260   2.899  0.2589  0.6267 -0.0670
 2279TIP3    H128328   6.355   3.295   2.833 -0.5973 -0.2399 -1.3347
 2279TIP3    H228329   6.340   3.183   2.934  0.9054  1.3366  0.7060
 2280TIP3   OH228330   5.587   1.722  10.873  0.4423 -0.3621 -0.3849
 2280TIP3    H128331   5.581   1.664  10.949 -0.3489 -1.1910 -1.0652
 2280TIP3    H228332   5.639   1.796  10.903  0.2395 -0.7429  0.9275
 2281TIP3   OH228333   5.585   6.321  16.737  0.0228  0.4045  0.4443
 2281TIP3    H128334   5.585   6.273  16.654  0.6516  0.9910  0.1112
 2281TIP3    H228335   5.643   6.270  16.794  0.8180  0.8511  0.0404
 2282TIP3   OH228336   4.172   0.943  14.209 -0.1909 -0.2423 -0.4156
 2282TIP3    H128337   4.244   0.985  14.257 -0.4668  1.5488 -1.5246
 2282TIP3    H228338   4.139   0.877  14.270  0.2690  1.1438  1.4050
 2283TIP3   OH228339   4.510   6.118  15.235  0.5472 -0.3179 -0.5814
 2283TIP3    H128340   4.414   6.120  15.242  0.4874 -3.4359  0.2216
 2283TIP3    H228341   4.539   6.197  15.280 -1.5763 -0.6650  1.5208
 2284TIP3   OH228342   3.341   2.461  13.209  0.2419  0.4549  0.2615
 2284TIP3    H128343   3.368   2.424  13.292  1.0522  1.4796  0.4657
 2284TIP3    H228344   3.311   2.549  13.231 -2.5426 -0.3751 -0.0751
 2285TIP3   OH228345   5.443   2.140   5.784  0.2320 -0.2995  0.2720
 2285TIP3    H128346   5.403   2.197   5.719  1.4312  0.8376  0.5131
 2285TIP3    H228347   5.496   2.079   5.733  0.9939  0.4488  0.1619
 2286TIP3   OH228348   0.012   0.182  15.091  0.7073  0.5650 -0.3553
 2286TIP3    H128349   0.106   0.165  15.090  0.6143 -0.0801  0.7319
 2286TIP3    H228350  -0.029   0.095  15.094  0.0311  0.7939 -2.2644
 2287TIP3   OH228351   4.190   1.135   2.005 -0.2974 -0.2184  0.3395
 2287TIP3    H128352   4.219   1.110   2.092  1.9575 -0.0124 -0.3218
 2287TIP3    H228353   4.251   1.090   1.946 -0.4918  1.3269 -1.0518
 2288TIP3   OH228354   2.385   1.958   6.218 -0.4784  0.7787 -0.2588
 2288TIP3    H128355   2.426   1.953   6.132  0.9659  1.2572  0.3836
 2288TIP3    H228356   2.375   2.052   6.234 -2.0710  0.6697 -0.5006
 2289TIP3   OH228357   5.182   1.728   0.492  0.1957 -0.7984  0.0034
 2289TIP3    H128358   5.235   1.660   0.533  0.3788 -0.2594  0.6690
 2289TIP3    H228359   5.191   1.713   0.398  0.1242 -1.7773  0.1566
 2290TIP3   OH228360   2.258   0.331  13.833  0.6841 -0.1646 -0.4328
 2290TIP3    H128361   2.209   0.291  13.761 -0.1589 -0.7206  0.4430
 2290TIP3    H228362   2.195   0.338  13.905  1.0846  1.7762 -0.2187
 2291TIP3   OH228363   0.189   2.264   0.214 -0.1018 -0.5513 -0.1870
 2291TIP3    H128364   0.158   2.345   0.173  1.5959  0.4339  0.4209
 2291TIP3    H228365   0.139   2.259   0.296 -0.1451 -0.0574 -0.1788
 2292TIP3   OH228366   0.101   5.192  12.454  0.1597 -0.1837 -0.2419
 2292TIP3    H128367   0.028   5.216  12.397 -0.6333  0.9141  1.1930
 2292TIP3    H228368   0.165   5.263  12.443  0.1536 -0.1454 -0.0379
 2293TIP3   OH228369   1.379   1.371  11.398  0.5299 -0.3948  0.4642
 2293TIP3    H128370   1.327   1.448  11.374 -0.2978 -1.0930 -0.0236
 2293TIP3    H228371   1.470   1.400  11.390  0.2226  0.5321  0.2716
 2294TIP3   OH228372   2.779   4.904  17.275  0.0903 -0.0787 -0.0863
 2294TIP3    H128373   2.821   4.870  17.354  1.0296  0.6588 -0.2687
 2294TIP3    H228374   2.685   4.896  17.293  0.2957  0.5534  1.3112
 2295TIP3   OH228375   2.708   0.302  12.477 -0.3130 -0.4816 -0.2131
 2295TIP3    H128376   2.697   0.391  12.441  0.4572 -0.1837  0.2863
 2295TIP3    H228377   2.800   0.282  12.464 -0.3124 -0.8916  0.4192
 2296TIP3   OH228378   5.767   5.263   5.719  0.1027 -0.1764 -0.0005
 2296TIP3    H128379   5.782   5.343   5.768  1.5161 -1.0461  1.0172
 2296TIP3    H228380   5.715   5.208   5.778 -0.8741 -0.0054 -0.6982
 2297TIP3   OH228381   1.254   3.366   5.956 -0.3545 -0.5325 -0.5016
 2297TIP3    H128382   1.234   3.273   5.966 -4.0312  0.1079 -1.4958
 2297TIP3    H228383   1.312   3.370   5.880 -1.2951 -1.8596 -1.2993
 2298TIP3   OH228384   6.138   0.620  13.528  0.1280 -0.5340 -0.0455
 2298TIP3    H128385   6.070   0.680  13.560  1.8983  1.7070 -0.3279
 2298TIP3    H228386   6.116   0.605  13.436  0.7515  1.3067 -0.5183
 2299TIP3   OH228387   0.709   5.656   0.700 -0.0156 -0.2642  0.1391
 2299TIP3    H128388   0.661   5.739   0.696 -1.3598 -1.0906 -2.9714
 2299TIP3    H228389   0.655   5.599   0.754  0.1343  0.4033  1.0018
 2300TIP3   OH228390   2.723   6.708  13.846 -0.2656  0.2409 -0.2459
 2300TIP3    H128391   2.725   6.799  13.874  0.8800  0.9570 -2.4973
 2300TIP3    H228392   2.651   6.704  13.782 -0.0387 -0.3343 -0.4700
 2301TIP3   OH228393   3.985   2.650   0.219 -0.3604  0.0734  0.3990
 2301TIP3    H128394   4.064   2.643   0.166  1.7494  0.3799  3.3379
 2301TIP3    H228395   3.941   2.566   0.210  1.6863 -1.0605  0.7518
 2302TIP3   OH228396   0.238   3.344   3.208 -0.5454 -0.5599  0.8993
 2302TIP3    H128397   0.272   3.255   3.217  1.0004 -0.0189  0.5977
 2302TIP3    H228398   0.143   3.335   3.212 -0.3313 -1.9747  3.0472
 2303TIP3   OH228399   0.170   2.143  16.552 -0.4007  0.3812  0.1943
 2303TIP3    H128400   0.144   2.091  16.476  3.2544 -0.1976 -0.7673
 2303TIP3    H228401   0.180   2.079  16.623  2.0046 -0.0038 -0.4398
 2304TIP3   OH228402   6.578   0.286  11.917 -0.0544 -0.4707  0.5001
 2304TIP3    H128403   6.595   0.197  11.885  1.6915 -0.0254  0.1497
 2304TIP3    H228404   6.484   0.298  11.903  0.0473 -1.5264 -1.3651
 2305TIP3   OH228405   4.914   0.162  12.628  0.2719  0.2660 -0.0230
 2305TIP3    H128406   4.824   0.131  12.633  0.2822  0.4458  1.6081
 2305TIP3    H228407   4.909   0.256  12.641  0.7636  0.1529  1.1041
 2306TIP3   OH228408   4.689   3.751  14.291 -0.4525 -0.0383  0.2607
 2306TIP3    H128409   4.715   3.678  14.347 -0.7148 -1.1491 -1.0495
 2306TIP3    H228410   4.770   3.782  14.251 -0.6412 -1.2710 -1.1402
 2307TIP3   OH228411   6.206   4.729  13.818 -0.2048 -0.7089  0.1957
 2307TIP3    H128412   6.285   4.680  13.839  1.0071  1.3531  0.6058
 2307TIP3    H228413   6.200   4.727  13.722  1.3604  0.6182  0.0487
 2308TIP3   OH228414   2.961   3.555  14.674 -0.0978 -0.0685 -0.1511
 2308TIP3    H128415   2.887   3.529  14.729  0.7204 -1.0535  0.5010
 2308TIP3    H228416   2.999   3.473  14.643  1.4328  0.3631  0.4904
 2309TIP3   OH228417   4.180   5.680   3.980 -0.0357  0.4710 -0.1206
 2309TIP3    H128418   4.185   5.679   4.076  2.4884 -0.8773 -0.1981
 2309TIP3    H228419   4.148   5.767   3.958  0.4787  1.2179  1.9306
 2310TIP3   OH228420   6.411   3.734  15.405  0.3633  0.2434 -0.4308
 2310TIP3    H128421   6.397   3.725  15.310  0.5947  3.0649 -0.7571
 2310TIP3    H228422   6.352   3.669  15.443  0.5197 -1.1993 -2.5015
 2311TIP3   OH228423   0.155   1.754   5.208  0.2886  0.5879 -0.0180
 2311TIP3    H128424   0.088   1.815   5.176  1.2695  3.0514  2.4982
 2311TIP3    H228425   0.203   1.729   5.129 -2.3403  0.3005 -1.5879
 2312TIP3   OH228426   1.744   3.556   2.406  0.3198 -0.0837 -0.5136
 2312TIP3    H128427   1.724   3.476   2.359  0.2800  0.0223 -0.6790
 2312TIP3    H228428   1.768   3.619   2.337  0.7571 -0.0763 -0.3538
 2313TIP3   OH228429   6.637   1.689   3.497 -1.0130  0.2872 -0.4358
 2313TIP3    H128430   6.543   1.707   3.501 -0.9938 -0.0520  2.5084
 2313TIP3    H228431   6.647   1.601   3.533  0.6806  1.3410  1.7810
 2314TIP3   OH228432   5.625   5.086   0.348 -0.1480 -0.3130  0.9945
 2314TIP3    H128433   5.600   5.142   0.420 -0.1522 -0.3761  1.0421
 2314TIP3    H228434   5.639   5.000   0.388 -1.1678 -0.5957  0.7652
 2315TIP3   OH228435   1.126   1.725  16.792 -0.6630 -0.3586  0.1596
 2315TIP3    H128436   1.033   1.739  16.807 -0.1832  1.2069  1.7114
 2315TIP3    H228437   1.165   1.722  16.879  0.8521 -0.2041 -0.4934
 2316TIP3   OH228438   5.388   2.967   3.980 -0.4315  0.0498 -0.6273
 2316TIP3    H128439   5.397   2.882   3.937 -1.0213  0.1871 -1.0147
 2316TIP3    H228440   5.310   2.959   4.034  1.2405 -0.6997  1.7559
 2317TIP3   OH228441   6.406   5.594   2.904  0.6223 -0.2498  0.2413
 2317TIP3    H128442   6.328   5.550   2.872 -0.1529  1.1841  0.1313
 2317TIP3    H228443   6.418   5.668   2.845  1.0697  0.5221  1.2828
 2318TIP3   OH228444   0.500   6.245   0.876  0.0301 -0.1097  0.1348
 2318TIP3    H128445   0.570   6.238   0.810  1.3570  2.1523  1.2451
 2318TIP3    H228446   0.543   6.220   0.958 -1.0632 -0.8706  0.4789
 2319TIP3   OH228447   0.394   2.063   3.502 -0.5021  0.1119  0.5386
 2319TIP3    H128448   0.452   2.072   3.578 -1.3345  0.7970  1.0950
 2319TIP3    H228449   0.335   1.991   3.526  0.0858 -0.5680 -0.0187
 2320TIP3   OH228450   1.935   6.533  15.680 -0.3015 -0.5438  0.1906
 2320TIP3    H128451   1.956   6.489  15.598 -0.4553 -0.4600  0.1059
 2320TIP3    H228452   2.005   6.597  15.692 -1.7489  1.3925 -1.3171
 2321TIP3   OH228453   1.533   6.468   2.772 -0.3549  0.2454  0.1877
 2321TIP3    H128454   1.543   6.485   2.679  1.2700 -0.3882  0.2349
 2321TIP3    H228455   1.467   6.399   2.777 -2.0551  1.7982 -0.3588
 2322TIP3   OH228456   3.048   1.011   4.189 -0.2271 -0.4413 -0.3545
 2322TIP3    H128457   3.032   0.998   4.282  0.9067 -0.9675 -0.2249
 2322TIP3    H228458   3.005   1.094   4.168  1.0555  0.6014  1.0445
 2323TIP3   OH228459   0.932   1.867   2.525  0.2202 -0.3155  0.2628
 2323TIP3    H128460   0.965   1.799   2.466 -1.2021 -0.2248 -0.6630
 2323TIP3    H228461   0.935   1.947   2.472 -1.3661 -0.2863  0.2049
 2324TIP3   OH228462   4.338   5.104  11.683 -0.3445  0.2685  0.0881
 2324TIP3    H128463   4.356   5.023  11.731 -0.5168 -0.4846 -1.1078
 2324TIP3    H228464   4.412   5.113  11.623  0.2474  1.6019  0.9937
 2325TIP3   OH228465   6.627   0.870  15.863  0.1491  0.0169  0.4990
 2325TIP3    H128466   6.537   0.868  15.896  0.0081 -0.4630  0.0859
 2325TIP3    H228467   6.667   0.789  15.894 -0.1146 -0.6525 -0.8658
 2326TIP3   OH228468   6.379   4.031  16.330 -0.2056  0.1574 -0.0420
 2326TIP3    H128469   6.384   3.948  16.283  0.7271  1.2513 -1.9585
 2326TIP3    H228470   6.352   4.094  16.263  0.5344  1.6536  1.0493
 2327TIP3   OH228471   0.742   0.530  16.381  0.2577  0.1324  0.2427
 2327TIP3    H128472   0.780   0.498  16.464 -0.3519 -0.8059  0.1726
 2327TIP3    H228473   0.652   0.553  16.404 -0.5917 -2.2049 -0.6126
 2328TIP3   OH228474   0.870   1.599  12.678 -0.1068  0.8149  0.4222
 2328TIP3    H128475   0.916   1.606  12.594  0.5513  0.9487  0.7942
 2328TIP3    H228476   0.853   1.505  12.688 -0.2227  0.8010  0.1234
 2329TIP3   OH228477   4.775   5.222  13.507 -0.6361  0.1004 -0.5341
 2329TIP3    H128478   4.818   5.249  13.587  0.6596 -1.0593 -0.8181
 2329TIP3    H228479   4.693   5.183  13.535 -0.4681  0.2682  0.1815
 2330TIP3   OH228480   5.133   3.740  14.864 -0.0030  0.1692  0.0072
 2330TIP3    H128481   5.144   3.772  14.953  0.9965  0.3100 -0.1663
 2330TIP3    H228482   5.184   3.800  14.809  1.4122 -1.3404 -0.3819
 2331TIP3   OH228483   5.986   2.600   1.748  0.1336  0.4405  0.2025
 2331TIP3    H128484   6.049   2.667   1.720  1.3974 -0.7652  0.1381
 2331TIP3    H228485   6.019   2.568   1.832 -0.1057 -0.5750 -0.0799
 2332TIP3   OH228486   6.636   2.119  12.309 -0.3936  0.4692 -0.1829
 2332TIP3    H128487   6.620   2.095  12.217  1.6096 -1.1983 -0.1158
 2332TIP3    H228488   6.648   2.214  12.307  0.3949  0.3472 -1.7610
 2333TIP3   OH228489   4.148   0.189   0.941  0.2278 -0.4910  0.3374
 2333TIP3    H128490   4.194   0.107   0.925  0.8628 -0.1786  0.5643
 2333TIP3    H228491   4.100   0.206   0.859 -0.0550 -1.1790  0.3589
 2334TIP3   OH228492   2.566   2.477   0.280  0.2708  0.0733 -0.2893
 2334TIP3    H128493   2.556   2.462   0.374 -1.1399  0.6754 -0.3445
 2334TIP3    H228494   2.661   2.485   0.268  0.7104 -2.8620  0.6357
 2335TIP3   OH228495   5.240   2.703  15.094 -0.0007  0.4026  0.3139
 2335TIP3    H128496   5.309   2.645  15.062  1.9889  2.4571  0.7381
 2335TIP3    H228497   5.193   2.651  15.159  0.9225 -1.1424 -0.2412
 2336TIP3   OH228498   0.021   5.681   2.086 -0.0007 -0.3401  0.3900
 2336TIP3    H128499   0.030   5.742   2.012 -2.3686 -1.1541 -0.6177
 2336TIP3    H228500  -0.001   5.737   2.160  1.2651  0.3676  0.2474
 2337TIP3   OH228501   4.043   5.369  13.311 -0.3393  0.2345 -0.0367
 2337TIP3    H128502   4.076   5.330  13.230 -0.6123  0.4481 -0.2562
 2337TIP3    H228503   3.958   5.406  13.286 -1.6815 -2.0282  0.9647
 2338TIP3   OH228504   4.843   1.292   0.094 -0.8369 -0.2380  0.4335
 2338TIP3    H128505   4.828   1.366   0.153 -1.2841 -0.5337  0.6930
 2338TIP3    H228506   4.904   1.326   0.028  2.0485 -0.7843  2.7623
 2339TIP3   OH228507   1.537   3.955  10.834 -0.2197 -0.1397  0.3427
 2339TIP3    H128508   1.556   3.949  10.740  1.2030 -1.6210  0.7120
 2339TIP3    H228509   1.467   3.891  10.848 -0.7723  0.4271  0.2241
 2340TIP3   OH228510   2.764   5.969  16.309 -0.7166 -0.0257 -0.6328
 2340TIP3    H128511   2.734   5.879  16.301  0.5187 -0.4807 -0.1406
 2340TIP3    H228512   2.700   6.011  16.367 -0.9791 -0.7282 -0.4182
 2341TIP3   OH228513   3.717   3.874   4.695  0.0038 -1.2925  0.1029
 2341TIP3    H128514   3.788   3.811   4.698  0.2179 -1.0551  0.0227
 2341TIP3    H228515   3.640   3.824   4.722  0.1837 -1.5691  0.1104
 2342TIP3   OH228516   3.242   2.350   4.201  0.0206 -0.1548 -0.0908
 2342TIP3    H128517   3.266   2.258   4.206  1.2172  0.0993 -0.9423
 2342TIP3    H228518   3.194   2.367   4.282 -1.2034 -1.7894 -0.4419
 2343TIP3   OH228519   6.187   3.443  11.934 -0.0950  0.2984 -0.0668
 2343TIP3    H128520   6.253   3.388  11.976  0.3429 -0.8557 -2.2099
 2343TIP3    H228521   6.225   3.531  11.934  1.1587 -0.2412 -0.6819
 2344TIP3   OH228522   0.501   1.201  14.313 -0.1613 -0.7440 -0.3674
 2344TIP3    H128523   0.461   1.125  14.357  0.0386 -0.5527  0.1514
 2344TIP3    H228524   0.464   1.276  14.359  0.2170 -0.5462 -0.3858
 2345TIP3   OH228525   2.515   3.617   5.494  0.2653  0.0196  0.2744
 2345TIP3    H128526   2.473   3.668   5.425 -0.9917  2.6337  2.8718
 2345TIP3    H228527   2.589   3.671   5.522 -1.2559  0.6362  3.2662
 2346TIP3   OH228528   3.507   0.476   0.965  0.2491  0.0981 -0.0794
 2346TIP3    H128529   3.419   0.515   0.963  0.5045  0.6528 -0.9188
 2346TIP3    H228530   3.507   0.414   0.891  0.9866  1.0574 -0.9020
 2347TIP3   OH228531   4.085   1.961  15.076  0.2099 -0.0298  0.1663
 2347TIP3    H128532   4.116   1.911  15.001  1.3224 -0.5179  0.9388
 2347TIP3    H228533   3.999   1.994  15.049  0.6431 -0.1093 -1.3510
 2348TIP3   OH228534   4.012   5.228  14.200 -0.5906 -0.0348 -0.1960
 2348TIP3    H128535   4.054   5.308  14.232  0.4832 -0.3184 -0.8814
 2348TIP3    H228536   3.918   5.246  14.207 -0.3623  0.8839  0.6508
 2349TIP3   OH228537   5.024   2.566  13.830 -0.2491  0.0774  1.1568
 2349TIP3    H128538   4.978   2.492  13.870 -0.9288  0.5964  1.3529
 2349TIP3    H228539   4.977   2.644  13.863 -2.1435  0.4966 -2.2287
 2350TIP3   OH228540   3.473   5.500   5.125  0.7818 -0.0197 -0.9942
 2350TIP3    H128541   3.472   5.457   5.210 -3.5018  1.1259 -0.3465
 2350TIP3    H228542   3.394   5.469   5.081  0.1810  3.3492 -2.4792
 2351TIP3   OH228543   5.402   4.819   2.075  0.2285  0.2388 -0.5676
 2351TIP3    H128544   5.310   4.821   2.104  0.0008 -1.2478 -1.1270
 2351TIP3    H228545   5.452   4.820   2.156 -0.3021  0.7049 -0.2430
 2352TIP3   OH228546   4.349   3.737   3.866 -0.1360  0.1541 -0.3699
 2352TIP3    H128547   4.391   3.652   3.880 -1.2702 -0.4603 -0.6454
 2352TIP3    H228548   4.302   3.728   3.783 -1.3568  0.6093  0.2502
 2353TIP3   OH228549   3.525   6.329   5.802 -0.8270 -0.1584 -0.1127
 2353TIP3    H128550   3.545   6.238   5.825 -0.9932 -0.3133 -0.5769
 2353TIP3    H228551   3.607   6.376   5.816 -0.8325 -0.3145  0.4554
 2354TIP3   OH228552   5.196   3.258   0.630  0.2885  0.0028  0.2484
 2354TIP3    H128553   5.202   3.173   0.587  2.3904  0.1717  0.1418
 2354TIP3    H228554   5.252   3.249   0.707  1.4854  1.6515 -0.4080
 2355TIP3   OH228555   0.987   4.787   5.810 -0.3224  0.4103  0.0888
 2355TIP3    H128556   0.919   4.761   5.749 -1.0917  2.5365 -0.0171
 2355TIP3    H228557   1.009   4.877   5.785  1.5163  0.2532  1.0135
 2356TIP3   OH228558   2.970   4.919   3.171 -0.4038  0.1277  0.2916
 2356TIP3    H128559   2.982   4.857   3.099 -2.1517  1.5361 -1.2537
 2356TIP3    H228560   3.022   4.995   3.146 -3.4291  1.8249 -1.0023
 2357TIP3   OH228561   6.393   5.142   5.089  0.4179 -0.3228  0.6304
 2357TIP3    H128562   6.419   5.220   5.138 -1.7411  1.1373 -0.4649
 2357TIP3    H228563   6.324   5.103   5.142 -0.6976  0.2866 -0.3495
 2358TIP3   OH228564   2.565   6.557  12.712  0.3613 -0.1803  0.2114
 2358TIP3    H128565   2.562   6.622  12.781 -2.6940  0.7758 -0.7290
 2358TIP3    H228566   2.499   6.492  12.737 -0.7071  0.1256 -1.7048
 2359TIP3   OH228567   5.641   6.149  10.911 -0.3718 -0.0279 -0.2720
 2359TIP3    H128568   5.619   6.063  10.947 -0.5625  0.0254 -0.2602
 2359TIP3    H228569   5.727   6.137  10.870  0.3100  0.1583  1.0682
 2360TIP3   OH228570   0.856   1.477   1.625  0.4657 -0.4253 -1.0160
 2360TIP3    H128571   0.950   1.469   1.643  0.3446 -0.6365 -0.4826
 2360TIP3    H228572   0.815   1.475   1.711 -0.0761 -0.9769 -1.2820
 2361TIP3   OH228573   4.779   6.251  17.031  1.0589 -0.2358  0.2213
 2361TIP3    H128574   4.748   6.204  16.953  1.7795  1.1683 -0.9332
 2361TIP3    H228575   4.730   6.212  17.103  1.8607 -3.0064 -0.6436
 2362TIP3   OH228576   2.251   3.494   4.424 -0.4237 -0.5463  0.2323
 2362TIP3    H128577   2.160   3.491   4.453  0.0807  1.3908  2.1974
 2362TIP3    H228578   2.286   3.407   4.443 -1.6303 -1.0356  0.2517
 2363TIP3   OH228579   1.126   1.037   2.625  0.3118 -0.1290  0.2796
 2363TIP3    H128580   1.157   0.953   2.593 -0.0089 -0.0723 -0.1831
 2363TIP3    H228581   1.185   1.058   2.698 -0.6301 -1.5307  1.4703
 2364TIP3   OH228582   4.255   1.597   3.934  0.8586 -0.1285 -0.1686
 2364TIP3    H128583   4.256   1.642   3.850  0.0716  2.5922  1.2447
 2364TIP3    H228584   4.166   1.609   3.968  1.6389  0.3389  1.8240
 2365TIP3   OH228585   0.844   3.461  13.629 -0.0818  0.4976 -0.0269
 2365TIP3    H128586   0.886   3.543  13.654  1.9671 -0.4937 -0.0679
 2365TIP3    H228587   0.886   3.436  13.547  0.3592 -1.2911  0.7004
 2366TIP3   OH228588   2.491   4.915   6.237  0.2976  0.2224  0.5141
 2366TIP3    H128589   2.439   4.908   6.317  3.4690  1.7742  2.8036
 2366TIP3    H228590   2.548   4.838   6.237  0.8614  0.6328  0.1823
 2367TIP3   OH228591   4.884   6.135   2.312 -0.0096 -0.2402  0.0741
 2367TIP3    H128592   4.946   6.073   2.274  1.7206  0.7964  1.1870
 2367TIP3    H228593   4.900   6.132   2.406  0.1011  1.8980  0.1406
 2368TIP3   OH228594   4.254   4.100   4.168  0.1734  0.5411  0.6254
 2368TIP3    H128595   4.167   4.127   4.197 -0.1140 -1.0708  1.3083
 2368TIP3    H228596   4.312   4.122   4.241 -0.1126 -0.9469  1.3165
 2369TIP3   OH228597   3.688   6.684   0.437 -0.3231 -0.8871  0.4180
 2369TIP3    H128598   3.770   6.652   0.475  0.4673  0.9860  0.3527
 2369TIP3    H228599   3.675   6.629   0.360  2.2045  0.3723 -0.9742
 2370TIP3   OH228600   1.804   1.443   0.083 -0.1040  0.0219 -0.2593
 2370TIP3    H128601   1.730   1.445   0.022 -0.1234 -0.5604 -0.2544
 2370TIP3    H228602   1.779   1.378   0.149  0.1457  0.2681  0.0834
 2371TIP3   OH228603   0.081   0.006   1.681 -0.3303 -0.0610  0.0776
 2371TIP3    H128604   0.129   0.038   1.757  0.0745 -2.4306  0.8542
 2371TIP3    H228605   0.121   0.051   1.607  0.7464  0.6194  1.0580
 2372TIP3   OH228606   1.449   5.738  13.385  0.0419 -0.4706  0.0178
 2372TIP3    H128607   1.414   5.783  13.462  0.5380 -1.9014  1.1075
 2372TIP3    H228608   1.378   5.738  13.322 -0.8882 -0.6416  1.0567
 2373TIP3   OH228609   4.442   6.124   6.626 -0.0198 -0.0351 -0.4428
 2373TIP3    H128610   4.398   6.039   6.629  2.1682 -1.2696 -2.0982
 2373TIP3    H228611   4.516   6.116   6.686 -0.6516  1.2420  0.5436
 2374TIP3   OH228612   0.050   6.682  11.577  0.3142 -0.0864 -0.3196
 2374TIP3    H128613   0.112   6.623  11.535  1.6922  1.0489  0.0845
 2374TIP3    H228614   0.075   6.769  11.545  0.4120  0.6203  1.6462
 2375TIP3   OH228615   4.105   2.013  15.785  0.5866  0.4278 -0.7355
 2375TIP3    H128616   4.148   1.951  15.844 -2.4386 -0.8955  0.1288
 2375TIP3    H228617   4.124   1.979  15.697 -0.2956 -1.2402 -0.2968
 2376TIP3   OH228618   4.029   2.123  12.371 -0.2806 -0.5742  0.3302
 2376TIP3    H128619   3.998   2.094  12.285  1.8835 -0.9055 -0.3758
 2376TIP3    H228620   3.971   2.196  12.393 -2.6843 -2.2836 -0.0786
 2377TIP3   OH228621   4.933   0.690   4.887 -0.1460  0.2569 -0.0624
 2377TIP3    H128622   5.010   0.673   4.941  1.2245 -0.2530 -2.1052
 2377TIP3    H228623   4.958   0.764   4.832 -0.8556 -0.3320 -1.2081
 2378TIP3   OH228624   6.193   5.498   2.780 -0.3898  0.0031  0.8718
 2378TIP3    H128625   6.236   5.443   2.714 -1.5130 -1.5647  1.4284
 2378TIP3    H228626   6.140   5.559   2.730  0.6523  0.4252  0.2585
 2379TIP3   OH228627   1.834   0.822  14.207  0.5125 -0.2277 -0.0446
 2379TIP3    H128628   1.902   0.794  14.269 -0.9020  0.6504  1.9455
 2379TIP3    H228629   1.811   0.742  14.159  0.1052 -1.4116  2.0714
 2380TIP3   OH228630   5.214   3.895  12.436  0.1921  0.6213  0.0464
 2380TIP3    H128631   5.148   3.825  12.435  1.8097 -0.9537 -1.8279
 2380TIP3    H228632   5.286   3.858  12.486 -0.2527  2.2801  1.9491
 2381TIP3   OH228633   2.036   1.190   6.276  0.6407 -0.3580  0.1704
 2381TIP3    H128634   2.063   1.212   6.186 -0.2062 -0.4370 -0.1075
 2381TIP3    H228635   1.945   1.164   6.267  0.5529 -0.3459  1.0672
 2382TIP3   OH228636   6.043   6.460  14.126  0.8927  0.2407  0.1429
 2382TIP3    H128637   6.029   6.438  14.218  0.2223  0.4317  0.0860
 2382TIP3    H228638   6.138   6.456  14.115  0.8985 -0.9430  0.5501
 2383TIP3   OH228639   4.821   0.399  16.882 -0.0173  0.1928 -0.4714
 2383TIP3    H128640   4.866   0.318  16.858 -2.0465 -0.9723 -0.5041
 2383TIP3    H228641   4.794   0.438  16.799 -0.5065  0.0310 -0.3882
 2384TIP3   OH228642   3.329   5.091  11.020  0.0036  0.1297  0.2897
 2384TIP3    H128643   3.251   5.125  10.977 -0.5384 -0.4333  0.7992
 2384TIP3    H228644   3.399   5.152  10.997 -0.4449  0.2694 -0.7173
 2385TIP3   OH228645   5.395   4.863  16.327  0.0431  0.1522 -0.0249
 2385TIP3    H128646   5.421   4.898  16.242  1.9433 -0.0603  0.4604
 2385TIP3    H228647   5.423   4.928  16.390 -0.0318 -0.3817  0.5661
 2386TIP3   OH228648   4.706   2.970   0.544  0.3239  0.1887 -0.1371
 2386TIP3    H128649   4.797   2.986   0.571  0.0069 -0.7545  1.5760
 2386TIP3    H228650   4.655   2.995   0.621 -0.6833 -1.7016 -0.1720
 2387TIP3   OH228651   1.198   3.439  14.340  0.0806 -0.0349 -0.4049
 2387TIP3    H128652   1.115   3.483  14.322 -1.5266 -3.3069 -1.5226
 2387TIP3    H228653   1.183   3.396  14.424  1.0629  0.2923 -0.0636
 2388TIP3   OH228654   6.453   3.483   3.028  0.2623  0.2457 -0.2021
 2388TIP3    H128655   6.413   3.400   3.001 -0.8087  0.9801 -0.8939
 2388TIP3    H228656   6.465   3.531   2.946 -0.8638  1.5433  0.3973
 2389TIP3   OH228657   0.971   1.527  12.195 -0.2073  0.2501  0.0501
 2389TIP3    H128658   0.885   1.556  12.164 -0.8713 -0.6640  1.0106
 2389TIP3    H228659   1.016   1.497  12.115  0.2839  3.2832 -0.8825
 2390TIP3   OH228660   3.946   0.645   1.096 -0.0443  0.7478  0.3764
 2390TIP3    H128661   3.898   0.729   1.096  0.6415  1.1437  0.3313
 2390TIP3    H228662   3.957   0.624   1.188 -0.1617  0.7387  0.3887
 2391TIP3   OH228663   2.321   0.421   2.450 -0.2743  0.4393  0.0236
 2391TIP3    H128664   2.285   0.334   2.434  1.2397  0.2882 -2.8928
 2391TIP3    H228665   2.268   0.479   2.395 -0.9278  1.3066  1.5335
 2392TIP3   OH228666   1.977   2.597  13.122  0.5156  0.5294 -0.1045
 2392TIP3    H128667   2.037   2.652  13.172  0.4997  0.1739  0.3020
 2392TIP3    H228668   1.893   2.604  13.168  0.3849  0.5757 -0.3470
 2393TIP3   OH228669   6.364   0.847  15.982  0.0692  0.4296  0.2898
 2393TIP3    H128670   6.324   0.925  16.023  1.5803  0.3306  2.0251
 2393TIP3    H228671   6.326   0.773  16.030  0.4711  0.2159  0.2792
 2394TIP3   OH228672   3.169   4.155  16.970 -0.1621  0.0113 -0.1784
 2394TIP3    H128673   3.260   4.166  16.998 -0.2631 -0.0890  0.1948
 2394TIP3    H228674   3.131   4.096  17.035 -0.8431  1.0592  0.3827
 2395TIP3   OH228675   1.076   5.394  13.983 -0.1101 -0.3594  0.2508
 2395TIP3    H128676   1.081   5.477  13.934 -0.4395 -0.6022 -0.1933
 2395TIP3    H228677   1.091   5.420  14.074  1.7292 -0.0633 -0.1103
 2396TIP3   OH228678   6.129   3.068   4.462  0.4933 -0.1474 -0.1083
 2396TIP3    H128679   6.095   3.156   4.446  2.6088  0.7389  0.2068
 2396TIP3    H228680   6.191   3.052   4.391  3.0446  0.1772  1.9974
 2397TIP3   OH228681   2.958   6.378  13.244  1.2373  0.8114 -0.1221
 2397TIP3    H128682   2.889   6.319  13.273 -1.3045  3.4061 -0.6822
 2397TIP3    H228683   3.017   6.385  13.318  1.0724 -1.6497  0.2828
 2398TIP3   OH228684   3.646   2.560  11.875  0.0414 -0.6377  0.6173
 2398TIP3    H128685   3.609   2.565  11.964  0.2216  0.0211  0.6586
 2398TIP3    H228686   3.719   2.499  11.883 -2.2316 -3.5067  0.1116
 2399TIP3   OH228687   4.951   4.179   6.308 -0.0717  0.0276 -0.3295
 2399TIP3    H128688   4.891   4.130   6.364  1.4663 -1.1938  0.3026
 2399TIP3    H228689   4.970   4.259   6.358  0.5303 -0.6075  0.4942
 2400TIP3   OH228690   4.761   6.760  11.510 -0.5875 -0.0608  0.0277
 2400TIP3    H128691   4.692   6.772  11.576  1.5871 -1.5802  2.6848
 2400TIP3    H228692   4.786   6.668  11.518  0.0097 -0.1727 -2.6932
 2401TIP3   OH228693   0.742   6.595  11.852 -0.2811 -0.0867  0.1034
 2401TIP3    H128694   0.731   6.572  11.760 -1.8311 -0.3581  0.3552
 2401TIP3    H228695   0.653   6.607  11.886  0.2484 -0.4267  1.6814
 2402TIP3   OH228696   3.559   3.386   5.816  0.5028 -0.9496  0.2919
 2402TIP3    H128697   3.519   3.457   5.866  2.0631  1.0931 -1.2923
 2402TIP3    H228698   3.500   3.373   5.742 -0.2239 -1.9364  1.0153
 2403TIP3   OH228699   1.053   4.003   2.762  0.3309 -0.4180  0.4100
 2403TIP3    H128700   0.971   4.044   2.733 -0.8648 -2.6119  0.5025
 2403TIP3    H228701   1.091   3.967   2.682 -0.0822 -1.5367  0.6975
 2404TIP3   OH228702   5.249   3.223  16.469  0.6521  0.0505  0.3970
 2404TIP3    H128703   5.281   3.286  16.535  0.6103  1.8493 -1.2537
 2404TIP3    H228704   5.280   3.258  16.386 -2.0227 -0.4535 -0.8653
 2405TIP3   OH228705   4.134   5.117  11.088 -0.0599 -0.2203  0.2771
 2405TIP3    H128706   4.112   5.198  11.042 -1.6319 -0.2577  0.9277
 2405TIP3    H228707   4.113   5.135  11.180  1.0888 -0.8438  0.6709
 2406TIP3   OH228708   5.098   4.459  13.207 -0.9986  0.0187  0.7634
 2406TIP3    H128709   5.175   4.419  13.249  0.3378  0.5030 -1.1949
 2406TIP3    H228710   5.116   4.553  13.208 -0.9176  0.0289 -0.9396
 2407TIP3   OH228711   0.884   5.080  14.231 -0.0184 -0.4946 -0.3159
 2407TIP3    H128712   0.872   5.038  14.316  0.8832 -0.4732 -0.1732
 2407TIP3    H228713   0.830   5.159  14.235  0.4326 -0.2152  0.4455
 2408TIP3   OH228714   1.541   1.328   5.133 -0.7414 -0.3086  0.1491
 2408TIP3    H128715   1.635   1.332   5.151 -0.4760  0.2543 -1.2482
 2408TIP3    H228716   1.515   1.241   5.163  0.7731 -1.4850 -1.7993
 2409TIP3   OH228717   6.024   2.994  14.661 -0.5806 -0.1833  0.1201
 2409TIP3    H128718   5.999   3.072  14.612  1.2498 -0.3167 -1.0922
 2409TIP3    H228719   6.054   3.027  14.745  0.4865  0.4788 -0.5040
 2410TIP3   OH228720   2.808   4.118  13.135  0.5110 -0.0836  0.7148
 2410TIP3    H128721   2.871   4.155  13.073  0.3266  0.2428  0.7268
 2410TIP3    H228722   2.777   4.038  13.092  0.2603  0.2265  0.3166
 2411TIP3   OH228723   5.125   6.103   2.617 -0.1788 -0.7922 -0.5136
 2411TIP3    H128724   5.209   6.078   2.578 -0.3035  1.5807 -2.4670
 2411TIP3    H228725   5.081   6.020   2.635  2.8932 -2.0823  1.3205
 2412TIP3   OH228726   2.652   3.910   6.459 -0.8108  0.2116  0.0708
 2412TIP3    H128727   2.631   3.817   6.452  0.0452 -0.1246  1.6208
 2412TIP3    H228728   2.704   3.929   6.381  0.0980 -0.9365  0.3884
 2413TIP3   OH228729   5.825   3.755  14.953  0.5728  0.3362  0.2689
 2413TIP3    H128730   5.901   3.710  14.988  1.2685  1.5945  0.3819
 2413TIP3    H228731   5.774   3.781  15.030  0.7700  0.7908  0.2436
 2414TIP3   OH228732   0.731   1.895   5.811  0.5806 -0.1515  0.4656
 2414TIP3    H128733   0.639   1.880   5.830 -0.1203  1.5427 -1.4960
 2414TIP3    H228734   0.769   1.807   5.805 -1.1682 -0.8845 -0.0683
 2415TIP3   OH228735   4.896   1.220   5.136  0.2547  0.0180  0.1003
 2415TIP3    H128736   4.840   1.298   5.138  0.1020 -0.0793 -0.4267
 2415TIP3    H228737   4.863   1.165   5.207 -3.1463 -1.9969 -2.9354
 2416TIP3   OH228738   4.422   4.883   4.481 -0.1445 -0.1896 -0.2807
 2416TIP3    H128739   4.477   4.881   4.403  0.9021 -0.0492  0.4454
 2416TIP3    H228740   4.483   4.868   4.554 -0.9221  0.9044  0.6064
 2417TIP3   OH228741   0.443   5.635  16.906  0.3637  0.6144 -0.0340
 2417TIP3    H128742   0.516   5.636  16.967  1.1213  0.6360 -0.9232
 2417TIP3    H228743   0.412   5.544  16.907  1.2880  0.2876 -0.6838
 2418TIP3   OH228744   6.701   4.953   3.321  0.2563  0.0728 -0.4632
 2418TIP3    H128745   6.637   4.983   3.386 -0.9972  0.2610 -1.7586
 2418TIP3    H228746   6.784   4.951   3.369 -0.5121  0.8845  0.9559
 2419TIP3   OH228747   1.296   0.992   0.607 -0.7073 -0.4855 -0.1194
 2419TIP3    H128748   1.303   1.058   0.676 -1.6983  0.6555 -1.0812
 2419TIP3    H228749   1.338   0.914   0.644  1.5809  1.0145  0.6027
 2420TIP3   OH228750   6.738   0.310   3.742 -1.0652  0.1269  0.0349
 2420TIP3    H128751   6.817   0.341   3.697 -0.1058 -1.1154  0.8341
 2420TIP3    H228752   6.769   0.242   3.801 -2.6663  0.0381  0.8003
 2421TIP3   OH228753   3.710   2.508   0.224 -0.0963  0.2315 -0.5991
 2421TIP3    H128754   3.643   2.575   0.232 -1.0734 -0.8770  0.8533
 2421TIP3    H228755   3.728   2.481   0.315 -0.8340 -2.5151 -1.2170
 2422TIP3   OH228756   3.657   6.451   0.272  0.2420  0.2367  0.8048
 2422TIP3    H128757   3.633   6.416   0.186 -0.9087  0.2714  1.1049
 2422TIP3    H228758   3.623   6.386   0.334  2.4574 -0.5994  1.1859
 2423TIP3   OH228759   3.638   0.027  12.025 -0.0885  0.3228  0.5949
 2423TIP3    H128760   3.618  -0.022  11.945  1.9336 -1.4403  1.1040
 2423TIP3    H228761   3.560   0.016  12.080 -1.1282  0.7956 -0.7474
 2424TIP3   OH228762   0.219   4.969  11.653  0.2087  0.6408  0.0931
 2424TIP3    H128763   0.230   4.898  11.589  1.1858  1.6022 -0.8161
 2424TIP3    H228764   0.191   4.924  11.733  1.4726 -0.8668 -0.2715
 2425TIP3   OH228765   5.862   5.114   2.340  0.0251 -0.2798 -0.7023
 2425TIP3    H128766   5.872   5.209   2.349  2.5756 -0.5088 -0.6793
 2425TIP3    H228767   5.796   5.102   2.272 -2.9293  1.4909  1.7168
 2426TIP3   OH228768   3.351   1.125  12.419 -0.0749  0.1754 -0.1749
 2426TIP3    H128769   3.443   1.116  12.395 -0.2750 -0.2186 -0.7981
 2426TIP3    H228770   3.331   1.044  12.466  0.0478  0.5117  0.4667
 2427TIP3   OH228771   1.050   2.515  16.930 -0.4145 -0.1983 -0.4522
 2427TIP3    H128772   1.050   2.422  16.951  2.0628 -0.1262  0.0398
 2427TIP3    H228773   1.122   2.526  16.868 -0.7103  1.3826 -0.5399
 2428TIP3   OH228774   0.304   6.072   4.638 -0.0769 -0.0264  0.1273
 2428TIP3    H128775   0.211   6.084   4.655 -0.1488  1.3005 -1.1538
 2428TIP3    H228776   0.308   6.043   4.546  0.7676 -0.1180  0.1931
 2429TIP3   OH228777   0.715   0.943   6.474 -0.0232  0.2808 -0.3132
 2429TIP3    H128778   0.627   0.965   6.442 -0.0768  2.6459  1.3513
 2429TIP3    H228779   0.700   0.888   6.551 -0.0276  0.1573 -0.4023
 2430TIP3   OH228780   0.161   3.935   6.697 -0.4287 -0.0876 -0.2539
 2430TIP3    H128781   0.137   3.857   6.646  0.7587 -0.9897  0.5449
 2430TIP3    H228782   0.200   3.901   6.778 -0.8832  1.3332  0.5896
 2431TIP3   OH228783   3.311   5.281  14.315 -0.0697 -0.4102  0.1770
 2431TIP3    H128784   3.385   5.302  14.258 -0.3465 -1.1436 -0.4475
 2431TIP3    H228785   3.351   5.246  14.394  0.3006  0.2928  0.3040
 2432TIP3   OH228786   2.505   3.332   1.993 -0.0744 -0.6108 -0.2005
 2432TIP3    H128787   2.446   3.320   2.067 -1.3674  1.0228 -0.9245
 2432TIP3    H228788   2.519   3.243   1.959 -3.0554 -0.9673 -0.6970
 2433TIP3   OH228789   6.304   3.800  12.430 -0.1979  0.4488 -0.0148
 2433TIP3    H128790   6.352   3.866  12.480  0.0813  1.5921 -1.7285
 2433TIP3    H228791   6.248   3.758  12.494  1.1766  0.8928  1.5346
 2434TIP3   OH228792   0.809   6.520  15.751 -0.3340  0.0922 -0.0914
 2434TIP3    H128793   0.869   6.448  15.731 -2.5683 -0.9960 -3.2705
 2434TIP3    H228794   0.849   6.597  15.710  0.2300 -0.0955  0.1044
 2435TIP3   OH228795   2.019   4.478   6.616  0.0937  0.3952  0.2179
 2435TIP3    H128796   1.936   4.467   6.663 -0.0130 -0.7802 -0.2294
 2435TIP3    H228797   2.048   4.389   6.596  0.9794  0.8235 -0.4811
 2436TIP3   OH228798   2.577   5.920   2.000  0.4857  0.2929  0.3257
 2436TIP3    H128799   2.603   5.922   2.092  0.7862  1.7100  0.2175
 2436TIP3    H228800   2.493   5.875   2.000  0.0008  1.1723  1.4110
 2437TIP3   OH228801   0.557   1.803  16.730  0.3873 -0.5884 -0.4473
 2437TIP3    H128802   0.512   1.802  16.815  0.7202  0.8452 -0.2470
 2437TIP3    H228803   0.591   1.892  16.722  1.3562 -1.0486 -1.5710
 2438TIP3   OH228804   2.999   3.373  16.034 -0.4476  0.6012  0.2598
 2438TIP3    H128805   3.005   3.351  15.941  0.3632  0.1922  0.4036
 2438TIP3    H228806   2.914   3.415  16.044 -0.7268  0.2355 -0.5833
 2439TIP3   OH228807   0.914   2.673   5.653 -0.0180 -0.3399  0.2391
 2439TIP3    H128808   0.894   2.747   5.595  0.8385 -0.7023 -0.5352
 2439TIP3    H228809   0.965   2.712   5.724 -2.9076  0.4861  1.9170
 2440TIP3   OH228810   4.708   1.928   3.611 -0.3339 -0.7888 -0.4262
 2440TIP3    H128811   4.796   1.913   3.575  0.4455 -0.1383  1.1535
 2440TIP3    H228812   4.698   1.861   3.678 -0.2968  0.2701  0.6552
 2441TIP3   OH228813   2.430   3.756   5.785 -0.3342 -0.4744 -0.1414
 2441TIP3    H128814   2.489   3.797   5.721 -1.5108 -0.1385 -1.0266
 2441TIP3    H228815   2.365   3.711   5.732 -0.0113 -2.1133  0.8444
 2442TIP3   OH228816   0.356   5.978   2.380  0.2990 -0.0600  0.3824
 2442TIP3    H128817   0.382   6.070   2.385 -0.4884  0.3037 -1.7203
 2442TIP3    H228818   0.263   5.980   2.358 -0.0843 -1.3809  1.7303
 2443TIP3   OH228819   0.481   0.496   0.482 -0.1276  0.4598 -0.0837
 2443TIP3    H128820   0.441   0.523   0.565  0.7257  1.2345  0.0866
 2443TIP3    H228821   0.447   0.559   0.418 -0.5195  0.0715 -0.2543
 2444TIP3   OH228822   4.999   4.292   0.286 -0.0860 -0.1042  0.2290
 2444TIP3    H128823   4.980   4.237   0.210 -1.0598 -1.3706  1.3575
 2444TIP3    H228824   5.031   4.374   0.249  0.5230 -1.0998 -1.5105
 2445TIP3   OH228825   2.878   4.436   4.252  0.2360 -0.2514 -0.2507
 2445TIP3    H128826   2.950   4.458   4.311  1.0769 -0.2920 -1.2424
 2445TIP3    H228827   2.894   4.345   4.228 -0.3841 -0.3882 -0.1529
 2446TIP3   OH228828   0.610   5.250   1.976  0.3643  0.0498 -0.5644
 2446TIP3    H128829   0.635   5.227   1.886 -0.0322  1.5487 -1.0815
 2446TIP3    H228830   0.622   5.169   2.026 -0.6035 -1.1373 -2.2101
 2447TIP3   OH228831   1.858   2.590  15.384 -0.4407  0.0054 -0.3728
 2447TIP3    H128832   1.895   2.600  15.296 -1.7808 -1.8241 -1.2053
 2447TIP3    H228833   1.763   2.586  15.369 -0.7248  0.3534  1.2393
 2448TIP3   OH228834   2.438   5.677   5.466 -0.0738  0.0561  0.0352
 2448TIP3    H128835   2.505   5.627   5.418  0.0585 -0.5608  0.8594
 2448TIP3    H228836   2.358   5.625   5.456  0.4863 -1.3878  2.5521
 2449TIP3   OH228837   2.532   5.837   3.681 -0.3116 -0.5920  0.1840
 2449TIP3    H128838   2.594   5.791   3.738  0.7319  0.4687 -0.0644
 2449TIP3    H228839   2.517   5.777   3.608  1.0917 -0.5188 -0.1800
 2450TIP3   OH228840   1.259   3.991  11.504  0.2066 -0.5111  0.0909
 2450TIP3    H128841   1.268   4.049  11.579 -1.7789 -1.8944  1.4618
 2450TIP3    H228842   1.178   3.943  11.521 -0.8714 -0.0928 -3.4718
 2451TIP3   OH228843   6.559   2.061   4.633 -0.2629  0.4943  0.3401
 2451TIP3    H128844   6.586   1.981   4.588 -0.5937  0.1558  0.7420
 2451TIP3    H228845   6.578   2.131   4.570  1.4060  0.2598  0.5507
 2452TIP3   OH228846   3.455   1.915  15.056  0.3027  0.1374 -0.2677
 2452TIP3    H128847   3.371   1.895  15.014 -0.7242  0.2015  1.7003
 2452TIP3    H228848   3.471   2.007  15.036 -0.9251  0.5753  0.7199
 2453TIP3   OH228849   5.239   4.487   3.881 -0.7063 -0.5320 -0.0631
 2453TIP3    H128850   5.161   4.541   3.893 -0.8497 -0.7860  0.1293
 2453TIP3    H228851   5.312   4.549   3.889 -0.9357  0.0011 -1.8500
 2454TIP3   OH228852   5.623   6.726   5.087  0.1295  0.4059 -0.3799
 2454TIP3    H128853   5.611   6.653   5.026  1.8610 -0.2227  0.0021
 2454TIP3    H228854   5.635   6.683   5.172  0.8402  1.1566 -0.1019
 2455TIP3   OH228855   4.470   1.908  11.342 -0.0015 -0.4767  0.5992
 2455TIP3    H128856   4.388   1.910  11.391 -0.5587  0.4894 -0.3488
 2455TIP3    H228857   4.530   1.961  11.393 -0.0911 -0.8363  1.0774
 2456TIP3   OH228858   0.257   6.744   5.649  0.0661  0.0451  0.2779
 2456TIP3    H128859   0.226   6.662   5.687 -0.3810  1.0559  2.1706
 2456TIP3    H228860   0.283   6.796   5.725  1.2267  1.2893 -0.9687
 2457TIP3   OH228861   6.307   6.812   1.499  0.2727 -0.1667 -0.9950
 2457TIP3    H128862   6.390   6.803   1.545 -1.6278 -0.4266  2.5254
 2457TIP3    H228863   6.282   6.903   1.512 -0.9105 -0.5712 -0.4062
 2458TIP3   OH228864   1.870   6.560   1.838 -0.0388  0.3298  0.4069
 2458TIP3    H128865   1.933   6.618   1.795  1.9353 -1.2721  1.0161
 2458TIP3    H228866   1.856   6.489   1.776 -0.4587  0.1651  0.6893
 2459TIP3   OH228867   6.556   5.664   1.558  0.0762  0.0261  0.1231
 2459TIP3    H128868   6.626   5.608   1.524  0.0583 -0.8499  1.5057
 2459TIP3    H228869   6.569   5.664   1.652 -1.1708  0.7077  0.3022
 2460TIP3   OH228870   1.478   0.029   3.410 -0.2780  0.1655  0.2532
 2460TIP3    H128871   1.509   0.050   3.323 -1.0220 -0.9054 -0.2850
 2460TIP3    H228872   1.426   0.105   3.437 -0.4050  0.3169 -0.4155
 2461TIP3   OH228873   5.682   4.069   0.223 -0.4237  0.6143  0.0609
 2461TIP3    H128874   5.759   4.126   0.216  0.0456 -0.0320 -0.0598
 2461TIP3    H228875   5.687   4.032   0.311 -1.0035  1.1378  0.3231
 2462TIP3   OH228876   0.708   6.634  13.108 -0.0336  0.2514  0.3552
 2462TIP3    H128877   0.737   6.683  13.031 -0.0447 -0.7669 -0.3063
 2462TIP3    H228878   0.619   6.665  13.124 -0.3323 -0.1255 -0.5427
 2463TIP3   OH228879   3.276   1.011   5.091 -0.0010 -0.7725 -0.3828
 2463TIP3    H128880   3.288   0.933   5.144  1.8117  1.5815  2.7960
 2463TIP3    H228881   3.189   1.044   5.116  0.0035 -0.7646 -0.3770
 2464TIP3   OH228882   1.368   1.820   2.173 -0.1264 -0.2080 -0.7091
 2464TIP3    H128883   1.400   1.730   2.167 -1.2458 -0.7134  0.5022
 2464TIP3    H228884   1.434   1.865   2.226 -0.0380 -0.5512 -0.5255
 2465TIP3   OH228885   6.026   2.434  15.982  0.3298  0.1695  0.1133
 2465TIP3    H128886   6.117   2.430  15.953 -0.3576  0.8814 -2.2445
 2465TIP3    H228887   5.975   2.401  15.907 -1.4963  1.7290  0.6258
 2466TIP3   OH228888   1.810   1.522   2.406 -0.3032 -0.3723  0.1303
 2466TIP3    H128889   1.800   1.605   2.451 -0.0925 -0.7285  0.8323
 2466TIP3    H228890   1.723   1.481   2.411 -0.0163 -0.8738  1.1304
 2467TIP3   OH228891   0.477   2.329   0.687  0.4293 -0.4106  0.3417
 2467TIP3    H128892   0.435   2.336   0.773 -1.5799 -1.9131 -0.4570
 2467TIP3    H228893   0.493   2.419   0.660 -1.2897  0.1687  1.1906
 2468TIP3   OH228894   2.952   5.936  12.050  0.4548 -0.0077 -0.3491
 2468TIP3    H128895   2.934   6.030  12.055  0.1761 -0.1024  0.3946
 2468TIP3    H228896   2.955   5.918  11.956  2.8075  1.1756 -0.5331
 2469TIP3   OH228897   1.544   3.926   5.988 -0.0802  0.3686  0.1124
 2469TIP3    H128898   1.569   3.978   6.064  0.3765 -0.3277  0.4463
 2469TIP3    H228899   1.519   3.990   5.922 -1.2364  0.9645  1.1080
 2470TIP3   OH228900   0.536   5.852   2.529  0.1573  0.0900 -0.0536
 2470TIP3    H128901   0.479   5.884   2.460  0.8985 -0.7787 -1.0861
 2470TIP3    H228902   0.606   5.804   2.483  0.8075 -0.2709  1.2673
 2471TIP3   OH228903   0.340   1.088   1.309  0.4261  0.4525  0.1101
 2471TIP3    H128904   0.335   1.143   1.230  0.3436  1.0538  0.5317
 2471TIP3    H228905   0.347   1.150   1.381 -0.0332 -0.0868  0.6238
 2472TIP3   OH228906   3.247   3.489  16.378  0.5390 -0.3742  0.3783
 2472TIP3    H128907   3.240   3.507  16.284 -0.4718 -2.8422 -0.0432
 2472TIP3    H228908   3.295   3.564  16.413 -1.3635  1.8607 -1.6741
 2473TIP3   OH228909   0.325   0.449   0.703  0.0962 -0.4885  0.0767
 2473TIP3    H128910   0.335   0.363   0.662 -0.1306 -0.3721 -0.2346
 2473TIP3    H228911   0.241   0.444   0.749 -0.8154  0.1406 -1.4375
 2474TIP3   OH228912   3.067   6.238  13.792  0.0182  0.1573 -0.1757
 2474TIP3    H128913   3.123   6.162  13.807  0.7043  1.0066  1.7035
 2474TIP3    H228914   2.987   6.219  13.841 -0.3574  0.0632 -0.8128
 2475TIP3   OH228915   0.108   5.801  11.887 -0.1902  0.4117  0.3337
 2475TIP3    H128916   0.065   5.785  11.972  0.3588 -1.1603  0.3411
 2475TIP3    H228917   0.043   5.774  11.822 -0.0515  0.1781  0.2910
 2476TIP3   OH228918   5.067   3.205   2.308  0.9913 -0.1134  0.3260
 2476TIP3    H128919   5.056   3.293   2.344  0.7758 -0.2712  0.6481
 2476TIP3    H228920   5.115   3.157   2.376  1.2511 -0.1982  0.0825
 2477TIP3   OH228921   1.657   5.521  15.017 -0.3604 -0.0156 -1.1047
 2477TIP3    H128922   1.621   5.440  15.052 -0.6721  0.9087  0.8182
 2477TIP3    H228923   1.735   5.537  15.070 -1.9927  2.5222  0.6479
 2478TIP3   OH228924   3.808   4.032  12.159 -0.4629 -0.1915  0.4076
 2478TIP3    H128925   3.818   3.965  12.226  0.9920 -1.9103 -1.4659
 2478TIP3    H228926   3.897   4.061  12.140 -0.9691  1.3185  0.2078
 2479TIP3   OH228927   4.380   1.988  10.831  0.3303 -0.2055  0.9197
 2479TIP3    H128928   4.355   1.988  10.739 -1.0168 -0.1695  1.2824
 2479TIP3    H228929   4.367   2.078  10.859  0.4717 -0.2781  1.2193
 2480TIP3   OH228930   1.367   3.559  12.856  0.4907  0.5058  0.1334
 2480TIP3    H128931   1.286   3.583  12.900 -1.5315  0.8572 -3.6254
 2480TIP3    H228932   1.411   3.642  12.839  0.0621  0.5391 -0.7827
 2481TIP3   OH228933   0.359   1.560   3.409  0.3133  0.2427  0.9050
 2481TIP3    H128934   0.388   1.499   3.341 -0.4794  1.3106 -0.4321
 2481TIP3    H228935   0.281   1.519   3.446 -1.2577  1.2069 -1.1977
 2482TIP3   OH228936   1.953   5.275  15.524 -0.4007 -0.4081 -0.3778
 2482TIP3    H128937   1.937   5.196  15.473  0.0421 -0.1533 -0.9280
 2482TIP3    H228938   1.994   5.335  15.462  0.7080 -0.3047  0.4206
 2483TIP3   OH228939   5.174   3.910  16.467  0.1765 -0.2693 -0.0077
 2483TIP3    H128940   5.195   3.968  16.541  0.4814  1.3573 -1.3357
 2483TIP3    H228941   5.079   3.905  16.468  0.1595  0.0147  0.2921
 2484TIP3   OH228942   0.810   5.966   2.585  0.3074  0.0561 -0.4114
 2484TIP3    H128943   0.767   5.991   2.667  1.9235  0.8634  0.2094
 2484TIP3    H228944   0.763   6.015   2.517 -0.8053 -0.3420  0.0495
 2485TIP3   OH228945   6.666   0.422  11.380 -0.1422  0.2182  0.1310
 2485TIP3    H128946   6.744   0.418  11.435  0.0799  2.2106  0.0031
 2485TIP3    H228947   6.696   0.396  11.293 -0.6524 -3.7089  1.0209
 2486TIP3   OH228948   2.387   2.677  13.203  0.8909  0.1577  0.3952
 2486TIP3    H128949   2.459   2.737  13.181  1.1000  0.1480  1.0453
 2486TIP3    H228950   2.430   2.596  13.229  0.5633 -0.8333 -2.0834
 2487TIP3   OH228951   1.188   2.119  10.927  0.1835  0.5137  0.7967
 2487TIP3    H128952   1.093   2.121  10.935  0.1502 -0.5789  0.8087
 2487TIP3    H228953   1.209   2.190  10.866 -0.6127  0.9365  1.0171
 2488TIP3   OH228954   0.394   4.734   2.557 -0.3655 -0.1980 -0.1159
 2488TIP3    H128955   0.373   4.827   2.561 -1.3188 -0.3907 -0.5003
 2488TIP3    H228956   0.383   4.710   2.465 -0.3880 -0.7500  0.0268
 2489TIP3   OH228957   0.337   6.352   6.327  0.3178 -0.0950  0.5299
 2489TIP3    H128958   0.400   6.292   6.367  0.9256 -0.1893 -0.5585
 2489TIP3    H228959   0.264   6.296   6.300 -0.5169  0.0994  2.3493
 2490TIP3   OH228960   0.762   3.198   1.353 -0.0227 -0.2515  0.1344
 2490TIP3    H128961   0.816   3.173   1.278 -0.3954 -0.6459 -0.0039
 2490TIP3    H228962   0.697   3.257   1.316 -0.1577 -0.3839  0.1598
 2491TIP3   OH228963   1.451   3.634  11.352  0.2204  0.4231  0.1075
 2491TIP3    H128964   1.359   3.644  11.379 -0.0935  1.9906 -1.4607
 2491TIP3    H228965   1.447   3.572  11.279  0.5566 -0.3753  0.7589
 2492TIP3   OH228966   0.676   3.179   2.418  0.2162 -0.7953  0.0622
 2492TIP3    H128967   0.615   3.109   2.393 -0.3155 -0.5355  0.6096
 2492TIP3    H228968   0.627   3.231   2.482  0.2169  0.6931 -1.1304
 2493TIP3   OH228969   3.506   2.400  15.363  0.2903 -0.0633 -0.5584
 2493TIP3    H128970   3.494   2.315  15.405 -0.6273  0.0785 -0.5246
 2493TIP3    H228971   3.586   2.436  15.404  0.0347 -0.4071  0.2578
 2494TIP3   OH228972   0.877   1.872  16.525 -0.2911  0.3020 -0.3244
 2494TIP3    H128973   0.856   1.828  16.608 -0.0592  2.2869  0.8192
 2494TIP3    H228974   0.795   1.867  16.475 -0.6213 -0.3943  0.2628
 2495TIP3   OH228975   0.863   4.533  15.857 -0.0000 -0.0037 -0.0067
 2495TIP3    H128976   0.840   4.610  15.909  2.1933  0.3344  0.5128
 2495TIP3    H228977   0.841   4.557  15.768 -1.9010  0.1729  0.4865
 2496TIP3   OH228978   1.765   1.433  16.786 -0.0189 -0.1539 -0.2971
 2496TIP3    H128979   1.810   1.349  16.797 -1.4581 -1.3497 -3.0848
 2496TIP3    H228980   1.834   1.493  16.758  0.6479 -0.8920 -0.2685
 2497TIP3   OH228981   5.938   4.546   2.800  0.0507  0.0437  0.2322
 2497TIP3    H128982   5.917   4.586   2.885 -0.3790  0.4922 -0.0832
 2497TIP3    H228983   5.978   4.462   2.823  1.0432  0.6875  0.9108
 2498TIP3   OH228984   0.593   0.310  16.519  0.1184 -0.3859 -0.2227
 2498TIP3    H128985   0.628   0.369  16.585 -1.1955  0.5239 -0.3306
 2498TIP3    H228986   0.501   0.297  16.544  0.6651 -3.3623  0.5120
 2499TIP3   OH228987   1.548   6.661   1.643  0.4749  0.4052  0.2746
 2499TIP3    H128988   1.595   6.726   1.694  1.1075 -0.7648  1.2257
 2499TIP3    H228989   1.507   6.605   1.708 -0.2614 -0.0013 -0.5285
 2500TIP3   OH228990   1.489   2.268   4.151  0.0536  0.9219 -0.2407
 2500TIP3    H128991   1.548   2.328   4.197 -0.6409  1.5653 -0.1805
 2500TIP3    H228992   1.410   2.320   4.134 -0.9233 -0.2375  0.6247
 2501TIP3   OH228993   0.548   5.355   0.352  0.1246  0.3637  0.3860
 2501TIP3    H128994   0.490   5.375   0.278 -1.5589  0.4249  1.6887
 2501TIP3    H228995   0.635   5.378   0.321 -0.4350 -0.5067 -1.9095
 2502TIP3   OH228996   2.352   6.817  14.484 -0.0729  0.1242  0.3205
 2502TIP3    H128997   2.274   6.862  14.517 -2.1738 -1.0986 -2.6721
 2502TIP3    H228998   2.419   6.884  14.481 -1.7274  1.8431  0.5817
 2503TIP3   OH228999   2.516   6.385   1.228 -0.2896  0.5650  0.4385
 2503TIP3    H129000   2.492   6.319   1.293 -1.3130  1.3753  0.9083
 2503TIP3    H229001   2.458   6.459   1.247 -0.5219  0.8542 -1.3286
 2504TIP3   OH229002   1.315   3.637   5.809 -0.2446 -0.0484 -0.5613
 2504TIP3    H129003   1.409   3.640   5.791 -0.0202 -0.2978  0.5300
 2504TIP3    H229004   1.277   3.595   5.732  0.7316 -1.3398 -0.3565
 2505TIP3   OH229005   5.989   6.387  12.685  0.3173 -0.0422  0.8850
 2505TIP3    H129006   6.047   6.352  12.752  2.5685  0.4912 -0.7118
 2505TIP3    H229007   5.930   6.315  12.663  1.3291 -1.0643  1.5018
 2506TIP3   OH229008   5.880   3.201  12.450 -1.1244 -0.3498  0.0716
 2506TIP3    H129009   5.792   3.184  12.417 -0.7404  0.9035 -1.6902
 2506TIP3    H229010   5.934   3.207  12.372  0.2136  0.5630  1.0384
 2507TIP3   OH229011   4.473   6.088   2.424 -0.4397  0.4620 -0.0352
 2507TIP3    H129012   4.560   6.127   2.428  0.1967 -0.5873 -2.4019
 2507TIP3    H229013   4.473   6.023   2.494  1.6683 -1.3086 -1.5678
 2508TIP3   OH229014   5.047   6.396   5.695 -0.5567  0.0152 -0.1117
 2508TIP3    H129015   5.016   6.456   5.627  0.0949  0.9818  0.4349
 2508TIP3    H229016   5.127   6.437   5.729  0.8940 -2.0455 -0.9526
 2509TIP3   OH229017   1.009   1.808   3.610  0.5890 -0.4621  0.0964
 2509TIP3    H129018   1.055   1.799   3.693  2.4514 -1.9091 -1.0672
 2509TIP3    H229019   0.988   1.719   3.584 -1.6918  0.0958 -0.0690
 2510TIP3   OH229020   6.646   2.509   2.690 -0.3550  0.0928  0.3865
 2510TIP3    H129021   6.701   2.573   2.736  0.2191  0.7037 -1.0897
 2510TIP3    H229022   6.566   2.558   2.670  0.4781  0.6890 -1.6118
 2511TIP3   OH229023   2.748   4.460  12.996 -0.0075 -0.0197 -0.0325
 2511TIP3    H129024   2.698   4.383  13.025 -0.5473  0.4779  0.3823
 2511TIP3    H229025   2.692   4.534  13.020 -0.6789  0.3994 -2.7798
 2512TIP3   OH229026   2.826   1.690  15.475 -0.5617 -0.3552 -0.6234
 2512TIP3    H129027   2.825   1.765  15.535  0.4389 -1.2563  0.5760
 2512TIP3    H229028   2.771   1.624  15.518  0.8985 -1.3410 -0.2026
 2513TIP3   OH229029   5.677   0.006   6.183 -0.5172  0.6016 -0.2459
 2513TIP3    H129030   5.588  -0.027   6.168  0.3173 -1.3066 -1.1120
 2513TIP3    H229031   5.665   0.099   6.205 -2.7072  0.3780 -0.4264
 2514TIP3   OH229032   3.126   0.869  17.257 -0.4206  0.0333  0.4441
 2514TIP3    H129033   3.050   0.829  17.300 -1.0473  1.0032  0.2614
 2514TIP3    H229034   3.140   0.950  17.305 -0.1077  0.3291 -0.1409
 2515TIP3   OH229035   1.026   4.465   4.386 -0.8462 -0.0132  0.3815
 2515TIP3    H129036   0.973   4.436   4.460  0.2832  0.7211  1.4972
 2515TIP3    H229037   1.028   4.561   4.393  0.8066 -0.0370  0.5026
 2516TIP3   OH229038   2.791   3.299   6.191 -0.8424 -0.0822 -0.0583
 2516TIP3    H129039   2.810   3.236   6.260  0.1492 -1.2623 -1.3894
 2516TIP3    H229040   2.731   3.362   6.232 -1.2302 -1.4399  1.5049
 2517TIP3   OH229041   5.923   1.075  16.649 -0.1509 -0.6544  0.2025
 2517TIP3    H129042   5.872   1.049  16.572 -1.1102  2.1126 -0.1419
 2517TIP3    H229043   5.985   1.140  16.616  0.4295 -0.5322  1.5000
 2518TIP3   OH229044   5.082   1.978  13.511 -0.2385 -0.0046 -0.2399
 2518TIP3    H129045   5.119   2.060  13.477  0.7039  0.5832  2.0986
 2518TIP3    H229046   5.108   1.912  13.448  0.4362  1.2405 -1.2867
 2519TIP3   OH229047   2.561   1.178  14.256 -0.3199  0.3403  0.1406
 2519TIP3    H129048   2.535   1.172  14.348 -2.0985  1.3999 -0.2617
 2519TIP3    H229049   2.553   1.271  14.235 -2.8835 -0.2893 -1.8866
 2520TIP3   OH229050   6.201   2.691  15.709 -0.0223 -0.1077 -0.0572
 2520TIP3    H129051   6.170   2.762  15.653 -1.4922 -0.3733  0.3962
 2520TIP3    H229052   6.129   2.627  15.707  0.3360 -0.5644  1.3380
 2521TIP3   OH229053   6.645   6.007  12.892  0.2661 -0.2452 -0.0331
 2521TIP3    H129054   6.706   5.934  12.907 -0.1552 -0.5315  0.3238
 2521TIP3    H229055   6.668   6.072  12.958 -2.7450 -2.2481  3.1556
 2522TIP3   OH229056   1.181   5.096  16.640 -0.2067  0.0461 -0.3038
 2522TIP3    H129057   1.183   5.004  16.613 -0.6387  0.0428 -0.3377
 2522TIP3    H229058   1.246   5.102  16.710 -1.7422 -0.8009  1.2475
 2523TIP3   OH229059   4.137   3.497   5.259 -0.3418  0.5516 -0.3051
 2523TIP3    H129060   4.092   3.413   5.271  1.6456 -0.5308 -0.3165
 2523TIP3    H229061   4.192   3.484   5.182  2.5251  0.7347  1.6478
 2524TIP3   OH229062   3.488   3.714  12.137 -0.1695 -0.2293  0.1823
 2524TIP3    H129063   3.396   3.717  12.164 -0.7631 -2.3243 -1.4876
 2524TIP3    H229064   3.514   3.623  12.150  2.0275  0.5771  1.6751
 2525TIP3   OH229065   4.395   5.102  11.371 -0.1635 -0.2360 -0.5057
 2525TIP3    H129066   4.367   5.082  11.282 -1.8654  1.4358 -0.3713
 2525TIP3    H229067   4.476   5.152  11.360 -0.6871  0.4817 -1.1525
 2526TIP3   OH229068   1.885   3.254   5.453  0.4831  0.1847  0.0345
 2526TIP3    H129069   1.870   3.347   5.467 -0.4048  0.0489  0.0327
 2526TIP3    H229070   1.914   3.248   5.362 -0.9830  0.3081 -0.4575
 2527TIP3   OH229071   6.211   3.039  12.993 -0.0365 -0.2715  0.8008
 2527TIP3    H129072   6.172   2.960  13.028  0.0056 -0.6638 -0.0274
 2527TIP3    H229073   6.285   3.009  12.941 -0.4636  0.2430 -0.1309
 2528TIP3   OH229074   4.878   3.282  16.445 -0.2381 -0.2979 -0.1967
 2528TIP3    H129075   4.919   3.350  16.391  1.4146 -0.7551  0.4444
 2528TIP3    H229076   4.808   3.329  16.493 -0.7459  0.4047 -1.6056
 2529TIP3   OH229077   0.115   0.754   2.204 -0.2553  0.1533  0.4574
 2529TIP3    H129078   0.194   0.803   2.228  0.2539 -1.0626  1.3308
 2529TIP3    H229079   0.114   0.756   2.109  1.9707 -1.5253  0.3451
 2530TIP3   OH229080   6.102   2.284   3.837 -0.6107  0.2887 -0.4315
 2530TIP3    H129081   6.057   2.301   3.919  0.3855  4.3469 -0.6020
 2530TIP3    H229082   6.184   2.242   3.862 -0.7745  0.5626  0.5721
 2531TIP3   OH229083   1.234   0.673   5.845  0.5677  0.4943 -0.3513
 2531TIP3    H129084   1.278   0.589   5.830  1.0115  0.4355  1.2702
 2531TIP3    H229085   1.204   0.700   5.758  2.2703 -0.3186 -1.2058
 2532TIP3   OH229086   4.281   0.791   4.819 -0.2725 -0.3738 -0.2732
 2532TIP3    H129087   4.355   0.794   4.758 -0.1464  1.0991 -0.0505
 2532TIP3    H229088   4.207   0.762   4.765 -0.8444  3.7359 -1.8591
 2533TIP3   OH229089   2.327   6.200  13.100 -0.5606 -0.2046  0.4606
 2533TIP3    H129090   2.371   6.118  13.076 -0.0642 -0.0821  0.9527
 2533TIP3    H229091   2.331   6.202  13.195 -0.2366  0.5870  0.4267
 2534TIP3   OH229092   4.508   5.524   1.887  0.0912 -0.2723 -0.3088
 2534TIP3    H129093   4.548   5.466   1.952  0.0210  2.0724  1.9232
 2534TIP3    H229094   4.506   5.610   1.930 -3.3100  0.6002 -2.0442
 2535TIP3   OH229095   5.373   1.040   4.849 -0.1379  0.5648 -0.1330
 2535TIP3    H129096   5.283   1.015   4.827  0.9570 -0.8741 -3.3125
 2535TIP3    H229097   5.412   0.961   4.885  0.5082  0.5278 -0.9049
 2536TIP3   OH229098   5.688   3.550   1.409 -0.1918 -0.0170 -0.6622
 2536TIP3    H129099   5.732   3.597   1.480 -1.9152  0.2678  0.2664
 2536TIP3    H229100   5.597   3.580   1.415 -0.1981  0.5910 -3.5018
 2537TIP3   OH229101   5.969   4.410  15.112  0.5874 -0.0745 -0.0101
 2537TIP3    H129102   5.929   4.355  15.044 -1.6265  2.7495 -1.0881
 2537TIP3    H229103   6.045   4.449  15.070  0.2481  0.2768 -0.2994
 2538TIP3   OH229104   4.866   5.332   0.954 -0.1875  0.0157 -0.6069
 2538TIP3    H129105   4.945   5.369   0.916 -0.7615  0.5543 -1.2801
 2538TIP3    H229106   4.804   5.404   0.955 -1.6194 -1.1294 -2.8036
 2539TIP3   OH229107   1.837   4.122   5.489 -0.3490  0.0104  0.4911
 2539TIP3    H129108   1.806   4.054   5.428  0.9570 -0.5586  0.4531
 2539TIP3    H229109   1.929   4.100   5.504  0.0040  1.6297  0.6866
 2540TIP3   OH229110   4.532   2.377   1.096  0.1948 -0.3584 -0.2537
 2540TIP3    H129111   4.610   2.341   1.053  0.3611 -1.8184  1.2270
 2540TIP3    H229112   4.500   2.306   1.151 -0.7503  1.0611  1.0704
 2541TIP3   OH229113   6.561   5.824  13.290 -0.5330  0.0473  0.1902
 2541TIP3    H129114   6.551   5.806  13.196 -0.5109 -0.9294  0.3643
 2541TIP3    H229115   6.644   5.781  13.314  1.3035  3.3024 -0.0719
 2542TIP3   OH229116   6.428   5.941  15.492 -0.0839  0.1785  0.5657
 2542TIP3    H129117   6.471   5.948  15.578  0.5290 -1.0943  0.3848
 2542TIP3    H229118   6.345   5.897  15.511  1.6734 -3.6087  0.0863
 2543TIP3   OH229119   1.916   4.254   1.895  0.1695 -0.3546  0.1241
 2543TIP3    H129120   1.842   4.308   1.865  0.0507 -0.1106  0.8539
 2543TIP3    H229121   1.874   4.178   1.934  0.2607  0.4640  1.8543
 2544TIP3   OH229122   0.443   4.776   1.569 -0.0389 -0.0128  0.4421
 2544TIP3    H129123   0.353   4.808   1.570  0.3482  1.2282 -1.4534
 2544TIP3    H229124   0.481   4.806   1.651 -0.7543  1.2543  0.3128
 2545TIP3   OH229125   2.726   1.069  17.143 -0.2441 -0.0591  0.0515
 2545TIP3    H129126   2.790   1.013  17.186 -1.3277 -1.0448  0.4195
 2545TIP3    H229127   2.690   1.016  17.073  1.1824  1.3891 -1.8292
 2546TIP3   OH229128   4.737   0.815   2.447  0.2419 -0.6129 -0.1726
 2546TIP3    H129129   4.822   0.830   2.406 -0.4684  0.9291 -1.1133
 2546TIP3    H229130   4.674   0.826   2.376 -1.0022  1.9041  1.2807
 2547TIP3   OH229131   0.200   2.045   5.902 -0.0008 -0.7670 -0.2060
 2547TIP3    H129132   0.154   1.968   5.936 -0.4954 -0.5369 -0.3572
 2547TIP3    H229133   0.131   2.101   5.867  0.1850  0.5892  1.5424
 2548TIP3   OH229134   1.898   0.664   1.215  0.3555  0.0145 -0.3450
 2548TIP3    H129135   1.959   0.736   1.231 -0.5045  0.3698  1.5101
 2548TIP3    H229136   1.888   0.622   1.301 -2.3427  0.2483 -0.5224
 2549TIP3   OH229137   4.454   4.172   6.564 -0.4362  0.9003  0.5859
 2549TIP3    H129138   4.500   4.113   6.624 -2.8760 -0.4865  1.1790
 2549TIP3    H229139   4.385   4.117   6.526 -2.6264  3.3236  0.9722
 2550TIP3   OH229140   6.225   0.840  16.384 -0.3206  0.2276  0.1155
 2550TIP3    H129141   6.136   0.808  16.398 -0.8333  1.9714  0.9969
 2550TIP3    H229142   6.240   0.902  16.456 -0.0709  3.3534 -2.4815
 2551TIP3   OH229143   2.535   1.606  11.761 -0.0203  0.6221 -0.5293
 2551TIP3    H129144   2.582   1.565  11.688  0.7027 -0.0610  0.3161
 2551TIP3    H229145   2.575   1.569  11.839 -1.0762  1.0414  0.2198
 2552TIP3   OH229146   3.548   2.604   3.111  0.0571  0.0441  0.6700
 2552TIP3    H129147   3.536   2.527   3.055  1.0365  1.3742 -1.3899
 2552TIP3    H229148   3.460   2.641   3.120 -0.0779 -0.0688 -0.1350
 2553TIP3   OH229149   5.113   4.017  13.820  0.3551 -0.0824  0.5760
 2553TIP3    H129150   5.035   3.972  13.854 -0.5704  1.0715  0.0539
 2553TIP3    H229151   5.128   3.977  13.734  2.4244 -2.6839  2.0830
 2554TIP3   OH229152   4.059   4.304  11.449  0.7537 -0.3544 -0.3277
 2554TIP3    H129153   4.025   4.353  11.374  0.9282 -0.1538 -0.2725
 2554TIP3    H229154   4.032   4.213  11.432 -2.8644  0.3019  1.4339
 2555TIP3   OH229155   0.710   2.174  15.983  0.1599 -0.3386 -0.6746
 2555TIP3    H129156   0.704   2.088  16.024  1.1542 -1.1195 -2.1371
 2555TIP3    H229157   0.619   2.198  15.964 -0.5540  0.9115  3.6328
 2556TIP3   OH229158   5.403   2.592   5.697  0.2210  0.1181 -0.2373
 2556TIP3    H129159   5.348   2.656   5.653  1.5470  1.2568 -0.2883
 2556TIP3    H229160   5.342   2.527   5.733 -1.1829  1.6938  0.2613
 2557TIP3   OH229161   2.036   1.415  17.185 -0.1781  0.1565  0.1694
 2557TIP3    H129162   1.995   1.426  17.271  1.1326  2.8906  0.4984
 2557TIP3    H229163   2.108   1.354  17.200 -0.4635 -0.0133  0.8474
 2558TIP3   OH229164   2.156   1.224  15.477 -0.4302 -0.2253 -0.0256
 2558TIP3    H129165   2.104   1.276  15.415  2.3806 -0.4648 -2.6987
 2558TIP3    H229166   2.113   1.138  15.478 -2.2640  0.6649  0.7226
 2559TIP3   OH229167   0.882   0.742   4.661 -0.1117  0.4097  0.1284
 2559TIP3    H129168   0.922   0.810   4.715 -0.3560 -0.3321  1.2380
 2559TIP3    H229169   0.921   0.756   4.574  2.9312 -0.5535  1.2636
 2560TIP3   OH229170   0.850   1.686   0.548 -0.1181  0.0532  0.4170
 2560TIP3    H129171   0.820   1.663   0.460  1.0151  0.5945 -0.1167
 2560TIP3    H229172   0.865   1.780   0.545  0.8063 -0.0746  0.9212
 2561TIP3   OH229173   5.456   0.409   4.413  0.4894 -0.1206  0.0805
 2561TIP3    H129174   5.510   0.402   4.492  0.1831 -0.2699  0.2814
 2561TIP3    H229175   5.504   0.359   4.347  0.7660  0.0360  0.1631
 2562TIP3   OH229176   4.916   5.064   2.804 -0.5838  0.1500 -0.2987
 2562TIP3    H129177   4.861   5.140   2.819 -1.8046 -0.5615 -1.0901
 2562TIP3    H229178   4.861   5.004   2.754  0.9027 -0.5867 -1.0845
 2563TIP3   OH229179   1.760   6.280  11.213  0.2887 -0.4801 -0.7606
 2563TIP3    H129180   1.782   6.272  11.121 -0.9589 -1.6146 -0.9740
 2563TIP3    H229181   1.739   6.373  11.224  3.3599  0.2808 -0.9126
 2564TIP3   OH229182   2.415   6.516   2.977  0.1377 -0.3023  0.3457
 2564TIP3    H129183   2.412   6.605   2.943  0.0594  0.0275  1.2058
 2564TIP3    H229184   2.353   6.467   2.923  1.9468 -0.3934 -1.6892
 2565TIP3   OH229185   3.129   3.841  16.150 -0.2729 -0.1968  0.2457
 2565TIP3    H129186   3.165   3.860  16.063 -2.2095 -0.3398 -0.6121
 2565TIP3    H229187   3.147   3.920  16.201 -1.4624  0.9487 -1.0667
 2566TIP3   OH229188   4.178   4.122   3.664  0.1289 -0.4902  0.1743
 2566TIP3    H129189   4.202   4.185   3.732 -0.5933 -0.1854  0.1434
 2566TIP3    H229190   4.232   4.045   3.683 -0.2643 -0.5114  1.2536
 2567TIP3   OH229191   2.236   1.139   4.999 -0.1974 -0.1369 -0.0926
 2567TIP3    H129192   2.178   1.151   4.925 -1.8696 -1.3289  0.9950
 2567TIP3    H229193   2.293   1.216   4.998 -1.7024  0.9848 -1.2408
 2568TIP3   OH229194   4.813   2.044  14.965  0.1313  0.0246  0.0656
 2568TIP3    H129195   4.736   2.034  15.021  0.0367 -3.6425 -0.5951
 2568TIP3    H229196   4.800   2.128  14.921 -4.0181 -0.9797 -0.8045
 2569TIP3   OH229197   1.168   5.273   3.123 -0.5916  0.0499  0.1279
 2569TIP3    H129198   1.189   5.180   3.112  1.3896  0.5106 -0.0222
 2569TIP3    H229199   1.088   5.273   3.177  0.5908 -1.6873  1.9269
 2570TIP3   OH229200   5.569   3.878  13.280 -0.7160 -0.5237 -0.1035
 2570TIP3    H129201   5.532   3.860  13.367  0.3533 -0.6526  0.3268
 2570TIP3    H229202   5.566   3.973  13.272 -0.2475 -0.4714  0.3270
 2571TIP3   OH229203   3.406   6.375  15.701  0.3733 -0.7072  0.4416
 2571TIP3    H129204   3.347   6.440  15.663  0.2737 -1.0841 -0.0510
 2571TIP3    H229205   3.474   6.364  15.634 -0.0726 -1.7468  0.1627
 2572TIP3   OH229206   6.612   0.442   5.356 -0.2178 -0.3544 -0.5491
 2572TIP3    H129207   6.546   0.493   5.405 -0.1734 -0.3259 -0.5193
 2572TIP3    H229208   6.567   0.416   5.276 -0.3458 -0.5454 -0.4175
 2573TIP3   OH229209   5.636   1.350  13.280 -0.1415  0.1844  0.5931
 2573TIP3    H129210   5.633   1.272  13.335  3.0065 -1.5693 -1.5649
 2573TIP3    H229211   5.633   1.315  13.190 -3.5318  2.8607 -0.4505
 2574TIP3   OH229212   4.912   3.888  16.879 -0.4311 -0.3387 -0.2612
 2574TIP3    H129213   5.006   3.884  16.898 -0.6480  1.1967  1.2393
 2574TIP3    H229214   4.872   3.919  16.960 -2.3989 -2.1616 -0.4680
 2575TIP3   OH229215   6.605   0.200   0.401  0.0561  0.2978  0.6929
 2575TIP3    H129216   6.629   0.248   0.480 -1.5932 -0.7415  1.8484
 2575TIP3    H229217   6.513   0.222   0.387 -0.2255 -1.1444  0.2372
 2576TIP3   OH229218   0.495   0.239  11.868 -0.2892  0.6365 -0.3417
 2576TIP3    H129219   0.564   0.189  11.823 -0.1660  0.0432  0.5076
 2576TIP3    H229220   0.524   0.330  11.862  1.5444  0.2042  1.6998
 2577TIP3   OH229221   1.039   1.696   4.015  0.3661  0.1578 -0.2673
 2577TIP3    H129222   1.103   1.740   3.959  0.4225 -0.3232 -0.5886
 2577TIP3    H229223   1.074   1.607   4.026  1.5451  0.8879  2.4143
 2578TIP3   OH229224   0.725   1.469   3.432 -0.3580 -0.2418  0.1788
 2578TIP3    H129225   0.788   1.444   3.364  0.8624  0.7099  0.9504
 2578TIP3    H229226   0.708   1.561   3.416 -0.4119 -0.1278  0.9014
 2579TIP3   OH229227   0.196   0.639  16.487  0.1582  0.2019  0.2586
 2579TIP3    H129228   0.157   0.668  16.404  0.4822  0.0460  0.0507
 2579TIP3    H229229   0.125   0.645  16.550 -0.3358 -0.5432 -0.2203
 2580TIP3   OH229230   0.979   3.432  16.270  0.1250  0.5055 -0.6458
 2580TIP3    H129231   0.933   3.516  16.266 -0.5556  0.1086 -1.3025
 2580TIP3    H229232   1.072   3.455  16.276 -0.1099  1.3088 -0.0342
 2581TIP3   OH229233   3.673   5.872   1.398  0.0687  0.0829  0.0789
 2581TIP3    H129234   3.635   5.865   1.310 -0.9766  2.4125  0.3205
 2581TIP3    H229235   3.603   5.908   1.452  1.2508  0.2789  1.5198
 2582TIP3   OH229236   4.072   6.414  16.564  0.4714  0.0726 -0.4506
 2582TIP3    H129237   4.161   6.408  16.598  0.7858  1.3296 -1.0311
 2582TIP3    H229238   4.044   6.323  16.553  1.0298 -0.3461  1.4133
 2583TIP3   OH229239   1.761   2.183  16.825 -0.1890  0.4934 -0.3502
 2583TIP3    H129240   1.766   2.264  16.876  0.1711  0.4125 -0.2567
 2583TIP3    H229241   1.850   2.147  16.829 -0.2764  0.2497 -0.6447
 2584TIP3   OH229242   2.649   5.033   5.012 -0.4911  0.1288  0.1480
 2584TIP3    H129243   2.604   5.034   5.096 -1.1597 -0.4886 -0.1933
 2584TIP3    H229244   2.665   4.941   4.994  1.3445  0.3607  0.4747
 2585TIP3   OH229245   1.096   1.808  12.137 -0.6176  0.0430 -0.0898
 2585TIP3    H129246   1.075   1.900  12.124 -0.0813  0.3833  1.3226
 2585TIP3    H229247   1.020   1.761  12.104 -0.3718  0.9334 -1.9523
 2586TIP3   OH229248   0.495   1.781  16.355  0.4049 -0.1681  0.3957
 2586TIP3    H129249   0.418   1.770  16.298 -0.0216 -3.5809  1.4849
 2586TIP3    H229250   0.550   1.706  16.334  1.9562  0.5416  1.8987
 2587TIP3   OH229251   6.626   6.084  15.731  0.3527  0.2185 -0.2084
 2587TIP3    H129252   6.669   5.999  15.738 -1.0170 -0.4964 -0.4001
 2587TIP3    H229253   6.600   6.105  15.821  0.0705  0.1091 -0.2645
 2588TIP3   OH229254   0.282   0.990   1.863  0.2547  0.7854 -0.0731
 2588TIP3    H129255   0.217   0.927   1.893  2.8615 -1.7839  0.3503
 2588TIP3    H229256   0.298   1.047   1.938  0.7008 -0.4386  0.7528
 2589TIP3   OH229257   6.140   5.831   5.577 -0.2214  0.8043  0.2294
 2589TIP3    H129258   6.210   5.863   5.634 -0.5656  2.6259 -0.3548
 2589TIP3    H229259   6.150   5.881   5.496  0.3077 -1.7918 -1.3660
 2590TIP3   OH229260   1.790   3.388   5.903  0.5309  0.0836  0.2375
 2590TIP3    H129261   1.876   3.426   5.920 -0.0280  1.7006 -0.4916
 2590TIP3    H229262   1.791   3.304   5.949  2.6404 -0.0987 -0.1043
 2591TIP3   OH229263   4.463   4.805   3.089  0.1832  0.0946 -0.5093
 2591TIP3    H129264   4.451   4.795   3.183  0.9879 -0.2777 -0.4417
 2591TIP3    H229265   4.396   4.868   3.062 -0.9366 -0.8401  0.0803
 2592TIP3   OH229266   6.449   4.141   2.239 -0.2467 -0.3919  0.0598
 2592TIP3    H129267   6.468   4.048   2.225  1.7825  0.0049 -0.0024
 2592TIP3    H229268   6.393   4.165   2.165  0.7681 -1.1146 -0.9562
 2593TIP3   OH229269   3.262   1.517  14.404  0.9747 -0.6785 -0.0249
 2593TIP3    H129270   3.226   1.496  14.318  0.6225  1.0990 -0.3337
 2593TIP3    H229271   3.207   1.469  14.466 -0.2882 -0.0676 -0.6586
 2594TIP3   OH229272   6.180   5.377  15.898  0.1614  0.1476 -0.3071
 2594TIP3    H129273   6.162   5.303  15.841  1.1670  0.1771 -0.6788
 2594TIP3    H229274   6.276   5.382  15.902  0.1065  0.7845  0.5467
 2595TIP3   OH229275   3.928   5.224  13.609 -0.3558 -0.3943  0.2067
 2595TIP3    H129276   3.855   5.162  13.608 -0.2409 -0.5438  1.0165
 2595TIP3    H229277   3.981   5.201  13.533  1.5115 -3.4511  2.3216
 2596TIP3   OH229278   0.168   4.219  15.042 -0.1095 -0.0722 -0.6046
 2596TIP3    H129279   0.241   4.229  15.102 -0.9836  0.1136  0.4436
 2596TIP3    H229280   0.149   4.308  15.013 -0.9234  0.0726  0.3458
 2597TIP3   OH229281   0.477   1.572   6.184 -0.5538  0.0148  0.3371
 2597TIP3    H129282   0.446   1.589   6.095 -1.1069 -0.2193  0.4824
 2597TIP3    H229283   0.510   1.657   6.214  0.0217  0.0032 -0.2376
 2598TIP3   OH229284   4.245   6.370  15.813  0.5121 -0.4610  0.4288
 2598TIP3    H129285   4.313   6.318  15.769 -0.2634 -0.8960 -0.2720
 2598TIP3    H229286   4.287   6.454  15.832  1.8874 -1.4297  1.8404
 2599TIP3   OH229287   5.803   2.481   3.157 -0.1108  0.1873  0.1485
 2599TIP3    H129288   5.883   2.508   3.201 -1.3557  0.5425  2.2618
 2599TIP3    H229289   5.777   2.399   3.201 -0.4184 -0.4205 -1.1298
 2600TIP3   OH229290   0.985   1.671  12.431  0.0368  0.2409 -0.4541
 2600TIP3    H129291   0.968   1.635  12.344  0.3253 -0.4657 -0.2251
 2600TIP3    H229292   1.078   1.653  12.446  0.1924  1.0959 -0.3310
 2601TIP3   OH229293   3.573   1.774   3.319  0.1974  0.6007  0.2229
 2601TIP3    H129294   3.632   1.704   3.347  1.2291  1.3018 -0.1677
 2601TIP3    H229295   3.501   1.728   3.275  0.1689 -0.2978  1.1828
 2602TIP3   OH229296   6.102   2.150   0.780  0.1999  0.7276  0.1788
 2602TIP3    H129297   6.112   2.118   0.869  0.8594 -0.6430 -0.3746
 2602TIP3    H229298   6.116   2.245   0.787  1.0042  0.5303  1.4134
 2603TIP3   OH229299   3.399   6.609  14.389  0.4990  0.1570 -0.4575
 2603TIP3    H129300   3.456   6.573  14.321 -0.3497  0.2927 -1.2585
 2603TIP3    H229301   3.379   6.697  14.358  1.3618  0.7804  0.7539
 2604TIP3   OH229302   5.777   1.954   4.442 -0.2670 -0.4086  0.1357
 2604TIP3    H129303   5.725   2.005   4.380 -0.5704  0.8532  1.3834
 2604TIP3    H229304   5.868   1.977   4.422 -0.2428 -1.5600 -1.1434
 2605TIP3   OH229305   6.780   6.685   5.095 -0.8740 -0.0258  0.5024
 2605TIP3    H129306   6.766   6.733   5.176 -0.3974  1.9726 -0.5571
 2605TIP3    H229307   6.872   6.661   5.096 -1.2507 -1.4995  1.3183
 2606TIP3   OH229308   6.554   2.575  14.682  0.3254  0.2472 -0.4988
 2606TIP3    H129309   6.529   2.566  14.774  1.7212  1.1166 -0.0261
 2606TIP3    H229310   6.634   2.523  14.674  1.2334  1.6621 -0.7799
 2607TIP3   OH229311   2.123   4.983   3.531  0.3462  0.0710  0.4238
 2607TIP3    H129312   2.057   5.025   3.476 -1.1287  1.4629  3.1552
 2607TIP3    H229313   2.096   4.892   3.536  0.7440 -0.1592 -1.4879
 2608TIP3   OH229314   4.508   0.566   4.237  0.2823  0.0134  0.2974
 2608TIP3    H129315   4.450   0.504   4.194 -1.2804  1.1902  0.6833
 2608TIP3    H229316   4.493   0.649   4.191  1.8738  0.2725  0.2075
 2609TIP3   OH229317   0.051   4.510  14.226  0.1794  0.3103 -0.3167
 2609TIP3    H129318   0.007   4.426  14.210 -1.0053  0.5944  1.3859
 2609TIP3    H229319   0.035   4.561  14.147 -0.4301 -0.4941 -0.7151
 2610TIP3   OH229320   2.900   1.081   3.661  0.0109  0.5476  0.1726
 2610TIP3    H129321   2.848   1.022   3.607 -0.0295  0.8865 -0.1648
 2610TIP3    H229322   2.854   1.165   3.655 -0.0233  0.5730  0.7788
 2611TIP3   OH229323   5.541   5.994  11.317  1.0192 -0.4350 -0.5791
 2611TIP3    H129324   5.597   5.959  11.386  2.1431 -0.2258 -1.3767
 2611TIP3    H229325   5.548   6.089  11.326  0.0900 -0.4041 -0.1250
 2612TIP3   OH229326   5.070   0.313   1.796 -0.2963 -0.2556  0.1576
 2612TIP3    H129327   4.976   0.294   1.807 -0.1881 -1.2537 -0.6143
 2612TIP3    H229328   5.115   0.241   1.841  0.1054 -0.0595  0.0710
 2613TIP3   OH229329   1.689   6.591   2.267 -0.2661  0.0351  0.1530
 2613TIP3    H129330   1.666   6.577   2.175 -0.4182  0.4767  0.1218
 2613TIP3    H229331   1.697   6.686   2.275 -1.8748  0.1146  0.9843
 2614TIP3   OH229332   5.907   6.643   6.286 -0.0551 -0.7107  0.2313
 2614TIP3    H129333   5.966   6.650   6.211 -0.9868  0.6095 -0.3956
 2614TIP3    H229334   5.835   6.703   6.266  0.1366  0.3656  2.5979
 2615TIP3   OH229335   4.307   6.268   0.311  0.3835  0.0915 -0.3019
 2615TIP3    H129336   4.303   6.363   0.301 -0.3759  0.0172 -0.8100
 2615TIP3    H229337   4.233   6.247   0.368  0.9358 -0.1245  0.3271
 2616TIP3   OH229338   5.647   5.261   4.250  0.0987  0.0244  0.3644
 2616TIP3    H129339   5.692   5.319   4.188 -1.5195 -0.0736 -0.9355
 2616TIP3    H229340   5.564   5.304   4.267 -0.0503 -0.6547  1.3999
 2617TIP3   OH229341   2.217   5.192  15.174  0.4526  0.0046 -0.3724
 2617TIP3    H129342   2.162   5.221  15.102  0.7979 -0.0444 -0.6596
 2617TIP3    H229343   2.285   5.139  15.132 -1.0296 -2.5151  0.2670
 2618TIP3   OH229344   6.442   2.116   3.533  0.1785 -0.2525 -0.7547
 2618TIP3    H129345   6.401   2.195   3.497  0.7549  0.8208  0.8918
 2618TIP3    H229346   6.476   2.070   3.456  1.2731  1.9328 -1.6469
 2619TIP3   OH229347   1.508   2.225   0.860 -0.6730  0.3592  0.2727
 2619TIP3    H129348   1.527   2.313   0.891  1.1525 -0.0630  0.4096
 2619TIP3    H229349   1.531   2.226   0.768  0.2611 -0.2279  0.4937
 2620TIP3   OH229350   5.368   1.523  11.833  0.4487 -0.3876 -0.3860
 2620TIP3    H129351   5.344   1.473  11.755 -0.4007 -0.6856  0.0602
 2620TIP3    H229352   5.455   1.558  11.813 -0.2029  0.4241 -1.9088
 2621TIP3   OH229353   0.622   1.891   4.050 -0.3916  0.0393  0.1579
 2621TIP3    H129354   0.587   1.919   4.134  0.0899  1.4911 -0.1011
 2621TIP3    H229355   0.717   1.887   4.063 -0.5539 -3.2610  0.6815
 2622TIP3   OH229356   4.751   6.058  12.684 -0.5067 -0.5258  0.1487
 2622TIP3    H129357   4.783   6.148  12.677  2.7640 -1.6683 -0.2164
 2622TIP3    H229358   4.793   6.024  12.763  0.2451 -2.5019 -1.0804
 2623TIP3   OH229359   1.445   2.143  13.436 -0.2957 -0.5025  0.7183
 2623TIP3    H129360   1.364   2.094  13.450 -0.2424 -1.3931 -1.8112
 2623TIP3    H229361   1.497   2.127  13.515 -1.5970 -1.9128  1.3076
 2624TIP3   OH229362   4.837   2.977  12.809 -0.3131  0.0923  0.0311
 2624TIP3    H129363   4.914   2.954  12.861  0.6501  0.8149 -1.0596
 2624TIP3    H229364   4.767   2.920  12.843  0.6013 -0.3135  1.2669
 2625TIP3   OH229365   3.637   3.298   5.096  0.2594  0.0593 -0.0137
 2625TIP3    H129366   3.720   3.272   5.057 -1.0186 -1.8064 -1.5575
 2625TIP3    H229367   3.654   3.384   5.134  3.1243 -0.6821  0.4635
 2626TIP3   OH229368   4.771   3.812  11.395 -0.0841  0.1839 -0.1588
 2626TIP3    H129369   4.798   3.842  11.482  2.5233 -2.6685  0.1208
 2626TIP3    H229370   4.827   3.861  11.334 -0.2803  0.5059 -0.0782
 2627TIP3   OH229371   1.307   2.862   4.036  0.1408 -0.4419 -0.1186
 2627TIP3    H129372   1.234   2.836   3.980  0.6622  0.5199 -1.2634
 2627TIP3    H229373   1.356   2.781   4.052 -0.5781 -0.8959 -0.2206
 2628TIP3   OH229374   1.608   2.259   2.740  0.1359 -0.3714 -0.4150
 2628TIP3    H129375   1.619   2.261   2.645  1.1757 -0.5027 -0.3058
 2628TIP3    H229376   1.615   2.351   2.766  2.2343 -0.5415 -0.2332
 2629TIP3   OH229377   2.387   4.608  14.403  0.6218  0.4266  0.4391
 2629TIP3    H129378   2.297   4.640  14.396  0.8670  0.7994 -1.1933
 2629TIP3    H229379   2.388   4.526  14.354  0.8127 -0.3797  1.7616
 2630TIP3   OH229380   0.543   0.545  16.689  0.3066  0.4086  0.1129
 2630TIP3    H129381   0.476   0.530  16.756 -1.3421 -1.9390 -1.9831
 2630TIP3    H229382   0.497   0.588  16.617  1.0551 -1.1414 -1.3117
 2631TIP3   OH229383   3.953   1.656   5.163 -0.4070  0.0229 -0.1532
 2631TIP3    H129384   3.919   1.573   5.128  1.7083 -0.8663 -0.2091
 2631TIP3    H229385   3.979   1.705   5.085 -0.3201  0.1265 -0.0585
 2632TIP3   OH229386   0.828   3.205  16.739 -0.7167  0.5373  0.1182
 2632TIP3    H129387   0.766   3.273  16.767 -0.9818  0.0918  0.6162
 2632TIP3    H229388   0.831   3.213  16.643 -1.7791  0.3604  0.0636
 2633TIP3   OH229389   5.892   1.945  12.403  0.0911  0.2300  0.0256
 2633TIP3    H129390   5.857   1.958  12.314 -2.0544 -2.3044  0.4366
 2633TIP3    H229391   5.859   2.020  12.452  2.1000  2.1838 -1.4886
 2634TIP3   OH229392   4.171   4.624   5.253  0.1344  0.4024 -0.6824
 2634TIP3    H129393   4.219   4.699   5.218 -3.0338  2.3219 -1.0851
 2634TIP3    H229394   4.236   4.576   5.304  3.2868  1.0512 -3.8613
 2635TIP3   OH229395   2.309   4.349  17.223 -0.3265 -0.0519  0.1388
 2635TIP3    H129396   2.311   4.261  17.260  0.2235 -0.0237  0.1794
 2635TIP3    H229397   2.401   4.369  17.204 -0.6220 -0.1744 -1.4929
 2636TIP3   OH229398   5.547   2.951  17.277  0.7227  0.1875  0.2770
 2636TIP3    H129399   5.540   2.861  17.244 -2.7554  0.7995 -0.8269
 2636TIP3    H229400   5.527   2.943  17.370  0.5436 -0.2080  0.2099
 2637TIP3   OH229401   3.311   3.510  11.947 -0.1534  0.4975  0.0835
 2637TIP3    H129402   3.226   3.489  11.987  0.4551 -2.0528  0.0855
 2637TIP3    H229403   3.374   3.499  12.018  0.6642 -1.7989 -0.9470
 2638TIP3   OH229404   6.493   1.921  14.868 -0.4272 -0.0350  0.3324
 2638TIP3    H129405   6.566   1.902  14.927 -0.7211  1.8791  1.3288
 2638TIP3    H229406   6.455   2.002  14.901 -1.8804 -0.0299 -1.2705
 2639TIP3   OH229407   4.306   2.174  15.010  0.0063  0.1423 -0.0417
 2639TIP3    H129408   4.335   2.086  14.985  0.2624  0.2815 -0.2370
 2639TIP3    H229409   4.315   2.176  15.106  1.7094  0.5475 -0.1831
 2640TIP3   OH229410   0.615   0.359   4.900 -0.2343 -0.1657 -0.1953
 2640TIP3    H129411   0.703   0.331   4.874  0.9074  1.1069  2.0602
 2640TIP3    H229412   0.558   0.287   4.873  1.6776 -1.6061 -0.5519
 2641TIP3   OH229413   0.440   4.795  13.736  0.2803  0.1730 -0.1308
 2641TIP3    H129414   0.524   4.791  13.691  0.2241  1.1863 -0.3312
 2641TIP3    H229415   0.410   4.704  13.739  0.7179 -0.0152 -1.3122
 2642TIP3   OH229416   5.286   4.767   2.786  0.1760  0.6190 -0.2869
 2642TIP3    H129417   5.275   4.862   2.792  2.4309  0.8949  0.0974
 2642TIP3    H229418   5.256   4.733   2.870  0.2350  1.1038 -0.0678
 2643TIP3   OH229419   6.622   6.562   5.463 -0.5863  0.7648 -0.0825
 2643TIP3    H129420   6.671   6.486   5.494 -1.7668 -0.3541 -0.8570
 2643TIP3    H229421   6.536   6.526   5.439 -0.9773  2.2496 -0.9744
 2644TIP3   OH229422   2.401   0.499   4.417 -0.0005  0.1281 -0.1673
 2644TIP3    H129423   2.382   0.566   4.483 -2.7440  0.3926 -1.1666
 2644TIP3    H229424   2.431   0.423   4.468 -0.2254  0.9637  1.2339
 2645TIP3   OH229425   2.177   1.988   0.242  0.0605  0.3905  0.5524
 2645TIP3    H129426   2.186   2.080   0.218  0.2169  0.9590  2.6806
 2645TIP3    H229427   2.262   1.949   0.223  0.3828  0.9725  0.7897
 2646TIP3   OH229428   1.753   1.020   1.571  0.2140 -0.0945 -0.0670
 2646TIP3    H129429   1.714   0.939   1.603  0.5961 -0.0161  0.5899
 2646TIP3    H229430   1.693   1.089   1.600 -0.0813 -0.1302 -0.5774
 2647TIP3   OH229431   1.118   2.053  11.445  0.3823 -0.1197 -0.2910
 2647TIP3    H129432   1.149   2.011  11.365  0.5636 -0.1031 -0.2293
 2647TIP3    H229433   1.078   1.981  11.495  0.4348 -0.1648 -0.3136
 2648TIP3   OH229434   3.057   1.781  13.563 -0.4310 -0.1196  0.4876
 2648TIP3    H129435   3.090   1.866  13.592  1.1791 -0.4833 -0.2445
 2648TIP3    H229436   2.968   1.799  13.533 -0.4929  1.0959  1.3803
 2649TIP3   OH229437   0.572   1.837  13.265 -0.5622 -0.2577  0.0601
 2649TIP3    H129438   0.498   1.896  13.276 -0.6503 -0.0502 -1.5098
 2649TIP3    H229439   0.534   1.750  13.259 -0.6061 -0.2438  0.1396
 2650TIP3   OH229440   0.045   4.719   0.386  0.3910  0.1448  0.7980
 2650TIP3    H129441  -0.035   4.670   0.405  1.3029 -1.3667  0.8671
 2650TIP3    H229442   0.018   4.810   0.385 -1.8085 -0.4929 -1.6050
 2651TIP3   OH229443   4.161   4.118   5.214  0.3101 -0.3544 -0.2137
 2651TIP3    H129444   4.168   4.024   5.195 -2.4443 -0.4805 -0.7909
 2651TIP3    H229445   4.067   4.134   5.221  0.8172  2.0683  1.4847
 2652TIP3   OH229446   0.133   2.709   3.603  0.0987  0.3969  0.2200
 2652TIP3    H129447   0.050   2.665   3.583  0.2521 -0.0070  0.4534
 2652TIP3    H229448   0.194   2.637   3.620  0.3213  0.7026  0.7361
 2653TIP3   OH229449   4.067   2.687   3.865 -0.3376 -0.6283 -0.1274
 2653TIP3    H129450   4.096   2.596   3.868 -0.4332 -0.6274  1.0181
 2653TIP3    H229451   4.035   2.699   3.776 -0.5296 -1.7814 -0.2194
 2654TIP3   OH229452   0.746   2.514  13.114  0.0683 -0.2967 -0.0201
 2654TIP3    H129453   0.704   2.596  13.088  1.8231  0.4404 -0.5957
 2654TIP3    H229454   0.813   2.540  13.177  1.4970 -1.1219 -1.1665
 2655TIP3   OH229455   0.956   6.012  16.614  0.1105 -0.4687  0.4049
 2655TIP3    H129456   0.951   6.092  16.668 -0.0388 -1.5884  2.1019
 2655TIP3    H229457   1.015   6.035  16.542  1.7646  0.5439  2.0296
 2656TIP3   OH229458   0.275   6.551  15.861  0.5588 -0.1464  0.6813
 2656TIP3    H129459   0.350   6.514  15.814 -0.1066 -2.4492  1.3946
 2656TIP3    H229460   0.274   6.505  15.945 -1.8886 -0.4650  0.5184
 2657TIP3   OH229461   4.998   2.962  13.209  0.6483 -0.3622 -0.2817
 2657TIP3    H129462   5.073   2.910  13.179  0.6075  0.1029 -1.1849
 2657TIP3    H229463   4.925   2.900  13.210  1.1720 -1.0006  1.2854
 2658TIP3   OH229464   2.523   2.833  14.539 -0.0199 -0.3364  0.1946
 2658TIP3    H129465   2.496   2.884  14.463 -0.5953 -0.4861  0.3018
 2658TIP3    H229466   2.444   2.822  14.591  0.3826 -0.1855  0.8460
 2659TIP3   OH229467   2.322   1.489  10.817 -0.6100  0.3466 -0.3708
 2659TIP3    H129468   2.250   1.468  10.757 -1.8407 -1.4777  1.6738
 2659TIP3    H229469   2.314   1.583  10.831 -0.9277  0.6227 -2.2540
 2660TIP3   OH229470   5.837   0.032  13.642 -0.3395  0.3351  0.0988
 2660TIP3    H129471   5.830   0.128  13.648  1.1947  0.5510 -1.0675
 2660TIP3    H229472   5.850   0.003  13.732  0.0690  1.3072  0.3607
 2661TIP3   OH229473   0.828   1.877   3.241  0.6322 -0.3078 -0.9003
 2661TIP3    H129474   0.877   1.891   3.160  1.2407 -2.4449 -0.9526
 2661TIP3    H229475   0.843   1.956   3.292  2.9119 -0.2746 -1.5587
 2662TIP3   OH229476   6.128   1.670  17.014 -0.4155  0.2329  0.4094
 2662TIP3    H129477   6.202   1.629  17.059  2.8268  2.9937 -2.1187
 2662TIP3    H229478   6.109   1.611  16.941  0.6322  0.5034 -0.0923
 2663TIP3   OH229479   4.452   2.070  12.717 -0.1767  0.5469 -0.3032
 2663TIP3    H129480   4.399   2.086  12.639  0.9291  1.8951 -0.8157
 2663TIP3    H229481   4.392   2.078  12.791 -0.9273  0.7411 -0.9391
 2664TIP3   OH229482   0.046   0.760   4.247 -0.5356 -0.1968  0.0868
 2664TIP3    H129483  -0.039   0.803   4.255 -0.2806  1.1613 -3.5806
 2664TIP3    H229484   0.033   0.692   4.181  1.4348  0.7601 -1.3522
 2665TIP3   OH229485   0.775   1.719   1.524 -0.1262  0.0565 -0.1916
 2665TIP3    H129486   0.683   1.731   1.548 -0.1314  0.6268 -0.4630
 2665TIP3    H229487   0.800   1.635   1.562  0.1740  1.3764  2.6865
 2666TIP3   OH229488   0.050   3.477  17.071 -0.5196  0.0550 -0.8594
 2666TIP3    H129489   0.027   3.404  17.128 -0.7337  0.8473  0.0858
 2666TIP3    H229490  -0.033   3.519  17.051 -0.4993 -0.5179 -2.1777
 2667TIP3   OH229491   3.667   5.915  12.617 -0.0552  0.0250 -0.1231
 2667TIP3    H129492   3.599   5.974  12.585 -0.6631  0.7793  2.4941
 2667TIP3    H229493   3.622   5.832  12.631  0.1321 -0.1962 -0.7879
 2668TIP3   OH229494   0.498   0.203  14.385 -0.0329  0.6446 -0.8967
 2668TIP3    H129495   0.584   0.166  14.406 -1.6629 -1.6235  2.1949
 2668TIP3    H229496   0.449   0.130  14.346 -1.0884  1.4208 -1.0430
 2669TIP3   OH229497   0.248   1.676  17.060  0.2507 -0.0170 -0.0512
 2669TIP3    H129498   0.303   1.754  17.048  0.7587 -0.3038  0.3710
 2669TIP3    H229499   0.213   1.685  17.149 -1.6343  0.9371 -0.8582
 2670TIP3   OH229500   6.170   4.916  11.174 -1.0198  0.6347  0.1107
 2670TIP3    H129501   6.152   4.823  11.158 -1.1504  0.7777 -0.5434
 2670TIP3    H229502   6.085   4.953  11.197 -0.9221  0.5420  0.6378
 2671TIP3   OH229503   1.168   0.414  12.528 -0.2174  0.7147 -0.1852
 2671TIP3    H129504   1.101   0.418  12.596 -1.2073  1.4478 -1.1959
 2671TIP3    H229505   1.245   0.453  12.569  0.0364 -1.3641  1.4499
 2672TIP3   OH229506   2.952   1.832  15.215 -0.6436  0.1819  0.3306
 2672TIP3    H129507   2.957   1.852  15.309 -2.0709  0.7672  0.2992
 2672TIP3    H229508   2.931   1.915  15.174  0.0506 -0.0648 -0.5207
 2673TIP3   OH229509   5.615   4.790  15.461  0.2309  0.0751  0.3378
 2673TIP3    H129510   5.534   4.799  15.510  0.7933 -4.0062  2.1797
 2673TIP3    H229511   5.607   4.706  15.415  3.5816 -0.6992  1.0047
 2674TIP3   OH229512   3.976   5.955  10.816  0.0326  0.4145 -0.2223
 2674TIP3    H129513   4.036   5.961  10.742  1.8039 -0.7362  1.0697
 2674TIP3    H229514   4.033   5.944  10.893 -1.7942  0.1921  1.1448
 2675TIP3   OH229515   5.539   4.618   0.068 -1.0401 -1.0324 -0.7044
 2675TIP3    H129516   5.598   4.543   0.072 -2.2163 -1.9616 -0.6985
 2675TIP3    H229517   5.590   4.690   0.105  0.6669 -1.4480 -2.2121
 2676TIP3   OH229518   0.427   2.022  15.668 -0.5110  0.7206  0.1224
 2676TIP3    H129519   0.338   1.992  15.652 -0.4649 -2.5712  5.0539
 2676TIP3    H229520   0.483   1.957  15.625 -0.4935 -0.2904  1.6439
 2677TIP3   OH229521   3.886   1.014  13.777 -0.1677 -0.0649  0.2743
 2677TIP3    H129522   3.981   1.005  13.767 -0.1895 -0.4922  0.4601
 2677TIP3    H229523   3.872   1.109  13.777  0.0194 -0.0138 -1.9266
 2678TIP3   OH229524   1.645   4.870  11.249  0.7586  0.0651  0.3240
 2678TIP3    H129525   1.659   4.819  11.329  0.7532 -0.7121 -0.1627
 2678TIP3    H229526   1.729   4.866  11.203 -0.1774 -2.2360 -1.2561
 2679TIP3   OH229527   0.314   2.742   5.620  0.0358 -0.6351  0.0506
 2679TIP3    H129528   0.224   2.707   5.618  0.2207 -1.0766 -0.7114
 2679TIP3    H229529   0.346   2.719   5.707 -0.2083 -1.4582 -0.0708
 2680TIP3   OH229530   3.633   1.616   0.886  0.3561  0.0964 -0.0213
 2680TIP3    H129531   3.654   1.575   0.970 -0.6613 -0.6098 -0.0916
 2680TIP3    H229532   3.563   1.678   0.907  0.5384  0.3774 -0.2438
 2681TIP3   OH229533   5.433   0.790  16.121 -0.2165 -0.5082  0.4484
 2681TIP3    H129534   5.506   0.807  16.181  0.5245 -0.4406 -0.4553
 2681TIP3    H229535   5.408   0.700  16.139 -0.4767 -0.2603  1.3602
 2682TIP3   OH229536   0.171   4.650  16.779  0.4409  0.3833  0.1965
 2682TIP3    H129537   0.105   4.598  16.732  0.8435  0.9638 -1.0498
 2682TIP3    H229538   0.222   4.586  16.829 -0.2313 -0.2129  0.1267
 2683TIP3   OH229539   2.673   5.877   0.283 -0.0963 -0.2017 -0.0156
 2683TIP3    H129540   2.622   5.943   0.330  0.1900  1.2799 -1.7485
 2683TIP3    H229541   2.764   5.896   0.306 -0.0860 -0.7345  0.4012
 2684TIP3   OH229542   2.804   5.165   0.242 -0.3941 -0.1150  0.2182
 2684TIP3    H129543   2.716   5.129   0.249 -0.0409 -1.0057  0.1431
 2684TIP3    H229544   2.817   5.181   0.149 -0.8406  0.9481  0.3348
 2685TIP3   OH229545   6.601   6.014   3.673  0.2293  0.9566  1.1705
 2685TIP3    H129546   6.668   5.954   3.640 -1.2456 -0.4891  0.7193
 2685TIP3    H229547   6.611   6.010   3.768  0.6675  0.6120  1.1143
 2686TIP3   OH229548   1.927   4.593   1.873  0.1481  0.1641  0.2806
 2686TIP3    H129549   1.838   4.557   1.868 -0.6161  2.1679 -0.8386
 2686TIP3    H229550   1.973   4.551   1.800  0.6728 -2.2646  1.9514
 2687TIP3   OH229551   3.407   3.464   1.124  0.2507  0.1216  0.2017
 2687TIP3    H129552   3.349   3.416   1.066  0.7002  0.9694 -0.9608
 2687TIP3    H229553   3.363   3.548   1.138  1.6383  1.1663 -1.4973
 2688TIP3   OH229554   3.088   6.522   2.091 -0.0796 -0.2007  0.1169
 2688TIP3    H129555   3.010   6.488   2.047 -0.4978 -0.1820  0.8464
 2688TIP3    H229556   3.145   6.446   2.101  0.0217 -0.2072 -0.4563
 2689TIP3   OH229557   6.582   6.312  16.445  0.5127  0.7475  0.2576
 2689TIP3    H129558   6.532   6.388  16.415  0.0586 -0.0121 -0.9614
 2689TIP3    H229559   6.605   6.333  16.535 -3.2842  0.4985  1.3514
 2690TIP3   OH229560   5.933   1.594   4.339 -0.4711 -0.2823  0.1791
 2690TIP3    H129561   5.985   1.536   4.395 -0.2418 -0.5677 -0.3256
 2690TIP3    H229562   5.869   1.634   4.398  0.5503  0.3386  0.8679
 2691TIP3   OH229563   2.810   0.209   1.814 -0.0090  0.3468 -0.2775
 2691TIP3    H129564   2.749   0.205   1.888 -0.1774  0.8574 -0.3848
 2691TIP3    H229565   2.841   0.119   1.803 -0.6436  0.1100 -0.1384
 2692TIP3   OH229566   4.617   0.905  14.038  0.4525 -0.7391  0.0770
 2692TIP3    H129567   4.644   0.828  14.089 -1.7395 -1.1229  0.6899
 2692TIP3    H229568   4.544   0.874  13.985 -0.3317  0.8797  0.2005
 2693TIP3   OH229569   6.485   3.218  11.853 -0.4314 -0.4168 -0.3776
 2693TIP3    H129570   6.554   3.178  11.800 -0.5173 -0.7512 -0.2414
 2693TIP3    H229571   6.502   3.188  11.942 -0.8417 -0.6293 -0.3671
 2694TIP3   OH229572   1.023   2.384  12.952 -0.3028  0.1618 -0.1395
 2694TIP3    H129573   1.046   2.469  12.989 -0.1958 -0.0785  0.3520
 2694TIP3    H229574   0.988   2.404  12.865  2.6593  0.4415 -1.3055
 2695TIP3   OH229575   6.439   2.954  12.814 -0.2724  0.3003 -0.8441
 2695TIP3    H129576   6.471   2.866  12.794  1.4053 -0.0410  2.8681
 2695TIP3    H229577   6.367   2.968  12.752 -0.2918 -3.4828 -1.8293
 2696TIP3   OH229578   6.083   0.563   1.107  0.0550  0.2832 -0.4009
 2696TIP3    H129579   6.051   0.628   1.045 -2.0738 -0.3940 -0.0473
 2696TIP3    H229580   6.069   0.479   1.064 -0.1956 -0.1146  0.4332
 2697TIP3   OH229581   5.762   1.099  12.057  0.0574  0.1867  0.1411
 2697TIP3    H129582   5.849   1.058  12.055 -0.7098 -1.5667  1.5925
 2697TIP3    H229583   5.763   1.151  12.138 -0.2736  0.0963  0.2008
 2698TIP3   OH229584   1.310   2.004   4.073 -0.1363 -0.4826 -0.2168
 2698TIP3    H129585   1.240   1.996   4.138  0.3264  0.2765  0.3829
 2698TIP3    H229586   1.373   2.063   4.113  0.4694 -0.5247 -1.0940
 2699TIP3   OH229587   3.528   5.687   3.563  0.1907  0.5306 -0.0008
 2699TIP3    H129588   3.469   5.728   3.500  0.3521 -0.0328 -0.5246
 2699TIP3    H229589   3.530   5.595   3.538  1.6273  0.6152 -0.2546
 2700TIP3   OH229590   6.000   2.274  11.760  0.6394  0.1778  0.4206
 2700TIP3    H129591   5.928   2.288  11.698 -0.3643 -0.5502  1.3780
 2700TIP3    H229592   6.022   2.361  11.792  2.0889  0.7100 -1.9368
 2701TIP3   OH229593   5.508   3.739   4.730  0.0385  0.6484 -0.1305
 2701TIP3    H129594   5.460   3.682   4.670  1.1634  0.5925 -1.0119
 2701TIP3    H229595   5.453   3.746   4.807 -0.4098 -1.0848 -0.2890
 2702TIP3   OH229596   3.981   1.081  11.760 -0.2793  0.7914 -0.0123
 2702TIP3    H129597   3.889   1.107  11.767 -0.3484  0.2707  1.2040
 2702TIP3    H229598   3.996   1.029  11.839  0.4494 -0.9913 -1.3081
 2703TIP3   OH229599   1.724   6.374  11.502 -0.4734  0.5287  0.3619
 2703TIP3    H129600   1.805   6.324  11.507 -0.0324  1.1450 -0.4191
 2703TIP3    H229601   1.685   6.367  11.589  1.3494  1.7907  1.3172
 2704TIP3   OH229602   6.146   0.461  16.476 -0.2536  0.1096 -0.2455
 2704TIP3    H129603   6.235   0.445  16.444 -0.4228  1.6799 -1.5942
 2704TIP3    H229604   6.090   0.450  16.399 -1.0661  0.5915  0.2616
 2705TIP3   OH229605   5.472   6.395   6.711 -0.0871 -0.0016 -0.0854
 2705TIP3    H129606   5.446   6.485   6.692 -1.9402 -0.8348 -1.7259
 2705TIP3    H229607   5.394   6.343   6.694  0.8804 -1.9164  1.0611
 2706TIP3   OH229608   2.661   2.100  15.751 -0.0896  0.1598 -0.2863
 2706TIP3    H129609   2.643   2.138  15.665  0.9492  1.2971 -0.0084
 2706TIP3    H229610   2.646   2.171  15.813  0.6318 -0.2319  0.3556
 2707TIP3   OH229611   3.449   4.723   3.119 -0.5031  0.1400 -0.1135
 2707TIP3    H129612   3.461   4.640   3.166  1.5822  0.0893 -0.6868
 2707TIP3    H229613   3.480   4.790   3.180  0.2271  0.2627 -0.6171
 2708TIP3   OH229614   6.588   0.916  13.010  0.0884  0.4184  0.1722
 2708TIP3    H129615   6.585   0.949  13.100  1.3986 -2.1919  1.2228
 2708TIP3    H229616   6.590   0.821  13.019  0.2002  0.1118 -2.6355
 2709TIP3   OH229617   2.053   4.303  17.271  0.4931 -0.5448 -0.3847
 2709TIP3    H129618   2.144   4.332  17.264  0.4743 -0.8125 -1.8183
 2709TIP3    H229619   2.052   4.245  17.348  1.5844 -0.7373 -0.5105
 2710TIP3   OH229620   2.068   1.175   2.382 -0.1458 -0.0838  0.4076
 2710TIP3    H129621   2.101   1.243   2.324  0.6206 -0.9938 -0.2517
 2710TIP3    H229622   1.977   1.163   2.356 -0.1070  0.2542  0.1179
 2711TIP3   OH229623   3.068   2.623  13.843  0.6698  0.4788 -0.6085
 2711TIP3    H129624   3.147   2.568  13.840  0.6218  0.3104  0.9182
 2711TIP3    H229625   2.999   2.565  13.876  0.3619  1.1483 -0.0515
 2712TIP3   OH229626   3.290   4.122   5.387 -0.2269 -0.3950  0.4343
 2712TIP3    H129627   3.354   4.052   5.385  0.2677  0.0474  0.6217
 2712TIP3    H229628   3.334   4.197   5.346 -1.1980 -0.5642 -0.9643
 2713TIP3   OH229629   5.318   4.108   6.205 -0.4302 -0.3074 -0.0397
 2713TIP3    H129630   5.268   4.166   6.263  0.1501 -1.0029  1.1800
 2713TIP3    H229631   5.408   4.140   6.213 -0.5553  0.5046 -1.6896
 2714TIP3   OH229632   1.341   3.730  13.405  0.5975  0.4766  0.0428
 2714TIP3    H129633   1.260   3.705  13.450  0.4128  0.5588 -0.2470
 2714TIP3    H229634   1.313   3.795  13.341  0.5112 -1.4272 -1.8758
 2715TIP3   OH229635   2.457   4.986   4.044 -0.2230 -0.2916  0.1751
 2715TIP3    H129636   2.516   4.961   4.115 -0.0160 -2.2897 -0.6507
 2715TIP3    H229637   2.479   4.925   3.973 -1.9816  0.1815 -0.7985
 2716TIP3   OH229638   0.415   3.152   0.055 -0.7564  0.1156  0.1911
 2716TIP3    H129639   0.417   3.082   0.121 -1.4092  0.1049  0.2013
 2716TIP3    H229640   0.470   3.221   0.092 -0.0460 -0.4228  0.1490
 2717TIP3   OH229641   4.385   0.711  12.403 -0.0568  0.3076 -0.6321
 2717TIP3    H129642   4.342   0.649  12.461 -0.2356  2.0304  1.0960
 2717TIP3    H229643   4.381   0.669  12.317 -3.2699 -0.5186 -0.1350
 2718TIP3   OH229644   0.267   3.114   3.377 -0.3209  0.7928  0.4885
 2718TIP3    H129645   0.287   3.059   3.302  0.3508  4.3255 -2.0390
 2718TIP3    H229646   0.172   3.128   3.373 -0.4992 -0.2101  1.1631
 2719TIP3   OH229647   5.440   6.398   0.074  0.1613  0.0088 -0.0183
 2719TIP3    H129648   5.441   6.407   0.170 -1.9732 -1.8046  0.2229
 2719TIP3    H229649   5.471   6.309   0.059 -1.5347 -0.4359 -0.8930
 2720TIP3   OH229650   4.686   5.453  13.332 -0.4684  0.1175 -0.2251
 2720TIP3    H129651   4.752   5.394  13.370 -0.9672 -1.5545 -1.8604
 2720TIP3    H229652   4.656   5.506  13.405  2.2875  0.5113  0.6703
 2721TIP3   OH229653   2.269   6.560   5.142  0.6768  0.4635  0.1645
 2721TIP3    H129654   2.242   6.596   5.227  1.8843  1.1315  0.2874
 2721TIP3    H229655   2.307   6.474   5.164  2.0546  1.1299  0.4666
 2722TIP3   OH229656   6.061   4.225   2.921 -0.0581 -0.4348 -0.3538
 2722TIP3    H129657   6.112   4.146   2.903 -2.3343 -1.5200 -2.3196
 2722TIP3    H229658   6.117   4.277   2.978  1.4876 -3.4816  1.0425
 2723TIP3   OH229659   6.156   2.632  14.309  0.2863  0.1970  0.1346
 2723TIP3    H129660   6.184   2.545  14.338  1.6444  0.6133  0.0900
 2723TIP3    H229661   6.179   2.636  14.217 -0.6448  0.2575 -0.0973
 2724TIP3   OH229662   4.449   5.277  12.958  0.6780 -0.5674 -0.6545
 2724TIP3    H129663   4.440   5.295  12.865  0.7980 -0.1306 -0.5786
 2724TIP3    H229664   4.359   5.270  12.990  0.6116  1.3455 -0.3937
 2725TIP3   OH229665   6.371   6.711  14.113  0.1803 -0.5056  0.4337
 2725TIP3    H129666   6.326   6.793  14.135  0.6862  0.0981 -0.7266
 2725TIP3    H229667   6.381   6.666  14.196 -0.8382  0.2424  0.9735
 2726TIP3   OH229668   5.890   3.286   2.185 -0.1873  0.5288 -0.1990
 2726TIP3    H129669   5.811   3.297   2.132 -0.3670 -3.0091 -0.7985
 2726TIP3    H229670   5.959   3.264   2.122  0.3917 -0.2744  0.6960
 2727TIP3   OH229671   4.682   4.734   2.905 -1.3322 -0.1592 -0.4894
 2727TIP3    H129672   4.747   4.780   2.851  1.8297 -0.3455  2.9289
 2727TIP3    H229673   4.639   4.804   2.954 -0.8936 -0.3476  0.1646
 2728TIP3   OH229674   5.242   2.335  15.544 -0.1046  0.0806  0.5669
 2728TIP3    H129675   5.290   2.322  15.625  0.3092 -0.3268  0.2569
 2728TIP3    H229676   5.302   2.385  15.488  0.5028 -1.6091 -0.3238
 2729TIP3   OH229677   5.607   0.472  15.596 -0.6845  0.1101 -0.2139
 2729TIP3    H129678   5.590   0.378  15.606  0.7435 -0.0288  1.1770
 2729TIP3    H229679   5.583   0.510  15.681  1.2234  0.5921  0.1418
 2730TIP3   OH229680   5.285   6.533  14.187 -0.1573  0.3210 -0.5397
 2730TIP3    H129681   5.315   6.518  14.098 -0.6745  0.5747 -0.7563
 2730TIP3    H229682   5.308   6.625  14.205  1.0357 -0.0726  0.0168
 2731TIP3   OH229683   0.984   4.247  13.599  0.4261 -0.7562 -0.0149
 2731TIP3    H129684   1.023   4.276  13.682  1.8511 -2.4550 -0.0756
 2731TIP3    H229685   0.896   4.219  13.623 -0.7412  2.7844  0.1865
 2732TIP3   OH229686   6.465   5.751   5.360 -0.1293 -0.3700  0.0364
 2732TIP3    H129687   6.372   5.742   5.379 -0.4317 -0.0783 -1.2541
 2732TIP3    H229688   6.469   5.810   5.285  1.1701  0.7613  0.9433
 2733TIP3   OH229689   4.937   0.373   3.135  0.0858  0.5358  0.2656
 2733TIP3    H129690   4.913   0.421   3.214 -1.8103  0.9696 -0.5437
 2733TIP3    H229691   4.854   0.340   3.101  0.9009  0.1618 -1.4119
 2734TIP3   OH229692   2.610   4.423  12.742  0.4510  0.5357 -0.6563
 2734TIP3    H129693   2.576   4.512  12.733  2.4818  1.2628 -1.3798
 2734TIP3    H229694   2.672   4.428  12.814 -1.7089 -1.0341  1.3936
 2735TIP3   OH229695   1.588   1.992  13.652  0.3770 -0.0785  0.2905
 2735TIP3    H129696   1.658   1.932  13.676 -0.9675 -1.4499  0.9146
 2735TIP3    H229697   1.569   2.041  13.732  0.6958  0.3608  0.0969
 2736TIP3   OH229698   5.152   0.332   1.542  0.1143  0.3631 -0.3829
 2736TIP3    H129699   5.109   0.345   1.627 -0.5547  1.9749 -0.9401
 2736TIP3    H229700   5.245   0.351   1.559 -0.0189  0.6920 -0.0160
 2737TIP3   OH229701   3.595   5.317   4.021 -0.1581  0.1037 -0.3558
 2737TIP3    H129702   3.548   5.384   3.971  0.2864  1.9899  1.7018
 2737TIP3    H229703   3.681   5.312   3.978  0.2075  1.6779  0.1609
 2738TIP3   OH229704   1.875   2.359  14.803 -0.0644  0.5798  0.1907
 2738TIP3    H129705   1.833   2.437  14.765  0.0323 -0.7882 -2.9486
 2738TIP3    H229706   1.813   2.288  14.784  1.4772 -0.6699 -0.2513
 2739TIP3   OH229707   2.919   6.476  16.180 -0.2001  0.2835 -0.2831
 2739TIP3    H129708   2.881   6.561  16.158 -1.2928  0.1007  0.8357
 2739TIP3    H229709   2.979   6.494  16.251 -2.0545 -0.1686  1.4493
 2740TIP3   OH229710   5.206   4.111  16.641 -0.4185  0.1409 -0.5512
 2740TIP3    H129711   5.302   4.114  16.644 -0.4360  0.7090 -0.5427
 2740TIP3    H229712   5.179   4.149  16.725 -0.6673  1.0098 -1.0166
 2741TIP3   OH229713   2.178   4.488  14.773 -0.3281 -0.1119 -0.2708
 2741TIP3    H129714   2.208   4.535  14.851 -2.3135 -0.6969  0.8907
 2741TIP3    H229715   2.246   4.424  14.756  0.1291  0.0137  1.0050
 2742TIP3   OH229716   2.184   1.125   6.521  0.0182  0.1564 -1.1897
 2742TIP3    H129717   2.144   1.161   6.441 -0.5841  2.1151 -0.0324
 2742TIP3    H229718   2.264   1.082   6.490  0.0056  1.2540 -2.8141
 2743TIP3   OH229719   6.667   6.432   3.471  0.2035  0.2678  0.4659
 2743TIP3    H129720   6.635   6.391   3.551  1.0740  0.6209  0.9981
 2743TIP3    H229721   6.662   6.363   3.405 -1.0575  0.1379  0.6758
 2744TIP3   OH229722   3.632   1.768  13.662 -0.2296 -0.6740 -0.3289
 2744TIP3    H129723   3.643   1.791  13.570 -0.6326  2.3377  0.3513
 2744TIP3    H229724   3.538   1.776  13.678 -0.0286 -0.1796  0.6068
 2745TIP3   OH229725   5.512   6.412   4.116  0.1027 -0.6331  0.1876
 2745TIP3    H129726   5.507   6.330   4.067 -0.9552 -0.7909  0.5618
 2745TIP3    H229727   5.460   6.474   4.065  0.8746 -0.1898 -0.0795
 2746TIP3   OH229728   3.695   5.427  13.445  0.0069  0.6494 -0.3679
 2746TIP3    H129729   3.772   5.392  13.491  0.9259  1.8942 -0.9405
 2746TIP3    H229730   3.630   5.440  13.514 -0.1528 -1.5929 -0.0522
 2747TIP3   OH229731   0.872   2.812   1.274  0.4649 -0.3186 -0.2774
 2747TIP3    H129732   0.825   2.843   1.197  0.5811 -0.3934 -0.3770
 2747TIP3    H229733   0.922   2.737   1.244 -0.1057 -0.8383  0.0516
 2748TIP3   OH229734   3.742   3.392   0.654  0.4331  0.5474 -0.5474
 2748TIP3    H129735   3.660   3.392   0.704  1.4052  1.5065  1.1059
 2748TIP3    H229736   3.809   3.371   0.719  1.7160  1.7278 -1.4692
 2749TIP3   OH229737   4.078   3.083  10.357 -0.2881  0.1704  0.4221
 2749TIP3    H129738   4.007   3.027  10.326  0.4581  0.1699 -1.3563
 2749TIP3    H229739   4.036   3.167  10.374 -0.8505 -0.0248  0.0083
 2750TIP3   OH229740   0.366   1.034   0.726 -0.3572 -0.5915 -0.2137
 2750TIP3    H129741   0.372   0.967   0.657  2.8600 -1.5869  0.9311
 2750TIP3    H229742   0.405   0.992   0.803 -1.3085  1.4920  1.4363
 2751TIP3   OH229743   4.239   1.444   3.435  0.3612 -0.2616 -0.1290
 2751TIP3    H129744   4.221   1.449   3.341  1.0925  1.1645 -0.2054
 2751TIP3    H229745   4.159   1.408   3.473 -0.4402  0.4365 -1.1388
 2752TIP3   OH229746   4.340   4.478   3.571 -0.3446 -0.4783 -0.1124
 2752TIP3    H129747   4.387   4.507   3.493 -0.9192  1.2041  0.1538
 2752TIP3    H229748   4.250   4.466   3.541 -0.6272  0.4505  0.3443
 2753TIP3   OH229749   5.660   5.194  14.694  0.2874 -0.5297  0.0497
 2753TIP3    H129750   5.648   5.126  14.761  2.2381 -0.8260  0.1393
 2753TIP3    H229751   5.742   5.170  14.650 -1.5043 -0.9621 -3.2146
 2754TIP3   OH229752   2.681   5.357   4.690 -0.3211 -0.3115 -0.4447
 2754TIP3    H129753   2.725   5.427   4.642  0.7388 -0.0577  0.8848
 2754TIP3    H229754   2.743   5.284   4.689 -0.9334 -0.8402 -0.7864
 2755TIP3   OH229755   3.147   5.879  17.035  0.4510  0.2790  0.2372
 2755TIP3    H129756   3.219   5.846  17.090 -1.0798 -1.1122  1.4480
 2755TIP3    H229757   3.087   5.920  17.098 -1.4172 -1.4883 -0.3586
 2756TIP3   OH229758   6.157   3.428   3.455  0.0029  0.5029 -0.3918
 2756TIP3    H129759   6.109   3.509   3.472 -2.4292 -1.3568  2.1711
 2756TIP3    H229760   6.090   3.366   3.427  1.6648 -0.9221 -1.3165
 2757TIP3   OH229761   5.662   2.626   1.844 -0.0455  0.0802  0.5977
 2757TIP3    H129762   5.738   2.574   1.819  0.5440  1.0621  0.3203
 2757TIP3    H229763   5.692   2.680   1.917  0.5985  2.9830 -1.6865
 2758TIP3   OH229764   1.691   4.967   5.919 -0.0809 -0.1952  0.0102
 2758TIP3    H129765   1.683   4.872   5.930  0.4528 -0.0177  2.2273
 2758TIP3    H229766   1.771   4.990   5.966 -0.3374  1.3872 -0.2952
 2759TIP3   OH229767   3.401   4.843   4.909  0.1076 -0.1210 -0.4012
 2759TIP3    H129768   3.366   4.885   4.988  0.1737 -0.5144 -0.1648
 2759TIP3    H229769   3.363   4.894   4.837 -0.7313 -0.3739 -0.1420
 2760TIP3   OH229770   6.293   4.391   1.827 -0.2880  0.0173 -0.5351
 2760TIP3    H129771   6.346   4.469   1.812 -3.2115  2.3613  0.7355
 2760TIP3    H229772   6.248   4.376   1.743 -1.1791  0.8874 -0.2243
 2761TIP3   OH229773   2.365   3.527  12.898  0.5824  0.4757  0.2569
 2761TIP3    H129774   2.364   3.523  12.993  0.9617  0.8557  0.2795
 2761TIP3    H229775   2.382   3.619  12.878  4.5270 -0.2167 -0.1379
 2762TIP3   OH229776   0.430   0.886   4.297 -0.0619  0.5744  0.2689
 2762TIP3    H129777   0.463   0.849   4.215 -2.2493  1.3297 -1.0112
 2762TIP3    H229778   0.479   0.841   4.365  0.1509 -1.7913 -1.3721
 2763TIP3   OH229779   2.748   2.665  15.370 -0.0458  0.1780 -0.2363
 2763TIP3    H129780   2.678   2.729  15.358 -0.3435 -0.2180 -0.6450
 2763TIP3    H229781   2.819   2.714  15.409 -0.7532  0.4695  0.7131
 2764TIP3   OH229782   0.262   6.809   5.364  0.0298 -0.2851 -0.1696
 2764TIP3    H129783   0.300   6.789   5.450 -1.5121 -0.8702  0.3887
 2764TIP3    H229784   0.302   6.893   5.340  1.4683 -0.7431  0.5052
 2765TIP3   OH229785   2.490   2.316  16.257 -0.2928 -0.5561  0.0940
 2765TIP3    H129786   2.437   2.301  16.178 -1.0092  0.7541  0.3172
 2765TIP3    H229787   2.444   2.386  16.303  0.9058 -0.3552  0.9803
 2766TIP3   OH229788   0.059   6.607  11.841 -0.1190 -0.3003  0.6604
 2766TIP3    H129789   0.066   6.612  11.746  0.0511  0.2252  0.6952
 2766TIP3    H229790   0.133   6.658  11.873  0.3711 -1.2639  1.0800
 2767TIP3   OH229791   4.921   3.016   1.326  0.0805 -0.2190 -0.0340
 2767TIP3    H129792   4.826   3.027   1.332  0.3910  2.0606  1.0569
 2767TIP3    H229793   4.934   2.974   1.241 -1.7939  1.0882 -1.0080
 2768TIP3   OH229794   2.240   4.681  11.582  0.5154  0.6852 -0.1783
 2768TIP3    H129795   2.286   4.759  11.612 -0.7552  1.5349 -0.3725
 2768TIP3    H229796   2.148   4.696  11.607 -0.1554  0.3457 -2.3047
 2769TIP3   OH229797   3.392   4.652   3.480 -0.1006 -0.2872 -0.1072
 2769TIP3    H129798   3.402   4.582   3.416 -1.9475  0.4857 -1.2554
 2769TIP3    H229799   3.427   4.615   3.561  2.3381 -1.2458 -1.5406
 2770TIP3   OH229800   1.390   0.571  12.590 -0.3040  0.1209 -0.2585
 2770TIP3    H129801   1.459   0.601  12.650 -1.6523  1.8459  0.4747
 2770TIP3    H229802   1.431   0.571  12.504  0.2091  2.7125 -0.0689
 2771TIP3   OH229803   2.379   0.164   2.990 -0.8499  0.2061 -0.4961
 2771TIP3    H129804   2.323   0.120   3.054  1.0484  0.1845  1.1900
 2771TIP3    H229805   2.317   0.206   2.930 -2.6763 -0.4344  0.8687
 2772TIP3   OH229806   5.591   6.416  13.785  0.2243  0.7702 -0.0306
 2772TIP3    H129807   5.669   6.396  13.837  0.5878  0.3681 -0.7207
 2772TIP3    H229808   5.598   6.510  13.768  1.1542  0.5302 -1.0400
 2773TIP3   OH229809   6.362   4.271  16.127  0.3659  0.4510 -0.6556
 2773TIP3    H129810   6.376   4.187  16.083  0.8452  0.6917 -0.9764
 2773TIP3    H229811   6.268   4.277  16.138  0.3943 -0.5152  0.1423
 2774TIP3   OH229812   2.541   2.888   0.482 -0.1568 -0.1155 -0.4677
 2774TIP3    H129813   2.465   2.944   0.471 -0.1735  0.1497  0.9028
 2774TIP3    H229814   2.507   2.808   0.520 -0.2144 -1.3145 -2.9571
 2775TIP3   OH229815   4.045   3.061  11.058 -0.0223 -0.4663 -0.0968
 2775TIP3    H129816   4.084   2.974  11.056  0.7391 -0.1135 -0.4568
 2775TIP3    H229817   4.078   3.105  10.980 -1.5634 -0.3502 -0.7024
 2776TIP3   OH229818   2.802   4.422  14.810 -0.5865  0.4153  0.0634
 2776TIP3    H129819   2.752   4.446  14.888 -3.4052  0.7878 -1.8193
 2776TIP3    H229820   2.812   4.504  14.762  1.5502  0.2721  0.1952
 2777TIP3   OH229821   1.479   2.024  11.331 -0.8790  0.6535  0.0084
 2777TIP3    H129822   1.534   1.985  11.399  0.1342  2.0524  0.0274
 2777TIP3    H229823   1.542   2.069  11.273 -1.7570 -0.1697 -1.6199
 2778TIP3   OH229824   5.391   0.647  13.984  0.6255 -0.0058 -0.6508
 2778TIP3    H129825   5.363   0.649  13.892 -1.1866 -1.6939 -0.1723
 2778TIP3    H229826   5.386   0.554  14.008  1.4655  0.3763  1.0502
 2779TIP3   OH229827   1.718   6.662  15.758 -0.5623  0.0132  0.4708
 2779TIP3    H129828   1.797   6.615  15.732 -0.6579  0.9988 -1.8080
 2779TIP3    H229829   1.747   6.723  15.825  1.1810  2.1123 -2.0851
 2780TIP3   OH229830   2.455   2.943  14.306 -0.0937 -0.4634  0.0988
 2780TIP3    H129831   2.497   2.982  14.229  1.5438  1.1076  1.7380
 2780TIP3    H229832   2.368   2.984  14.309 -0.3397 -0.8863 -1.1747
 2781TIP3   OH229833   6.605   4.705   0.120 -0.5160 -0.2281 -0.0483
 2781TIP3    H129834   6.638   4.674   0.035  0.1862 -0.9906  0.4963
 2781TIP3    H229835   6.580   4.625   0.166 -2.5999  0.2937 -0.2150
 2782TIP3   OH229836   5.888   1.606  14.323 -0.0916 -0.6344 -0.2655
 2782TIP3    H129837   5.873   1.586  14.231 -2.0863  3.0862 -0.8235
 2782TIP3    H229838   5.967   1.659  14.324  0.3756 -1.3250  0.2883
 2783TIP3   OH229839   1.530   1.080   5.636 -0.7334 -0.3921  0.2715
 2783TIP3    H129840   1.606   1.022   5.645  0.6998  1.3572 -0.0420
 2783TIP3    H229841   1.511   1.107   5.726  0.3243  0.7239  0.1866
 2784TIP3   OH229842   4.521   4.862   5.193 -0.5366  0.5732 -0.1744
 2784TIP3    H129843   4.548   4.776   5.227  0.0993  0.9313  0.2474
 2784TIP3    H229844   4.509   4.916   5.271  2.9396  1.9976 -0.5060
 2785TIP3   OH229845   3.732   0.538   3.729 -0.2131  0.2134  0.2473
 2785TIP3    H129846   3.639   0.558   3.739 -0.8652 -0.8915 -3.0745
 2785TIP3    H229847   3.740   0.506   3.640  3.0234 -1.6649  1.1394
 2786TIP3   OH229848   1.663   6.278  14.866 -0.9630 -0.4047  0.6324
 2786TIP3    H129849   1.646   6.368  14.892 -0.3212 -0.7424  2.3176
 2786TIP3    H229850   1.613   6.225  14.929 -1.2449 -1.2360 -0.2649
 2787TIP3   OH229851   0.168   1.402   0.908 -0.5434  0.4383  0.1831
 2787TIP3    H129852   0.077   1.400   0.940  0.0775  0.8238  2.0584
 2787TIP3    H229853   0.171   1.476   0.849 -1.4640  0.4131  0.0885
 2788TIP3   OH229854   4.089   0.952   1.471  0.4341  0.0080 -0.1327
 2788TIP3    H129855   4.136   0.940   1.388 -1.2257 -0.4797 -1.0233
 2788TIP3    H229856   4.098   0.868   1.516  0.2389 -0.1631 -0.4058
 2789TIP3   OH229857   5.216   0.998  16.747 -0.3533  0.1716  0.2444
 2789TIP3    H129858   5.253   1.062  16.808 -1.3342  0.5663  0.4379
 2789TIP3    H229859   5.246   0.913  16.780  0.2496  0.4757  0.4818
 2790TIP3   OH229860   1.934   6.095  16.967  0.2054 -0.6948 -0.3327
 2790TIP3    H129861   1.906   6.012  16.928  1.2875 -0.7522 -1.0084
 2790TIP3    H229862   1.904   6.091  17.058 -1.7252 -0.8612 -0.9642
 2791TIP3   OH229863   2.010   2.588  13.976  0.4431 -0.0798 -0.0843
 2791TIP3    H129864   2.024   2.605  13.883  0.1636  0.4814 -0.0296
 2791TIP3    H229865   2.097   2.585  14.015  0.6150 -1.3728 -0.5393
 2792TIP3   OH229866   5.178   2.650  16.840  0.3873 -0.1650  0.0987
 2792TIP3    H129867   5.200   2.739  16.813  0.6921 -0.6268 -1.2019
 2792TIP3    H229868   5.263   2.610  16.861  0.3161 -0.3640  0.0089
 2793TIP3   OH229869   5.402   2.360  13.205 -0.0014 -0.1367 -0.3828
 2793TIP3    H129870   5.376   2.299  13.274  1.0333  0.1378  0.2686
 2793TIP3    H229871   5.482   2.321  13.168  0.7903  0.9119  0.1880
 2794TIP3   OH229872   3.298   4.678  16.817  0.2521  0.2379  0.3591
 2794TIP3    H129873   3.319   4.679  16.911 -0.0482  0.3736  0.4285
 2794TIP3    H229874   3.222   4.735  16.809 -0.3961 -0.6449  0.1943
 2795TIP3   OH229875   6.725   4.912   2.941  0.2069  0.0681 -0.0165
 2795TIP3    H129876   6.759   4.985   2.992  1.1493  0.2890 -0.9546
 2795TIP3    H229877   6.765   4.922   2.855 -0.9401 -0.6170 -0.6377
 2796TIP3   OH229878   1.555   4.361  16.033 -0.0012  0.4467 -0.0187
 2796TIP3    H129879   1.648   4.382  16.024  0.1890 -1.2290 -2.5135
 2796TIP3    H229880   1.511   4.419  15.971 -0.7998  2.0657  1.9888
 2797TIP3   OH229881   0.753   3.303  11.592  0.4355 -0.6377 -0.2105
 2797TIP3    H129882   0.802   3.221  11.589  0.2815 -0.8840  2.3615
 2797TIP3    H229883   0.781   3.345  11.674 -1.5857  0.5126 -0.0585
 2798TIP3   OH229884   2.796   4.516   0.332 -0.3433  0.0527  0.0138
 2798TIP3    H129885   2.823   4.463   0.407 -1.0816  2.0353  1.7375
 2798TIP3    H229886   2.701   4.511   0.332 -0.3107 -0.8014 -1.4668
 2799TIP3   OH229887   6.741   5.116   5.966 -0.2958  0.0965 -0.6469
 2799TIP3    H129888   6.762   5.026   5.939  0.1745  0.2396 -0.7745
 2799TIP3    H229889   6.784   5.171   5.901  1.4024  0.4570  0.7430
 2800TIP3   OH229890   4.196   2.826  12.891  0.7386 -0.3164 -0.2334
 2800TIP3    H129891   4.275   2.780  12.864  0.5338 -0.2904 -0.8956
 2800TIP3    H229892   4.216   2.861  12.977  2.0057  1.0320 -1.0643
 2801TIP3   OH229893   0.046   6.481  16.710  0.2444 -0.4669 -0.1041
 2801TIP3    H129894   0.021   6.558  16.658  0.2775  0.1848  0.8288
 2801TIP3    H229895  -0.037   6.437  16.729 -0.0372  0.6463  1.3619
 2802TIP3   OH229896   0.240   2.280   0.521 -0.2196 -0.1681 -0.0942
 2802TIP3    H129897   0.218   2.373   0.527  0.0884 -0.1432  0.7632
 2802TIP3    H229898   0.307   2.267   0.588  2.4423 -0.2075 -2.6148
 2803TIP3   OH229899   0.119   5.693   5.673  0.0253  0.3494  0.1967
 2803TIP3    H129900   0.082   5.667   5.757  1.6664 -0.5689  0.6551
 2803TIP3    H229901   0.059   5.655   5.608 -0.1313 -0.6988  0.9316
 2804TIP3   OH229902   5.045   2.160   5.420  0.0550  0.1121 -0.2682
 2804TIP3    H129903   4.950   2.151   5.425  0.2772 -1.6077  1.4380
 2804TIP3    H229904   5.073   2.085   5.367  0.4933  0.5287 -0.6353
 2805TIP3   OH229905   5.857   1.307   3.251 -0.3754 -0.0099 -0.1515
 2805TIP3    H129906   5.768   1.321   3.281  0.1447 -1.9429  2.5051
 2805TIP3    H229907   5.908   1.295   3.331  1.9334 -0.7823 -1.6669
 2806TIP3   OH229908   5.014   0.107  11.619  0.1854 -0.4428  0.4942
 2806TIP3    H129909   4.942   0.088  11.560  1.0989 -1.7783 -0.2099
 2806TIP3    H229910   5.047   0.021  11.646  1.7813  0.1441  0.4842
 2807TIP3   OH229911   4.995   1.859  13.985 -0.0590 -0.1241  0.3330
 2807TIP3    H129912   4.993   1.828  13.895  0.7292 -0.3845  0.3999
 2807TIP3    H229913   5.083   1.897  13.995  0.4344 -1.5231  1.4608
 2808TIP3   OH229914   2.796   0.404  12.029 -0.8335  0.3406 -0.1830
 2808TIP3    H129915   2.815   0.489  11.988 -0.2192  1.7765  2.9574
 2808TIP3    H229916   2.882   0.362  12.037 -1.0873 -0.4209 -1.3426
 2809TIP3   OH229917   2.785   0.860  15.604 -0.0124 -0.2429  0.1948
 2809TIP3    H129918   2.869   0.885  15.564  0.3058 -2.1103 -0.3605
 2809TIP3    H229919   2.719   0.889  15.540  0.2593  0.4538  0.2262
 2810TIP3   OH229920   3.220   4.862   4.246  0.1787  0.4633 -0.2969
 2810TIP3    H129921   3.195   4.818   4.328  1.3952  0.4362  0.0760
 2810TIP3    H229922   3.217   4.956   4.268  0.0108  0.4747 -0.3694
 2811TIP3   OH229923   2.873   4.380   0.951  0.3051  0.4642 -0.4873
 2811TIP3    H129924   2.930   4.417   0.883  0.0569  1.1489 -0.3275
 2811TIP3    H229925   2.794   4.433   0.947  0.4605  0.7944  0.6402
 2812TIP3   OH229926   6.413   2.217   4.832  0.4540 -0.2136 -0.2891
 2812TIP3    H129927   6.380   2.194   4.920  0.1456 -0.4973 -0.4776
 2812TIP3    H229928   6.477   2.149   4.813  2.1073  1.0507  0.6140
 2813TIP3   OH229929   4.715   2.878   1.832  0.1267  0.0012 -0.8274
 2813TIP3    H129930   4.709   2.814   1.761 -0.7961  1.5638 -2.2057
 2813TIP3    H229931   4.625   2.911   1.842  0.1594 -0.4434  1.3298
 2814TIP3   OH229932   2.805   6.016  13.078  0.0317  0.3302  0.5028
 2814TIP3    H129933   2.748   6.064  13.018 -0.7819 -0.4654  0.6355
 2814TIP3    H229934   2.787   6.054  13.164  1.1018  1.3804  0.2725
 2815TIP3   OH229935   4.284   2.937   3.330  0.0888 -0.1994  0.1902
 2815TIP3    H129936   4.279   2.851   3.289  0.2371 -0.6560  1.1026
 2815TIP3    H229937   4.374   2.943   3.363  0.0063  0.1934  0.3577
 2816TIP3   OH229938   0.390   0.862  15.579 -0.2117 -0.4776  0.0052
 2816TIP3    H129939   0.388   0.776  15.622  0.6215 -0.4108  0.1733
 2816TIP3    H229940   0.452   0.913  15.630  0.4046 -0.2344 -0.9815
 2817TIP3   OH229941   0.214   6.320   1.009 -0.1852  0.6714  0.1307
 2817TIP3    H129942   0.268   6.242   1.010 -0.3162  0.5622 -0.6283
 2817TIP3    H229943   0.128   6.289   0.981 -0.9121  0.6879  2.2301
 2818TIP3   OH229944   2.447   5.846   0.998 -0.3315  0.0964 -0.2070
 2818TIP3    H129945   2.503   5.835   1.074 -0.9424  1.0741  0.3997
 2818TIP3    H229946   2.485   5.920   0.950 -0.5045  0.1083 -0.3289
 2819TIP3   OH229947   4.343   5.731  14.776 -0.1305 -0.2530  0.4907
 2819TIP3    H129948   4.361   5.806  14.718  3.8592  0.1572  2.0901
 2819TIP3    H229949   4.290   5.767  14.846  0.8290  0.8661  0.6664
 2820TIP3   OH229950   1.996   3.517   4.067 -0.4016  0.7750  0.8128
 2820TIP3    H129951   1.997   3.613   4.063  1.8598  0.7466  0.2907
 2820TIP3    H229952   1.987   3.491   3.975 -0.2947  0.4777  0.8894
 2821TIP3   OH229953   6.343   3.140  14.564 -0.2545  0.0609  0.3367
 2821TIP3    H129954   6.423   3.119  14.611 -0.0595  0.6302  0.2616
 2821TIP3    H229955   6.316   3.057  14.524  0.8084  0.0648 -0.4156
 2822TIP3   OH229956   0.599   1.566  12.570 -0.5751  0.0528  0.3875
 2822TIP3    H129957   0.674   1.520  12.606 -0.3245 -0.0976 -0.3334
 2822TIP3    H229958   0.536   1.498  12.548 -1.1940  0.2226  1.6098
 2823TIP3   OH229959   4.996   5.948  16.594 -0.2995  0.8152  0.1898
 2823TIP3    H129960   5.004   5.886  16.522 -1.7763 -0.7652  1.3362
 2823TIP3    H229961   4.933   6.014  16.563 -1.6108 -0.3428  0.3302
 2824TIP3   OH229962   0.591   1.076   3.592 -0.0157  0.5047 -0.2412
 2824TIP3    H129963   0.499   1.074   3.565 -0.6758  0.7727  1.9564
 2824TIP3    H229964   0.638   1.098   3.512 -2.0559  2.6872 -0.8940
 2825TIP3   OH229965   4.792   6.053   5.008 -0.0625 -0.1560  0.3487
 2825TIP3    H129966   4.809   6.109   5.084 -0.2938  1.7773 -0.9884
 2825TIP3    H229967   4.877   6.047   4.964 -0.6203  1.4822 -1.0217
 2826TIP3   OH229968   2.627   1.458  15.377 -0.4476 -0.0171 -0.5986
 2826TIP3    H129969   2.707   1.427  15.420 -1.5076  0.2870  1.6634
 2826TIP3    H229970   2.586   1.378  15.344  0.3586 -0.2665 -1.0166
 2827TIP3   OH229971   5.988   4.472   3.269 -0.3613 -0.0698  0.1687
 2827TIP3    H129972   5.955   4.400   3.322  0.4527 -1.2358 -0.8761
 2827TIP3    H229973   5.909   4.515   3.236 -0.8594 -1.2502 -0.2112
 2828TIP3   OH229974   5.505   6.144   5.740  0.1368 -0.0523  0.0119
 2828TIP3    H129975   5.507   6.238   5.725 -1.9586  0.2862  1.5211
 2828TIP3    H229976   5.418   6.117   5.713 -0.3595 -1.0068  2.3729
 2829TIP3   OH229977   3.791   0.521   0.889  0.2245  0.0071  0.1476
 2829TIP3    H129978   3.736   0.457   0.933  0.2258 -0.4289 -0.4763
 2829TIP3    H229979   3.838   0.565   0.960 -0.3402 -0.1599  0.6264
 2830TIP3   OH229980   3.358   3.713   4.540 -0.2280 -0.2333 -0.1074
 2830TIP3    H129981   3.396   3.669   4.616 -0.7324 -0.4219  0.0338
 2830TIP3    H229982   3.274   3.669   4.526 -0.1477 -0.1792 -0.7567
 2831TIP3   OH229983   6.202   0.675   0.129 -0.3168 -0.1742  0.2928
 2831TIP3    H129984   6.247   0.591   0.138 -1.1633 -0.8041 -1.1357
 2831TIP3    H229985   6.147   0.664   0.051 -2.0169  0.9869  1.2977
 2832TIP3   OH229986   4.762   5.175  13.908 -0.2663  0.3907 -0.1472
 2832TIP3    H129987   4.741   5.260  13.868  1.9520  1.2401  0.3986
 2832TIP3    H229988   4.677   5.137  13.931 -1.2402  3.1870  1.1053
 2833TIP3   OH229989   0.030   5.142   3.065  0.6008 -0.2010 -0.9550
 2833TIP3    H129990  -0.001   5.220   3.111  0.3204 -0.4047 -0.7926
 2833TIP3    H229991   0.076   5.091   3.133  1.3169  0.1124 -1.2006
 2834TIP3   OH229992   1.735   0.667  15.722 -0.5702  0.0059  0.1518
 2834TIP3    H129993   1.684   0.662  15.642  1.3750  0.2460 -1.1562
 2834TIP3    H229994   1.761   0.577  15.740 -1.7663 -0.1721  1.0471
 2835TIP3   OH229995   3.071   5.454   1.789 -0.3164  0.6903  0.3735
 2835TIP3    H129996   3.135   5.386   1.766 -0.2981  1.3223 -1.5345
 2835TIP3    H229997   2.987   5.409   1.786 -0.0506  0.0308  2.1719
 2836TIP3   OH229998   1.348   1.762  14.023 -0.2077 -0.2761  0.1581
 2836TIP3    H129999   1.401   1.727  14.095  1.0088  1.1366 -0.0374
 2836TIP3    H230000   1.357   1.697  13.953 -2.0786 -2.0912  1.5210
 2837TIP3   OH230001   3.842   2.079   0.072 -0.2826  0.3024  0.1411
 2837TIP3    H130002   3.932   2.110   0.086 -0.4457  1.1134 -0.5616
 2837TIP3    H230003   3.790   2.159   0.067 -1.2607 -0.1813  1.9004
 2838TIP3   OH230004   1.155   1.747   6.161 -0.0689  0.0309 -0.0732
 2838TIP3    H130005   1.128   1.759   6.069  0.1096  0.4288 -0.0761
 2838TIP3    H230006   1.162   1.836   6.195 -1.0775 -0.1533  0.6053
 2839TIP3   OH230007   0.661   4.192  16.138 -0.5748  0.0029  0.3855
 2839TIP3    H130008   0.589   4.150  16.184 -0.1700 -0.7763  0.3211
 2839TIP3    H230009   0.725   4.122  16.124  0.7454  0.9485  1.5581
 2840TIP3   OH230010   5.405   6.270   2.006  0.5168 -0.1542  0.1450
 2840TIP3    H130011   5.374   6.269   2.096  0.7750  0.1569  0.2401
 2840TIP3    H230012   5.332   6.306   1.956  0.6200  0.3347  0.3329
 2841TIP3   OH230013   4.705   2.393  14.133  0.3035 -0.3436 -0.6333
 2841TIP3    H130014   4.665   2.327  14.190  0.3591 -1.3659 -1.7351
 2841TIP3    H230015   4.632   2.448  14.105  0.2733  0.1494  0.3886
 2842TIP3   OH230016   0.131   5.008  12.653 -0.1920  0.0083  0.1467
 2842TIP3    H130017   0.104   5.067  12.583 -1.1057  0.4477  0.8599
 2842TIP3    H230018   0.057   4.948  12.664  0.0306 -0.1879  0.5881
 2843TIP3   OH230019   6.072   3.982  13.165  0.1618 -0.2658 -0.5269
 2843TIP3    H130020   6.041   4.034  13.239 -0.8628 -0.4487 -0.8200
 2843TIP3    H230021   6.149   3.936  13.198 -0.8098 -1.0266  0.6937
 2844TIP3   OH230022   0.686   4.688   6.702  0.0129  0.7358  0.2493
 2844TIP3    H130023   0.708   4.620   6.766 -0.5471  0.7352  0.4436
 2844TIP3    H230024   0.690   4.770   6.752 -0.7255  0.7058  0.3576
 2845TIP3   OH230025   2.392   0.521  15.789 -0.6426  0.2081  0.0942
 2845TIP3    H130026   2.465   0.581  15.806 -0.9516  0.5964  0.0713
 2845TIP3    H230027   2.385   0.469  15.869  0.6307 -0.8703 -0.4902
 2846TIP3   OH230028   6.476   4.038   3.460 -0.0299 -0.7103 -0.1903
 2846TIP3    H130029   6.470   4.074   3.372 -0.6211 -3.3988 -1.2750
 2846TIP3    H230030   6.563   4.000   3.466  0.4002  0.3724  0.7782
 2847TIP3   OH230031   3.962   4.741  10.980 -0.5423 -0.3077 -0.2768
 2847TIP3    H130032   4.049   4.705  10.963 -0.3807 -0.7556  1.4318
 2847TIP3    H230033   3.966   4.830  10.945  0.7397 -0.1821  0.1523
 2848TIP3   OH230034   4.055   2.867   5.829 -0.0402  0.2744  0.0771
 2848TIP3    H130035   4.011   2.917   5.898 -0.8575 -0.4809  0.1066
 2848TIP3    H230036   4.137   2.838   5.868  1.0999  2.7059 -0.3488
 2849TIP3   OH230037   0.787   2.838  14.925  0.3796  0.2545 -0.4026
 2849TIP3    H130038   0.795   2.773  14.995 -1.5474 -0.4020 -0.7634
 2849TIP3    H230039   0.827   2.796  14.848  1.7284  0.6469  0.0612
 2850TIP3   OH230040   3.921   4.843   3.319  0.3351  0.0988 -0.0151
 2850TIP3    H130041   3.831   4.813   3.318  0.7468 -1.4377  3.0839
 2850TIP3    H230042   3.925   4.906   3.392  1.3359  1.5722 -1.3054
 2851TIP3   OH230043   0.304   1.447  12.222  0.6781 -0.1326 -0.1900
 2851TIP3    H130044   0.242   1.458  12.294  0.6782  1.1489 -0.3669
 2851TIP3    H230045   0.389   1.435  12.266  0.4412 -0.9647  0.0403
 2852TIP3   OH230046   5.484   1.207   4.662  0.4494  0.4066  0.1399
 2852TIP3    H130047   5.453   1.138   4.721  2.1082  0.9017  1.6544
 2852TIP3    H230048   5.406   1.237   4.617 -0.3793 -2.1676 -0.2446
 2853TIP3   OH230049   4.152   1.206   5.257 -0.0066  0.2178  0.2837
 2853TIP3    H130050   4.204   1.125   5.257  2.7763  1.9544  1.1608
 2853TIP3    H230051   4.131   1.220   5.165 -0.6069 -1.5451  0.1275
 2854TIP3   OH230052   1.343   4.407  16.979  0.5180 -0.6616 -0.5584
 2854TIP3    H130053   1.365   4.339  16.915  0.2360  0.9019 -2.3537
 2854TIP3    H230054   1.402   4.479  16.959  1.1245 -0.5352  1.6302
 2855TIP3   OH230055   4.746   5.223   4.318  0.1651 -0.4940  0.1976
 2855TIP3    H130056   4.694   5.264   4.249  0.6081 -2.0309 -1.0697
 2855TIP3    H230057   4.837   5.245   4.296  0.2051  0.3830  1.2093
 2856TIP3   OH230058   3.428   4.266  15.230  0.4490  0.1855  0.0346
 2856TIP3    H130059   3.428   4.179  15.189 -2.2255  0.7582 -1.3041
 2856TIP3    H230060   3.369   4.318  15.175  0.9423  2.4729  1.6180
 2857TIP3   OH230061   3.101   5.160   3.160  0.2828 -0.6729 -0.5352
 2857TIP3    H130062   3.060   5.247   3.161 -0.6157 -1.0988  0.2150
 2857TIP3    H230063   3.160   5.161   3.236  1.0554 -0.3623 -1.1261
 2858TIP3   OH230064   1.882   0.924  12.750  0.4022 -0.3216  0.0872
 2858TIP3    H130065   1.924   0.839  12.740  0.1588 -0.2618 -1.6310
 2858TIP3    H230066   1.846   0.943  12.663 -0.6354  0.9556  0.7780
 2859TIP3   OH230067   1.445   6.789   4.502  0.0742 -0.0143 -0.0293
 2859TIP3    H130068   1.356   6.773   4.470 -0.7433  1.1260  1.6101
 2859TIP3    H230069   1.501   6.747   4.437 -1.6052  0.2630 -1.7033
 2860TIP3   OH230070   0.386   3.857   2.546 -0.1386  0.1872 -0.1936
 2860TIP3    H130071   0.373   3.924   2.479  1.3808 -0.9386 -1.6848
 2860TIP3    H230072   0.466   3.812   2.519 -0.1275 -1.0479  1.7740
 2861TIP3   OH230073   4.381   3.121   3.733  0.2842 -0.6751  0.3954
 2861TIP3    H130074   4.399   3.193   3.793  1.5258  0.0044 -0.7805
 2861TIP3    H230075   4.442   3.052   3.758  0.8997 -0.3391 -0.1656
 2862TIP3   OH230076   1.180   3.007  16.884 -0.1107 -0.3283  0.2895
 2862TIP3    H130077   1.216   3.093  16.905 -1.9850  0.2011  1.5024
 2862TIP3    H230078   1.138   3.018  16.798  0.8527 -0.4146 -0.1941
 2863TIP3   OH230079   0.639   5.417  11.960  0.1552  0.1703  0.1673
 2863TIP3    H130080   0.678   5.390  11.877  0.2804 -1.4881  0.7428
 2863TIP3    H230081   0.545   5.422  11.941  0.0041 -1.6507  0.2547
 2864TIP3   OH230082   3.226   4.515   3.763  0.8640  0.0376 -0.2710
 2864TIP3    H130083   3.187   4.455   3.699  0.9208  0.4275 -0.6714
 2864TIP3    H230084   3.163   4.517   3.835  0.3799  0.2772 -0.6963
 2865TIP3   OH230085   2.117   3.555  16.973 -0.5616  0.5224 -0.2846
 2865TIP3    H130086   2.152   3.622  16.914  0.4885 -0.6217 -0.9799
 2865TIP3    H230087   2.039   3.596  17.012  0.4089  2.3698 -0.2159
 2866TIP3   OH230088   3.424   4.531   2.906  0.1710 -0.1488 -0.2576
 2866TIP3    H130089   3.504   4.557   2.860 -0.2562 -0.5770 -1.2462
 2866TIP3    H230090   3.423   4.586   2.984  0.1733  1.6038 -1.4623
 2867TIP3   OH230091   0.908   0.730  16.237  0.2708  0.1218  1.0498
 2867TIP3    H130092   0.950   0.749  16.320 -1.6871  0.5551  1.9608
 2867TIP3    H230093   0.862   0.647  16.251 -0.1492  0.2416  0.4251
 2868TIP3   OH230094   2.610   5.946  12.838 -0.6690 -0.0560 -0.1648
 2868TIP3    H130095   2.649   5.884  12.901  1.6705  1.0136 -0.4938
 2868TIP3    H230096   2.575   5.891  12.769 -0.6685 -1.1233  0.6617
 2869TIP3   OH230097   0.039   6.710  16.047  0.1441 -0.0903 -0.1742
 2869TIP3    H130098   0.132   6.688  16.044 -0.0708 -1.0382  0.0579
 2869TIP3    H230099   0.025   6.743  16.135  0.5288  1.3055 -0.6182
 2870TIP3   OH230100   1.492   4.744   5.599  0.5527 -0.4400  0.7173
 2870TIP3    H130101   1.410   4.745   5.649 -0.5097 -1.4429 -0.9257
 2870TIP3    H230102   1.545   4.676   5.641  1.1729  1.2110  2.6938
 2871TIP3   OH230103   1.251   0.362   5.193  0.0437 -0.0633 -0.0177
 2871TIP3    H130104   1.329   0.351   5.246 -0.6622 -2.0825  0.6530
 2871TIP3    H230105   1.185   0.307   5.235 -0.8309 -0.8836 -2.3856
 2872TIP3   OH230106   6.660   4.236   3.831 -0.3964  0.9086 -0.1790
 2872TIP3    H130107   6.604   4.313   3.839  2.1711  2.9466 -0.9376
 2872TIP3    H230108   6.689   4.236   3.740  1.1146  0.1402  0.2722
 2873TIP3   OH230109   5.976   3.816  14.092  0.4561  0.2906 -0.3348
 2873TIP3    H130110   6.018   3.747  14.040  2.0709  1.2583 -0.3567
 2873TIP3    H230111   5.965   3.889  14.031 -0.6800  0.2694 -0.1561
 2874TIP3   OH230112   5.065   4.107  17.117 -0.0270 -0.5182 -0.2237
 2874TIP3    H130113   5.106   4.186  17.082  0.4394 -0.6461  0.0342
 2874TIP3    H230114   4.994   4.140  17.173 -0.4668 -0.3051 -0.8912
 2875TIP3   OH230115   3.483   0.952   0.647 -0.2232  0.1148 -0.0724
 2875TIP3    H130116   3.532   0.877   0.613  0.5335  0.3954  0.4010
 2875TIP3    H230117   3.534   1.028   0.621 -1.1298  0.4931 -0.7867
 2876TIP3   OH230118   5.317   4.860   5.790  0.5844 -0.6287 -0.1349
 2876TIP3    H130119   5.241   4.874   5.847 -0.3251 -1.4339 -1.1391
 2876TIP3    H230120   5.296   4.907   5.710  1.3314 -0.5215 -0.2722
 2877TIP3   OH230121   6.375   1.785   6.153  0.0548  0.6734 -0.0769
 2877TIP3    H130122   6.344   1.817   6.238  0.1037 -0.9054  0.5494
 2877TIP3    H230123   6.295   1.765   6.105 -0.0675  4.1656 -1.4792
 2878TIP3   OH230124   5.665   5.330  13.791 -0.0333  0.4888 -0.0429
 2878TIP3    H130125   5.680   5.324  13.886  0.2893  1.2896 -0.0382
 2878TIP3    H230126   5.622   5.247  13.769  1.4744 -0.4585  0.4990
 2879TIP3   OH230127   2.189   3.042  12.301  0.1328 -0.2140  0.0768
 2879TIP3    H130128   2.159   3.118  12.351 -0.2068  0.3551 -0.9833
 2879TIP3    H230129   2.254   3.001  12.357  0.0744  0.6717  0.8030
 2880TIP3   OH230130   6.814   3.113   0.784 -0.1868 -0.4662 -0.1309
 2880TIP3    H130131   6.764   3.175   0.732 -1.7509 -1.4843  0.1380
 2880TIP3    H230132   6.886   3.086   0.727 -0.1127  0.7464 -0.6341
 2881TIP3   OH230133   6.041   3.203   6.214  0.1086  0.1623 -0.5225
 2881TIP3    H130134   5.949   3.209   6.239 -0.2971  1.7150 -2.2243
 2881TIP3    H230135   6.052   3.113   6.184 -0.7643 -0.1314  0.0253
 2882TIP3   OH230136   5.569   4.715  12.980  0.4247  0.3967  0.3877
 2882TIP3    H130137   5.569   4.634  12.930 -1.9095 -0.8312  2.2853
 2882TIP3    H230138   5.649   4.711  13.033  0.0258 -0.9220  0.8899
 2883TIP3   OH230139   5.476   5.201   3.667 -0.0633  0.5582 -0.1053
 2883TIP3    H130140   5.470   5.218   3.573  0.1193  1.1796 -0.0046
 2883TIP3    H230141   5.414   5.129   3.682  0.8767 -0.4269 -0.9211
 2884TIP3   OH230142   3.908   0.302   2.114 -0.1236 -0.1653  0.4070
 2884TIP3    H130143   3.955   0.383   2.129 -0.4388  0.4133 -1.6087
 2884TIP3    H230144   3.899   0.296   2.019 -2.2865 -1.2966  0.6428
 2885TIP3   OH230145   0.456   6.723  13.174  0.2610 -0.3860 -0.1308
 2885TIP3    H130146   0.424   6.797  13.121  0.9988  1.7629  2.3253
 2885TIP3    H230147   0.377   6.685  13.212  0.1753  2.7030  3.0683
 2886TIP3   OH230148   3.713   1.752  11.293  0.5264 -0.0385  0.4246
 2886TIP3    H130149   3.680   1.841  11.307  1.9247  0.9424 -2.1900
 2886TIP3    H230150   3.634   1.698  11.287 -0.4703  1.5173 -0.9127
 2887TIP3   OH230151   1.152   4.103  11.911 -0.1600 -0.2693  0.1000
 2887TIP3    H130152   1.227   4.142  11.866 -0.5507  2.3011  1.5833
 2887TIP3    H230153   1.177   4.105  12.004 -1.2347 -1.3074  0.4232
 2888TIP3   OH230154   6.724   5.031  15.853 -0.0180 -0.3130 -0.2957
 2888TIP3    H130155   6.639   5.033  15.897  0.1966 -0.3549  0.1243
 2888TIP3    H230156   6.710   4.975  15.776 -0.6593  0.5786 -0.8470
 2889TIP3   OH230157   1.674   3.484   1.491  0.1896 -0.0587 -0.5694
 2889TIP3    H130158   1.631   3.570   1.483  0.8329  0.1132 -2.3343
 2889TIP3    H230159   1.631   3.430   1.425 -0.5020 -1.2581  0.8081
 2890TIP3   OH230160   1.054   5.593  15.103 -0.0892 -0.0261 -0.5523
 2890TIP3    H130161   0.967   5.618  15.074 -0.9460 -0.7709  1.2674
 2890TIP3    H230162   1.039   5.522  15.166  1.8014  0.0414  0.0144
 2891TIP3   OH230163   4.331   4.759   3.639 -0.4815 -0.4281 -0.1689
 2891TIP3    H130164   4.269   4.748   3.711  0.5317 -0.7102  0.6713
 2891TIP3    H230165   4.337   4.673   3.599  1.7754 -1.2007  1.7466
 2892TIP3   OH230166   3.355   3.893  17.102  0.6422 -0.2215  0.2190
 2892TIP3    H130167   3.360   3.920  17.010  1.3248 -0.3421  0.2159
 2892TIP3    H230168   3.265   3.864  17.114  0.9895 -1.8153 -0.8700
 2893TIP3   OH230169   4.444   1.518   4.235 -0.0938 -0.1067 -0.0200
 2893TIP3    H130170   4.486   1.532   4.151  0.5775 -0.8087  0.1923
 2893TIP3    H230171   4.459   1.426   4.255 -0.7558 -0.0941  0.5951
 2894TIP3   OH230172   1.346   4.177   2.638  0.0764  0.1119 -0.2434
 2894TIP3    H130173   1.307   4.262   2.618  1.5081  1.4757  2.5033
 2894TIP3    H230174   1.423   4.198   2.691  1.7883 -2.7748 -1.4511
 2895TIP3   OH230175   3.275   3.380  15.198 -0.2198  0.1722 -0.3558
 2895TIP3    H130176   3.295   3.459  15.249 -0.6109  0.0711 -0.0405
 2895TIP3    H230177   3.220   3.327  15.256  0.0586 -0.3410 -0.5595
 2896TIP3   OH230178   0.801   0.390  16.887  0.1845 -0.7632 -0.0473
 2896TIP3    H130179   0.842   0.303  16.882  1.4655 -0.3131  1.9323
 2896TIP3    H230180   0.728   0.379  16.947 -0.7789 -0.8766 -1.2305
 2897TIP3   OH230181   1.954   6.440  15.190  0.3642 -0.2726  0.4567
 2897TIP3    H130182   1.923   6.369  15.134 -0.3591  0.4494 -0.0568
 2897TIP3    H230183   1.890   6.510  15.179  1.8008  0.9757 -0.0787
 2898TIP3   OH230184   0.051   6.195  13.940 -0.1279  0.7721  0.0682
 2898TIP3    H130185   0.014   6.249  13.870 -1.3367  1.1143  0.9571
 2898TIP3    H230186  -0.024   6.170  13.993  0.7202  0.0933  0.9598
 2899TIP3   OH230187   4.095   2.291  14.878 -0.5444  0.1181  0.0045
 2899TIP3    H130188   4.104   2.277  14.784 -2.0470  3.6068 -0.7395
 2899TIP3    H230189   4.179   2.262  14.915  0.4657 -0.2792 -2.5144
 2900TIP3   OH230190   2.350   3.688  16.206 -0.2862  0.1060  0.4922
 2900TIP3    H130191   2.297   3.751  16.255  0.0222 -0.9821  2.2754
 2900TIP3    H230192   2.431   3.736  16.185 -0.3123  0.5067  1.2964
 2901TIP3   OH230193   2.933   3.242   3.026 -0.4008 -0.0604  0.1716
 2901TIP3    H130194   3.025   3.216   3.030 -0.8439 -1.9297 -1.2929
 2901TIP3    H230195   2.897   3.214   3.111 -0.0165 -0.9313  0.0526
 2902TIP3   OH230196   1.765   2.406   3.427  0.3112 -0.0105 -0.1964
 2902TIP3    H130197   1.858   2.407   3.406  0.4025 -1.1805  0.1347
 2902TIP3    H230198   1.723   2.365   3.351  0.0269  0.7303 -0.4512
 2903TIP3   OH230199   1.840   2.638   2.424 -0.1594 -0.0517 -0.2509
 2903TIP3    H130200   1.819   2.679   2.340 -0.8627 -0.8643 -0.4831
 2903TIP3    H230201   1.840   2.710   2.487 -1.0119  0.3646 -0.7184
 2904TIP3   OH230202   6.782   4.660   1.360  0.2084  0.5490  0.1991
 2904TIP3    H130203   6.869   4.623   1.372  0.7654  1.7627 -0.0211
 2904TIP3    H230204   6.763   4.703   1.444 -1.0463 -1.4560  0.9705
 2905TIP3   OH230205   4.023   6.718   5.344 -0.0876  0.1453 -0.5186
 2905TIP3    H130206   4.053   6.678   5.262  5.2853 -0.3491  1.4439
 2905TIP3    H230207   4.073   6.799   5.351 -1.1188  0.6180  1.8426
 2906TIP3   OH230208   3.250   2.400  12.073 -0.1364  0.3421 -0.4378
 2906TIP3    H130209   3.285   2.316  12.043  1.9094  0.7175  0.7722
 2906TIP3    H230210   3.166   2.408  12.029  0.0853 -1.8788 -1.3477
 2907TIP3   OH230211   3.242   5.833  16.631  0.7272  0.3781 -0.4706
 2907TIP3    H130212   3.183   5.813  16.559 -1.2180  0.1121  1.1421
 2907TIP3    H230213   3.325   5.793  16.606 -0.2525 -0.7615 -2.0003
 2908TIP3   OH230214   3.559   4.500  11.709 -0.3170 -0.1157  0.1270
 2908TIP3    H130215   3.484   4.456  11.669  0.8252 -0.2446 -1.8935
 2908TIP3    H230216   3.541   4.594  11.698  0.3997 -0.1599 -1.4518
 2909TIP3   OH230217   0.348   6.330   2.780 -0.5119 -0.3322  0.2512
 2909TIP3    H130218   0.265   6.319   2.825 -1.3255  2.3300 -0.5209
 2909TIP3    H230219   0.326   6.376   2.699  1.8822  1.8542  0.7812
 2910TIP3   OH230220   5.849   1.695  15.056  0.0984 -0.3408  0.5414
 2910TIP3    H130221   5.933   1.676  15.013  0.1478 -0.9963  0.9328
 2910TIP3    H230222   5.869   1.769  15.114 -0.0225  0.7165 -0.7303
 2911TIP3   OH230223   5.730   0.878  14.506 -0.2157  0.3624  0.0155
 2911TIP3    H130224   5.667   0.867  14.577  0.4400  1.5122  0.7856
 2911TIP3    H230225   5.759   0.968  14.513  1.0573  0.0199 -0.7141
 2912TIP3   OH230226   1.225   5.038   1.193  0.0305  0.3902  0.0216
 2912TIP3    H130227   1.147   4.995   1.228  0.3672 -0.5007 -0.3160
 2912TIP3    H230228   1.192   5.097   1.125 -0.6152  2.0267  1.7093
 2913TIP3   OH230229   0.657   3.493  15.106 -1.0207 -0.2591  0.2590
 2913TIP3    H130230   0.635   3.433  15.177  1.0186  1.1275  2.1213
 2913TIP3    H230231   0.607   3.572  15.126  0.3189  0.4836  0.7324
 2914TIP3   OH230232   4.176   6.746   3.555  0.7609 -0.1052  0.1856
 2914TIP3    H130233   4.123   6.673   3.521  2.1667 -0.8140 -0.5655
 2914TIP3    H230234   4.156   6.819   3.496  0.6245 -0.3723 -0.1050
 2915TIP3   OH230235   1.800   3.869  13.641  0.0728 -0.1275  0.1367
 2915TIP3    H130236   1.825   3.776  13.645  0.2560 -0.0481  1.0230
 2915TIP3    H230237   1.718   3.870  13.593 -0.1266 -0.7967  0.4515
 2916TIP3   OH230238   4.146   6.783  13.247  0.5033 -0.4362  0.1160
 2916TIP3    H130239   4.124   6.842  13.174  1.1035 -0.6376 -0.2312
 2916TIP3    H230240   4.190   6.839  13.310  2.6248 -0.8286 -0.9625
 2917TIP3   OH230241   6.585   3.683  11.886  0.5948 -0.1349  0.2092
 2917TIP3    H130242   6.513   3.665  11.946  1.7382  0.2166  1.7332
 2917TIP3    H230243   6.547   3.674  11.798 -0.7398 -2.2013  0.9541
 2918TIP3   OH230244   2.069   5.692   5.595  0.4108 -0.1797  0.3918
 2918TIP3    H130245   2.107   5.605   5.590 -1.0300 -0.8518  0.6717
 2918TIP3    H230246   2.143   5.751   5.603  1.4543 -1.2958 -0.9346
 2919TIP3   OH230247   0.168   5.642  13.091  0.3727  0.2438 -0.1324
 2919TIP3    H130248   0.164   5.547  13.101  0.6065  0.2794  0.3121
 2919TIP3    H230249   0.259   5.660  13.068  0.5117  0.4304  0.5552
 2920TIP3   OH230250   3.867   2.063  11.895 -0.0996 -0.0578 -0.2964
 2920TIP3    H130251   3.898   2.094  11.810  1.6757  3.1395  1.4703
 2920TIP3    H230252   3.931   1.998  11.922  1.2369  1.4155  0.1260
 2921TIP3   OH230253   4.331   2.868   4.628  0.5814  0.6793 -0.0165
 2921TIP3    H130254   4.382   2.870   4.709 -0.1363 -0.5485  0.4838
 2921TIP3    H230255   4.396   2.853   4.559  1.0811  0.7019  0.4431
 2922TIP3   OH230256   1.358   6.756   1.406  0.6328 -0.0666 -0.1649
 2922TIP3    H130257   1.298   6.715   1.468 -1.0260  0.0530 -1.6572
 2922TIP3    H230258   1.443   6.754   1.450 -0.5177  0.0570  2.1212
 2923TIP3   OH230259   0.861   2.957  16.797  0.1181 -0.0140  0.0725
 2923TIP3    H130260   0.894   2.947  16.887 -2.6264  1.1811  1.2565
 2923TIP3    H230261   0.856   3.052  16.784 -2.5522 -0.1459 -0.1429
 2924TIP3   OH230262   0.281   4.461  17.038 -0.0044  0.4839 -0.3595
 2924TIP3    H130263   0.250   4.491  17.123 -0.0607 -0.8169  0.0886
 2924TIP3    H230264   0.206   4.415  17.001  1.0247 -1.7552  0.2740
 2925TIP3   OH230265   3.097   2.955   2.854 -0.0911 -0.0012  0.0343
 2925TIP3    H130266   3.167   2.909   2.807  0.2987 -0.0685  0.6609
 2925TIP3    H230267   3.025   2.960   2.792  0.4160 -0.0832 -0.5659
 2926TIP3   OH230268   4.478   5.424  15.904 -0.2319  0.4398  0.1398
 2926TIP3    H130269   4.407   5.478  15.938  0.4076  1.6711 -0.4598
 2926TIP3    H230270   4.558   5.466  15.936  0.2505 -0.5292  0.2207
 2927TIP3   OH230271   2.534   2.133  13.405 -0.0105 -0.6277 -0.0239
 2927TIP3    H130272   2.514   2.070  13.475  0.5212 -1.7502 -0.8684
 2927TIP3    H230273   2.609   2.181  13.437  0.4768 -1.4107  0.0189
 2928TIP3   OH230274   2.845   6.726  11.633  0.7218 -0.5083  0.2943
 2928TIP3    H130275   2.770   6.786  11.635  0.8653 -0.2805 -0.9291
 2928TIP3    H230276   2.916   6.774  11.676  0.9202  0.3305 -0.9461
 2929TIP3   OH230277   3.237   0.161   3.816  0.3015 -0.8257  0.6812
 2929TIP3    H130278   3.307   0.226   3.827 -0.3230  0.0351 -0.2994
 2929TIP3    H230279   3.161   0.201   3.859 -0.4591 -0.2583 -1.1448
 2930TIP3   OH230280   2.289   0.222   6.099 -0.5548  0.1699 -0.0957
 2930TIP3    H130281   2.319   0.172   6.175 -0.7913  1.3502  0.7830
 2930TIP3    H230282   2.353   0.292   6.090 -1.2945  0.8520 -0.1305
 2931TIP3   OH230283   5.541   5.150  15.720 -0.0650  1.2580  0.4639
 2931TIP3    H130284   5.451   5.121  15.729  0.1559 -0.2341 -1.7401
 2931TIP3    H230285   5.574   5.105  15.642  2.5119  1.9554  1.0724
 2932TIP3   OH230286   0.207   4.938   3.202 -0.3624 -0.3914 -0.0001
 2932TIP3    H130287   0.187   4.939   3.296  0.3276 -0.8938  0.1538
 2932TIP3    H230288   0.285   4.883   3.194 -0.4928 -0.4620 -0.8862
 2933TIP3   OH230289   3.121   2.864  16.510  0.6646  0.5774 -0.5372
 2933TIP3    H130290   3.083   2.910  16.585  0.8366  0.1551 -0.1943
 2933TIP3    H230291   3.066   2.889  16.436 -0.6640 -0.5285  0.0661
 2934TIP3   OH230292   0.559   4.624   6.981 -0.4634  0.7167 -0.2567
 2934TIP3    H130293   0.545   4.541   7.028 -0.2862  0.9071  0.1360
 2934TIP3    H230294   0.651   4.645   6.996 -0.4847  0.9382 -0.4327
 2935TIP3   OH230295   3.182   6.277   3.921  0.1100 -0.0145  0.0397
 2935TIP3    H130296   3.248   6.235   3.977  1.6632  1.7543 -0.4184
 2935TIP3    H230297   3.230   6.306   3.844 -1.5139 -0.0674 -1.0105
 2936TIP3   OH230298   6.812   5.587   1.416 -0.5167  0.2901  0.0507
 2936TIP3    H130299   6.887   5.556   1.467 -0.5509  1.0477  0.5634
 2936TIP3    H230300   6.844   5.664   1.370 -1.4207  1.5753  1.5273
 2937TIP3   OH230301   5.607   0.479   2.694  0.0045 -0.2105 -0.1976
 2937TIP3    H130302   5.529   0.438   2.655 -0.0261  1.0846 -1.5458
 2937TIP3    H230303   5.572   0.550   2.748  0.1828 -0.4333  0.2098
 2938TIP3   OH230304   5.043   0.855  12.850 -0.8383 -0.0661  0.6733
 2938TIP3    H130305   5.050   0.795  12.924  0.2766  0.8771  1.3493
 2938TIP3    H230306   5.070   0.940  12.885  1.3850  0.0643 -1.2406
 2939TIP3   OH230307   6.236   2.144  15.173 -0.0267 -0.0700  0.1833
 2939TIP3    H130308   6.321   2.156  15.130  0.6505 -1.3234  1.1467
 2939TIP3    H230309   6.204   2.233  15.189  2.0990  0.4378  1.7835
 2940TIP3   OH230310   0.629   5.353   3.885  0.1283 -0.1077 -0.2705
 2940TIP3    H130311   0.686   5.378   3.957 -0.5851  3.1163 -0.7577
 2940TIP3    H230312   0.687   5.304   3.826  1.9589  1.4087  0.1816
 2941TIP3   OH230313   6.046   5.401  12.195  0.1678  0.3503  0.2943
 2941TIP3    H130314   6.130   5.411  12.239 -0.1010  0.4300  0.7981
 2941TIP3    H230315   5.981   5.423  12.262 -0.3155 -1.3806  0.4102
 2942TIP3   OH230316   3.028   1.635   0.757  0.2479  0.6812  0.4943
 2942TIP3    H130317   3.038   1.591   0.842 -0.4317  1.3797  0.9523
 2942TIP3    H230318   2.973   1.576   0.706  0.6502  0.2611  0.5534
 2943TIP3   OH230319   3.983   2.631   3.584 -0.1162 -0.1347 -0.2040
 2943TIP3    H130320   3.972   2.626   3.489 -0.0751  2.0707 -0.3351
 2943TIP3    H230321   3.931   2.558   3.618 -2.5298  0.8328 -1.7403
 2944TIP3   OH230322   5.042   5.479   0.748 -0.0804 -0.7762 -0.4529
 2944TIP3    H130323   5.004   5.424   0.679 -2.0339 -0.1782  0.1241
 2944TIP3    H230324   5.040   5.568   0.711 -1.0075 -0.4738  0.3103
 2945TIP3   OH230325   2.523   4.004  16.803 -0.7315 -0.2068  0.5083
 2945TIP3    H130326   2.598   4.059  16.781 -2.5044  2.2588  0.4460
 2945TIP3    H230327   2.519   4.006  16.899  0.7025 -2.3572  0.6530
 2946TIP3   OH230328   0.304   1.823   3.585  0.6130  0.0684 -0.3335
 2946TIP3    H130329   0.358   1.755   3.626  1.1065 -0.5997 -2.0637
 2946TIP3    H230330   0.240   1.775   3.534 -1.0372  0.8803  0.9175
 2947TIP3   OH230331   3.039   4.057  10.296 -0.2500 -0.8714 -0.0354
 2947TIP3    H130332   3.028   4.130  10.358 -0.5254 -0.7344 -0.2476
 2947TIP3    H230333   3.116   4.010  10.329  1.3709  0.8569 -1.2106
 2948TIP3   OH230334   1.547   2.498   0.936 -0.4464  0.4168  0.4631
 2948TIP3    H130335   1.470   2.534   0.891 -0.5810 -1.3163 -0.7061
 2948TIP3    H230336   1.618   2.559   0.915 -1.0400  0.9133 -0.1288
 2949TIP3   OH230337   0.354   1.639   1.072 -0.0150 -0.2894 -0.5569
 2949TIP3    H130338   0.433   1.610   1.025 -0.3223 -0.5018 -0.9489
 2949TIP3    H230339   0.283   1.625   1.009 -0.3068  0.3125 -0.3597
 2950TIP3   OH230340   1.548   1.308   5.470 -0.7655  0.1219  0.7056
 2950TIP3    H130341   1.492   1.296   5.394  2.5644 -0.7449 -1.7145
 2950TIP3    H230342   1.539   1.227   5.520  1.3965 -1.7663 -1.8333
 2951TIP3   OH230343   2.912   3.088   6.052  0.2787 -0.1230 -0.3306
 2951TIP3    H130344   2.875   3.155   6.111  0.1142 -1.0289  0.6089
 2951TIP3    H230345   3.006   3.101   6.057  0.3232 -0.8680  0.9563
 2952TIP3   OH230346   4.417   2.808   5.785 -0.0373 -0.2586  0.1068
 2952TIP3    H130347   4.499   2.847   5.817 -0.0765  0.4432 -0.6539
 2952TIP3    H230348   4.385   2.757   5.859  0.0897  1.0235  1.0635
 2953TIP3   OH230349   4.262   5.027  12.930  0.3073 -0.1483  0.4517
 2953TIP3    H130350   4.315   5.002  12.854 -0.1956 -0.4970  0.2161
 2953TIP3    H230351   4.326   5.039  13.001  0.8225  0.6196 -0.1327
 2954TIP3   OH230352   5.194   2.495   1.121  0.0270  0.2727  0.5645
 2954TIP3    H130353   5.150   2.545   1.189  0.4890 -0.1753  1.2023
 2954TIP3    H230354   5.146   2.515   1.041  0.7589  2.4703  0.6314
 2955TIP3   OH230355   4.062   4.597   1.066  0.3081 -0.0795 -0.7390
 2955TIP3    H130356   4.073   4.573   1.158 -1.2587  1.7648 -0.0526
 2955TIP3    H230357   4.142   4.644   1.044  1.0691 -1.2728 -0.5972
 2956TIP3   OH230358   5.128   1.450  16.068 -0.0388  0.2733  0.2288
 2956TIP3    H130359   5.055   1.470  16.127 -0.0026  2.7643 -0.5487
 2956TIP3    H230360   5.196   1.513  16.092  0.1943  0.9148 -2.0601
 2957TIP3   OH230361   4.281   0.686  15.786 -0.1914 -0.0964 -0.1136
 2957TIP3    H130362   4.349   0.642  15.836 -1.3606 -1.5022  0.2833
 2957TIP3    H230363   4.327   0.754  15.736  1.4206 -0.7599  0.4499
 2958TIP3   OH230364   2.931   4.799  11.775 -0.4035  0.6341 -0.0580
 2958TIP3    H130365   2.969   4.776  11.690  0.9416 -0.0731  0.7101
 2958TIP3    H230366   2.837   4.783  11.765 -0.0070 -1.4174 -0.8000
 2959TIP3   OH230367   4.400   3.865  14.113  0.2581 -0.6126 -0.6668
 2959TIP3    H130368   4.335   3.907  14.170 -0.2284 -1.3744 -0.6375
 2959TIP3    H230369   4.390   3.771  14.133  2.2639 -0.6457  0.2893
 2960TIP3   OH230370   0.652   4.581  14.429 -0.1353 -0.1422 -0.4721
 2960TIP3    H130371   0.605   4.565  14.512  0.4634 -2.1457 -0.4762
 2960TIP3    H230372   0.734   4.622  14.455  1.1690 -3.0377  0.2189
 2961TIP3   OH230373   2.911   3.343   0.284  0.1206 -0.1173  0.6573
 2961TIP3    H130374   2.954   3.271   0.239 -0.6356 -0.7066  0.8749
 2961TIP3    H230375   2.904   3.313   0.375 -1.2506 -0.2478  0.5065
 2962TIP3   OH230376   0.150   1.876  13.464  0.3775  0.8000  0.1225
 2962TIP3    H130377   0.063   1.899  13.431  0.3541  0.8571  0.2248
 2962TIP3    H230378   0.147   1.897  13.558 -0.4476 -1.8783  0.7522
 2963TIP3   OH230379   0.744   6.713   5.035 -0.1372 -0.2501  0.1217
 2963TIP3    H130380   0.756   6.692   4.942 -0.3890  0.1124  0.0073
 2963TIP3    H230381   0.776   6.803   5.043 -0.8091 -0.0232  0.2418
 2964TIP3   OH230382   1.130   6.749  14.398 -0.2351 -0.0716 -0.1911
 2964TIP3    H130383   1.081   6.809  14.342  1.1232  0.2158 -1.0962
 2964TIP3    H230384   1.193   6.804  14.444 -1.0248 -0.3730  1.3070
 2965TIP3   OH230385   6.386   4.677   1.831  0.3808  0.1070 -0.2774
 2965TIP3    H130386   6.368   4.736   1.903 -1.9012  0.7162 -1.3055
 2965TIP3    H230387   6.364   4.726   1.752  1.8672 -0.8873 -1.3548
 2966TIP3   OH230388   3.410   0.945  14.505  0.2087 -0.0879 -0.2650
 2966TIP3    H130389   3.403   0.928  14.599 -2.3929 -0.5008 -0.4934
 2966TIP3    H230390   3.408   1.041  14.497  0.0876 -0.0654  0.0608
 2967TIP3   OH230391   5.596   3.027  13.647 -0.2350  0.1661 -0.0678
 2967TIP3    H130392   5.512   3.058  13.614 -0.2162  0.0377 -0.2358
 2967TIP3    H230393   5.596   3.052  13.739 -1.4188 -1.8344  0.5065
 2968TIP3   OH230394   4.638   4.611  16.359  0.3821 -0.0398 -0.0928
 2968TIP3    H130395   4.702   4.543  16.382  3.1505  2.2751 -0.5996
 2968TIP3    H230396   4.672   4.649  16.278 -1.6970  1.2269 -0.3974
 2969TIP3   OH230397   5.522   5.516  15.964  0.1085  0.3183  0.3013
 2969TIP3    H130398   5.549   5.511  15.872 -0.5210  2.1759 -0.0119
 2969TIP3    H230399   5.448   5.455  15.970  1.0230 -0.8443 -0.0874
 2970TIP3   OH230400   1.548   6.784   3.850 -0.0556  0.2614 -0.1234
 2970TIP3    H130401   1.548   6.694   3.817 -0.9906  0.9007 -1.9670
 2970TIP3    H230402   1.457   6.812   3.845  0.2105  1.2886  0.5246
 2971TIP3   OH230403   0.879   6.128  13.261 -0.2063 -0.3934  0.3711
 2971TIP3    H130404   0.903   6.219  13.239 -0.5362 -0.7813 -1.7667
 2971TIP3    H230405   0.916   6.076  13.189 -1.0629 -1.8146  0.9410
 2972TIP3   OH230406   6.198   2.075   2.783  0.0156 -0.4334  0.1996
 2972TIP3    H130407   6.274   2.019   2.768  1.6892  1.2465  2.0934
 2972TIP3    H230408   6.206   2.144   2.716  1.0254  0.5712  1.3257
 2973TIP3   OH230409   4.959   4.140   2.063  0.4593 -0.4766 -0.3724
 2973TIP3    H130410   4.950   4.227   2.102  3.2943 -0.1893 -0.1934
 2973TIP3    H230411   4.970   4.155   1.970  0.1775 -0.6918 -0.4412
 2974TIP3   OH230412   6.705   4.387  11.699 -0.4584 -0.3969  0.0247
 2974TIP3    H130413   6.642   4.359  11.633  0.0890 -0.6655 -0.3916
 2974TIP3    H230414   6.752   4.307  11.723 -0.1830 -0.1775  0.2234
 2975TIP3   OH230415   0.059   4.363  16.926  0.2813  0.0061  0.3376
 2975TIP3    H130416   0.024   4.383  16.840 -0.2227 -0.9790  0.3095
 2975TIP3    H230417  -0.009   4.310  16.968  1.1155 -0.6949  0.8174
 2976TIP3   OH230418   2.082   4.771   4.711 -0.2687 -0.4182  0.1613
 2976TIP3    H130419   2.143   4.806   4.775  0.1802  1.7438 -1.4212
 2976TIP3    H230420   2.002   4.822   4.723 -0.9717 -1.5896  0.5617
 2977TIP3   OH230421   2.243   3.797   1.221  0.2175 -0.6310  0.0623
 2977TIP3    H130422   2.247   3.852   1.143  0.5936  0.7062  1.0157
 2977TIP3    H230423   2.154   3.808   1.254 -0.2086 -1.8527 -0.6229
 2978TIP3   OH230424   4.929   6.518  12.087  0.1941 -0.1088  0.3784
 2978TIP3    H130425   4.996   6.451  12.076  1.3677  0.9826  0.6992
 2978TIP3    H230426   4.958   6.590  12.031 -0.8017  0.3088  0.3920
 2979TIP3   OH230427   1.067   5.084   3.716  0.2013  0.1601 -0.0392
 2979TIP3    H130428   1.031   4.997   3.726  2.7403 -0.9156  0.1387
 2979TIP3    H230429   1.110   5.103   3.799  1.3446  0.7766 -0.7547
 2980TIP3   OH230430   1.667   5.685   4.004 -0.2707  0.1670 -0.2973
 2980TIP3    H130431   1.627   5.762   3.963  2.4242  1.1929 -1.1070
 2980TIP3    H230432   1.639   5.690   4.096  1.8545  3.5581  0.2547
 2981TIP3   OH230433   6.604   4.005   0.773 -0.1286  0.6586 -0.4334
 2981TIP3    H130434   6.632   4.096   0.761  0.7686  0.4558  0.1145
 2981TIP3    H230435   6.597   3.971   0.684  1.1580  0.7722 -0.5843
 2982TIP3   OH230436   5.017   2.195  12.407 -0.0384  0.3956  0.0327
 2982TIP3    H130437   4.934   2.194  12.360  0.5430 -0.3220 -0.9775
 2982TIP3    H230438   5.035   2.103  12.426  0.7749  0.5128 -0.1786
 2983TIP3   OH230439   0.888   3.172   4.705  0.0824  0.0543 -0.3611
 2983TIP3    H130440   0.844   3.253   4.732  0.0392  0.2598 -1.0377
 2983TIP3    H230441   0.907   3.186   4.613  0.2785 -0.6219 -0.4191
 2984TIP3   OH230442   5.257   3.979  16.972 -0.0864  0.3572  0.1343
 2984TIP3    H130443   5.334   4.016  17.014 -0.7968 -0.2557  2.0541
 2984TIP3    H230444   5.185   3.999  17.032 -0.9793 -1.4217 -0.2862
 2985TIP3   OH230445   0.401   0.384   3.032 -0.2995  0.2648 -0.2012
 2985TIP3    H130446   0.356   0.304   3.056 -2.1817  1.5407  0.6724
 2985TIP3    H230447   0.373   0.448   3.098  2.4112  1.2368  0.0706
 2986TIP3   OH230448   2.644   0.251  17.157 -0.5866 -0.4132 -0.1385
 2986TIP3    H130449   2.661   0.225  17.248  1.1047 -0.8602 -0.5676
 2986TIP3    H230450   2.568   0.199  17.132  0.0220 -1.6233  0.4632
 2987TIP3   OH230451   2.395   0.245  13.598 -0.0466 -0.0067  0.0146
 2987TIP3    H130452   2.485   0.275  13.595  0.1946 -0.5632  1.6148
 2987TIP3    H230453   2.356   0.289  13.673 -1.4532  1.1260 -1.3340
 2988TIP3   OH230454   4.868   2.051  16.688  0.3110  0.0723  0.0033
 2988TIP3    H130455   4.891   2.060  16.596  0.5786 -1.3121 -0.0730
 2988TIP3    H230456   4.789   2.105  16.698  0.8414  1.0113 -0.8006
 2989TIP3   OH230457   0.233   2.654   4.637 -0.3209 -0.1505  0.1501
 2989TIP3    H130458   0.323   2.648   4.604 -0.5851 -2.0794 -0.2790
 2989TIP3    H230459   0.231   2.736   4.686  1.8143 -0.3130  0.5754
 2990TIP3   OH230460   0.577   4.804   2.262 -0.3254  0.2912  0.7817
 2990TIP3    H130461   0.616   4.786   2.347 -1.2631 -0.4867  1.0487
 2990TIP3    H230462   0.483   4.789   2.274 -0.5484  0.8042 -0.2197
 2991TIP3   OH230463   1.322   4.614   3.911  0.3427  0.2107  0.1588
 2991TIP3    H130464   1.401   4.577   3.951  0.6409  0.4767 -0.1876
 2991TIP3    H230465   1.349   4.638   3.823  0.1837  1.3945  0.4295
 2992TIP3   OH230466   1.567   6.510  14.594 -0.3889  0.3457 -0.2988
 2992TIP3    H130467   1.543   6.418  14.582 -0.0644  0.1945  0.1704
 2992TIP3    H230468   1.655   6.506  14.632 -0.4508  0.8459 -0.1082
 2993TIP3   OH230469   6.674   6.384   4.538  0.8568 -0.0380 -0.1950
 2993TIP3    H130470   6.585   6.353   4.555  0.8642  0.6462  1.1173
 2993TIP3    H230471   6.686   6.371   4.444 -0.7501  0.1644 -0.4378
 2994TIP3   OH230472   5.968   5.771  10.586  0.2908  0.1882 -0.4628
 2994TIP3    H130473   6.039   5.707  10.593  0.1072 -0.0615 -0.8038
 2994TIP3    H230474   5.903   5.728  10.529 -0.1570  0.3883 -0.1099
 2995TIP3   OH230475   1.622   2.538   3.922 -0.2244 -0.0417 -0.6186
 2995TIP3    H130476   1.556   2.539   3.853 -0.8438 -1.0207 -0.0610
 2995TIP3    H230477   1.701   2.505   3.880 -0.3700  0.1796 -1.0624
 2996TIP3   OH230478   2.933   2.379   1.186  0.3411  0.2005 -0.6926
 2996TIP3    H130479   2.893   2.303   1.144 -2.5674 -0.2306  2.6292
 2996TIP3    H230480   2.935   2.446   1.117  1.1393 -2.2280 -3.1128
 2997TIP3   OH230481   6.245   0.153  14.118  0.1406 -0.1524  0.3348
 2997TIP3    H130482   6.217   0.215  14.185 -1.6733 -0.4227 -0.1461
 2997TIP3    H230483   6.252   0.205  14.038  0.5979 -0.1768  0.3578
 2998TIP3   OH230484   4.190   5.536  15.909  0.4966  0.7577 -0.5509
 2998TIP3    H130485   4.193   5.465  15.844  2.0275 -1.1361  1.5362
 2998TIP3    H230486   4.099   5.536  15.940  0.2437  0.3832 -1.2669
 2999TIP3   OH230487   1.973   3.288   2.252  0.6489 -0.2931 -0.0403
 2999TIP3    H130488   2.026   3.366   2.269 -1.1541  0.9673 -0.0057
 2999TIP3    H230489   1.901   3.320   2.198 -1.2294 -1.5177  1.6627
 3000TIP3   OH230490   1.263   0.152   6.399 -0.0994 -0.3092  0.6082
 3000TIP3    H130491   1.338   0.177   6.346  1.1406 -0.5113  2.2381
 3000TIP3    H230492   1.222   0.080   6.350 -0.7951  1.5141 -1.5842
 3001TIP3   OH230493   0.833   5.489   1.317 -0.8589  0.1931  0.2903
 3001TIP3    H130494   0.799   5.402   1.295 -1.3578  0.4018  0.2385
 3001TIP3    H230495   0.763   5.550   1.293 -0.6824  0.5745  0.7209
 3002TIP3   OH230496   6.657   1.332   1.233 -0.6347 -0.3577 -0.0498
 3002TIP3    H130497   6.674   1.327   1.327  0.0875 -0.5895 -0.1873
 3002TIP3    H230498   6.709   1.261   1.195  1.6849  1.7336 -0.9760
 3003TIP3   OH230499   1.933   6.214   6.171 -0.0159  0.3111 -0.1656
 3003TIP3    H130500   1.939   6.175   6.084  2.9554  1.4963 -0.5715
 3003TIP3    H230501   1.928   6.139   6.231 -1.8399 -0.5091 -1.3042
 3004TIP3   OH230502   4.824   4.380  16.446 -0.5877  0.2298  0.2169
 3004TIP3    H130503   4.899   4.352  16.393 -0.6391  1.5890 -0.6089
 3004TIP3    H230504   4.819   4.316  16.516  2.4657  1.1168  1.3225
 3005TIP3   OH230505   4.716   2.451   3.969  0.3862 -0.3862  0.5608
 3005TIP3    H130506   4.797   2.413   4.004  0.0916 -1.1015  0.4698
 3005TIP3    H230507   4.746   2.510   3.900  0.9829  1.1165  2.0559
 3006TIP3   OH230508   5.617   2.826  13.889  0.1915 -0.3680 -0.6450
 3006TIP3    H130509   5.675   2.813  13.813 -1.8217  0.9487 -2.4752
 3006TIP3    H230510   5.542   2.768  13.871 -1.3812  1.6861 -0.8404
 3007TIP3   OH230511   0.842   3.155  10.968 -0.2204 -0.6009  0.2412
 3007TIP3    H130512   0.770   3.163  10.906  0.3855 -0.5015 -0.4520
 3007TIP3    H230513   0.905   3.097  10.925  0.5658  0.1101  0.4158
 3008TIP3   OH230514   4.091   0.807  14.433  0.2068  0.2934 -0.3516
 3008TIP3    H130515   4.007   0.810  14.478  0.1970  1.4457 -0.4169
 3008TIP3    H230516   4.090   0.726  14.382  0.0848 -0.8618  1.4684
 3009TIP3   OH230517   3.538   6.090  13.223 -0.3861  0.2155  0.6455
 3009TIP3    H130518   3.445   6.103  13.204 -0.5591 -0.3298  1.1135
 3009TIP3    H230519   3.545   6.102  13.318 -0.0960 -0.4249  0.7072
 3010TIP3   OH230520   5.939   3.927  11.346  0.3543 -0.1652 -0.2588
 3010TIP3    H130521   5.910   3.904  11.258  1.4791  0.8640 -0.9101
 3010TIP3    H230522   5.863   3.970  11.386  0.3325  0.7180 -1.2520
 3011TIP3   OH230523   3.015   5.684  12.968 -0.6422 -0.0856  0.1553
 3011TIP3    H130524   3.103   5.715  12.947 -1.6911  2.5930 -0.5397
 3011TIP3    H230525   3.011   5.596  12.930  1.4522  0.0718 -0.5145
 3012TIP3   OH230526   6.483   1.007   4.030 -0.2767  0.4448 -0.4565
 3012TIP3    H130527   6.474   0.927   4.081 -0.0993  0.6132 -0.1634
 3012TIP3    H230528   6.572   1.004   3.995 -0.2238  0.5824 -0.3326
 3013TIP3   OH230529   5.126   3.948   1.801  0.1724  0.0410  0.5963
 3013TIP3    H130530   5.203   4.004   1.806  0.4546 -0.3324  0.4494
 3013TIP3    H230531   5.061   4.001   1.755 -0.3985  1.1842  2.6442
 3014TIP3   OH230532   3.708   2.536  14.117  0.0527  0.6694 -0.3554
 3014TIP3    H130533   3.748   2.529  14.031  1.8416  0.0750  0.4946
 3014TIP3    H230534   3.778   2.514  14.178 -1.4558  0.0399  1.2095
 3015TIP3   OH230535   4.267   4.423  12.935 -0.0626 -0.3670  0.6469
 3015TIP3    H130536   4.293   4.436  12.844 -0.3607  1.3316  0.7940
 3015TIP3    H230537   4.182   4.380  12.930 -0.0586 -0.3194  0.1336
 3016TIP3   OH230538   4.621   5.249  17.094  0.1100 -0.1597  0.3098
 3016TIP3    H130539   4.534   5.209  17.095 -0.3390  0.6642 -2.0047
 3016TIP3    H230540   4.667   5.203  17.024  0.1667  2.1192 -1.2060
 3017TIP3   OH230541   3.709   6.541  14.375  0.3875 -0.7664  0.1211
 3017TIP3    H130542   3.717   6.622  14.426  0.5796 -0.5755 -0.2099
 3017TIP3    H230543   3.762   6.478  14.423  0.1912 -0.7125  0.4116
 3018TIP3   OH230544   4.156   5.474   2.876  0.5894 -0.1238 -0.6118
 3018TIP3    H130545   4.163   5.383   2.846  2.6122  0.3754 -1.7702
 3018TIP3    H230546   4.062   5.492   2.875  0.1747 -2.1237 -0.5887
 3019TIP3   OH230547   1.134   6.676   1.550 -0.7429 -0.0203 -0.7181
 3019TIP3    H130548   1.076   6.713   1.483 -0.0193 -1.0999 -1.9547
 3019TIP3    H230549   1.153   6.588   1.519  1.1075  0.1196 -0.0156
 3020TIP3   OH230550   1.618   0.832  12.570 -0.4703  0.1017 -0.1371
 3020TIP3    H130551   1.565   0.895  12.620  0.5338  0.7563  0.1100
 3020TIP3    H230552   1.587   0.841  12.480  1.9101  3.3705 -0.7289
 3021TIP3   OH230553   0.963   2.987   2.083  0.2561 -0.5680  0.2559
 3021TIP3    H130554   0.906   3.049   2.129  0.5580 -0.7454  0.8705
 3021TIP3    H230555   0.907   2.949   2.016 -0.1721 -0.2706  0.4407
 3022TIP3   OH230556   3.737   4.435  10.685 -0.4318  0.9753  0.0564
 3022TIP3    H130557   3.746   4.530  10.682  0.2567  0.8731 -2.3802
 3022TIP3    H230558   3.677   4.414  10.614  0.8913 -0.5474 -0.6587
 3023TIP3   OH230559   2.154   3.664  13.074 -0.3473  0.5741 -0.0560
 3023TIP3    H130560   2.204   3.739  13.107 -0.9385  1.0287 -0.1664
 3023TIP3    H230561   2.198   3.588  13.110 -1.4693  1.0745  2.5116
 3024TIP3   OH230562   3.956   4.004  11.463 -0.1154  0.1486  0.1265
 3024TIP3    H130563   4.001   4.033  11.542 -2.3124  0.3228  1.3672
 3024TIP3    H230564   3.988   3.915  11.449 -0.1048 -0.0920  1.5427
 3025TIP3   OH230565   0.236   4.920  12.382  0.0774 -0.5698 -0.1094
 3025TIP3    H130566   0.192   4.845  12.342 -1.6690  0.9280 -1.0619
 3025TIP3    H230567   0.167   4.985  12.393  1.7291  1.2112 -0.0771
 3026TIP3   OH230568   4.208   4.245  13.447 -0.7599 -0.0831  0.3140
 3026TIP3    H130569   4.248   4.183  13.509 -2.1537 -0.7310  0.5991
 3026TIP3    H230570   4.241   4.330  13.474 -0.0831 -0.5389  0.9540
 3027TIP3   OH230571   2.842   0.396  15.278 -0.4125 -0.3108 -0.5845
 3027TIP3    H130572   2.757   0.383  15.236 -1.3805  0.3906  1.1236
 3027TIP3    H230573   2.845   0.489  15.300  0.3612 -0.5200  0.2547
 3028TIP3   OH230574   0.326   6.462   3.284  0.2130 -0.0104 -0.3308
 3028TIP3    H130575   0.316   6.369   3.262  0.9216 -0.0471 -0.5157
 3028TIP3    H230576   0.280   6.472   3.367 -2.7378  0.1879 -1.9316
 3029TIP3   OH230577   2.218   3.217  14.637 -0.5062 -0.4552 -0.1752
 3029TIP3    H130578   2.274   3.221  14.559  0.1980  2.5010  0.4390
 3029TIP3    H230579   2.277   3.234  14.710 -1.9545  1.4989  0.5885
 3030TIP3   OH230580   4.372   1.211   4.395  0.4720 -0.4225 -0.2965
 3030TIP3    H130581   4.376   1.134   4.339 -0.7960 -0.7506  0.0662
 3030TIP3    H230582   4.288   1.252   4.374  0.1000 -0.4091  1.2040
 3031TIP3   OH230583   6.335   4.269   4.109 -0.1996 -0.6505 -0.3237
 3031TIP3    H130584   6.307   4.298   4.196  0.7650  0.9621 -0.5249
 3031TIP3    H230585   6.256   4.233   4.069 -0.8347 -0.6875  0.9128
 3032TIP3   OH230586   2.424   2.174  10.855  0.3388  0.3614  0.0373
 3032TIP3    H130587   2.357   2.108  10.837 -0.9972  1.8184 -0.4214
 3032TIP3    H230588   2.399   2.211  10.940  0.3906  1.0933 -0.2593
 3033TIP3   OH230589   6.485   2.519  13.140 -0.5564  0.1016  0.3294
 3033TIP3    H130590   6.455   2.432  13.166  0.2898  0.2391  1.8733
 3033TIP3    H230591   6.559   2.503  13.083 -1.4251 -0.1992 -0.7295
 3034TIP3   OH230592   4.757   6.797   3.862 -0.4832  0.6605  0.6328
 3034TIP3    H130593   4.812   6.791   3.784  1.0598  2.8720  1.5068
 3034TIP3    H230594   4.685   6.737   3.845  1.7090 -1.6138 -0.9484
 3035TIP3   OH230595   1.260   2.644  12.770  0.2675  0.1727  0.0910
 3035TIP3    H130596   1.187   2.651  12.831  0.0857 -0.2464 -0.0765
 3035TIP3    H230597   1.336   2.626  12.825  0.0882 -0.2905  0.1921
 3036TIP3   OH230598   4.058   1.666   1.061  0.5481 -0.3767 -0.4303
 3036TIP3    H130599   3.999   1.734   1.091  1.0369 -0.1237 -0.0352
 3036TIP3    H230600   4.063   1.678   0.966  1.6933  1.0003 -0.2100
 3037TIP3   OH230601   3.494   1.103  13.468  0.4615 -0.4712  0.3424
 3037TIP3    H130602   3.475   1.170  13.402 -0.8581  0.1024  1.2776
 3037TIP3    H230603   3.407   1.077  13.500  0.9852 -2.3236  0.2879
 3038TIP3   OH230604   5.044   3.327  13.184  0.2975  0.2264  0.0936
 3038TIP3    H130605   5.049   3.419  13.208  1.0792  0.3208 -0.4258
 3038TIP3    H230606   4.955   3.300  13.209  0.2636  0.9686  0.7599
 3039TIP3   OH230607   3.405   0.088  15.735 -0.1941 -0.2903 -0.4713
 3039TIP3    H130608   3.368   0.071  15.648  1.0202 -0.7380 -0.9048
 3039TIP3    H230609   3.332   0.124  15.785 -0.3493  2.0704 -2.3185
 3040TIP3   OH230610   6.164   3.750   2.665 -0.3296  0.7580 -0.3787
 3040TIP3    H130611   6.113   3.693   2.723 -0.7603  1.1233 -0.3926
 3040TIP3    H230612   6.157   3.708   2.579  1.1830 -0.3548  0.0199
 3041TIP3   OH230613   4.376   5.032  12.698  0.0478 -0.4721 -0.3632
 3041TIP3    H130614   4.346   5.123  12.709 -1.0456 -0.8259 -0.3461
 3041TIP3    H230615   4.414   5.031  12.610 -0.0981 -0.0374 -0.4365
 3042TIP3   OH230616   4.724   3.220   5.882 -0.8423 -0.7462 -0.0870
 3042TIP3    H130617   4.632   3.232   5.857 -0.5750 -0.4415 -0.9391
 3042TIP3    H230618   4.756   3.151   5.824 -0.9926 -2.0688  1.3835
 3043TIP3   OH230619   4.515   5.252  15.092  0.6327  0.6687  0.5262
 3043TIP3    H130620   4.562   5.190  15.035  0.7177 -0.4107  1.7468
 3043TIP3    H230621   4.520   5.212  15.179  0.9915  2.5772  1.3945
 3044TIP3   OH230622   2.903   2.317  14.182  0.5027  0.1059  0.1912
 3044TIP3    H130623   2.990   2.293  14.151 -0.0036 -0.5188 -0.7826
 3044TIP3    H230624   2.861   2.233  14.201  0.1341  0.4097  0.7123
 3045TIP3   OH230625   4.784   5.260   1.541  0.0281  0.6463  0.4558
 3045TIP3    H130626   4.759   5.281   1.451 -0.7241  1.6381  0.8853
 3045TIP3    H230627   4.836   5.180   1.533 -1.6399 -0.3684 -0.6700
 3046TIP3   OH230628   0.843   2.283   1.339 -0.4570  0.5004 -0.3438
 3046TIP3    H130629   0.783   2.357   1.344 -1.2046 -0.0436 -1.0736
 3046TIP3    H230630   0.788   2.209   1.313  0.2042 -0.4028  0.7632
 3047TIP3   OH230631   4.601   4.010   5.139 -0.3091 -0.0451 -0.3750
 3047TIP3    H130632   4.575   3.934   5.087  2.4628 -0.7122 -0.9043
 3047TIP3    H230633   4.697   4.007   5.138 -0.1693  2.9036  0.4205
 3048TIP3   OH230634   3.409   5.813  13.857  0.2160  0.2053  0.2694
 3048TIP3    H130635   3.435   5.731  13.898  0.7635 -0.0575 -0.5896
 3048TIP3    H230636   3.397   5.791  13.764  0.3778  1.0919  0.0303
 3049TIP3   OH230637   6.098   0.714   0.381  0.2426  0.1517 -0.3071
 3049TIP3    H130638   6.140   0.714   0.296  0.9479 -0.6627  0.0255
 3049TIP3    H230639   6.030   0.646   0.374 -0.2682  0.6822 -0.4910
 3050TIP3   OH230640   4.308   1.176  10.508 -0.3508 -0.0587 -0.0508
 3050TIP3    H130641   4.371   1.242  10.478  0.6460 -0.9235  0.1141
 3050TIP3    H230642   4.263   1.219  10.581 -0.5186  0.8648 -0.6904
 3051TIP3   OH230643   0.566   4.627   5.949 -0.1358  0.7028 -0.1430
 3051TIP3    H130644   0.499   4.689   5.922 -1.8726 -0.9737  0.1865
 3051TIP3    H230645   0.593   4.584   5.867 -1.5929 -0.6617  0.0669
 3052TIP3   OH230646   6.379   3.179   1.610  0.3917  0.3112 -0.1852
 3052TIP3    H130647   6.413   3.246   1.670  1.5429  0.6308 -1.1554
 3052TIP3    H230648   6.293   3.156   1.645  0.7039  1.0673  1.1232
 3053TIP3   OH230649   0.926   1.785   2.135  0.3452  0.4100  0.2893
 3053TIP3    H130650   0.901   1.876   2.151 -1.4939  0.1804 -1.0971
 3053TIP3    H230651   0.969   1.757   2.216  0.5316  2.3715  0.8865
 3054TIP3   OH230652   5.811   6.191   3.845 -0.1115  0.4347  0.0942
 3054TIP3    H130653   5.902   6.220   3.849 -0.3195  0.9873  0.9476
 3054TIP3    H230654   5.762   6.267   3.813 -0.1876 -0.0617 -0.9821
 3055TIP3   OH230655   3.643   6.046  10.731  0.7522 -0.3403 -0.1291
 3055TIP3    H130656   3.637   6.018  10.639  0.5848 -0.0400 -0.2086
 3055TIP3    H230657   3.624   5.967  10.781  0.1016 -0.3290 -0.3540
 3056TIP3   OH230658   0.774   2.631  11.806 -0.5309  0.2035 -0.2442
 3056TIP3    H130659   0.862   2.606  11.835 -0.5641 -1.3714 -1.4290
 3056TIP3    H230660   0.766   2.724  11.829  1.4125  0.3436 -0.0946
 3057TIP3   OH230661   4.387   6.429  17.112  0.4460  0.3324  0.3340
 3057TIP3    H130662   4.297   6.426  17.145 -0.0821 -2.2411 -1.2485
 3057TIP3    H230663   4.440   6.388  17.181  0.0832 -0.2679  0.2552
 3058TIP3   OH230664   1.553   3.370   5.761  0.1604 -0.1120 -0.3317
 3058TIP3    H130665   1.630   3.394   5.812  1.0380 -1.6289 -0.9133
 3058TIP3    H230666   1.547   3.437   5.693  1.3466 -0.3423 -0.6771
 3059TIP3   OH230667   4.144   4.443   0.813 -0.2602 -0.0336 -0.3326
 3059TIP3    H130668   4.162   4.349   0.808  2.3395  0.4397 -0.6310
 3059TIP3    H230669   4.117   4.457   0.903  0.4426 -0.9004  0.0221
 3060TIP3   OH230670   1.935   6.242   2.531 -0.3430  0.1481 -0.0858
 3060TIP3    H130671   1.839   6.240   2.529 -0.3232  0.1263 -0.8785
 3060TIP3    H230672   1.956   6.293   2.609 -0.9981  0.3229 -0.0211
 3061TIP3   OH230673   5.212   4.598   4.351  0.0892 -0.5070 -0.1012
 3061TIP3    H130674   5.220   4.635   4.439  0.8473 -1.2412  0.1511
 3061TIP3    H230675   5.225   4.672   4.292  2.4030 -0.4871  0.3795
 3062TIP3   OH230676   5.615   5.973  14.910  0.3575 -0.1827  0.7009
 3062TIP3    H130677   5.572   5.899  14.953 -0.3840  0.7500  1.6108
 3062TIP3    H230678   5.543   6.033  14.888  0.8974  0.0508 -0.4573
 3063TIP3   OH230679   2.587   0.919  14.491  0.4488  1.0523  0.5011
 3063TIP3    H130680   2.577   0.826  14.508  0.2125  0.9331 -0.2712
 3063TIP3    H230681   2.619   0.924  14.401  0.1006  1.7273  0.4069
 3064TIP3   OH230682   3.985   5.259   5.811  0.0938  0.4274 -0.0062
 3064TIP3    H130683   4.073   5.260   5.849 -0.5760 -1.7391  1.7198
 3064TIP3    H230684   3.973   5.347   5.776  2.3575  1.2275  1.1388
 3065TIP3   OH230685   4.245   5.688  12.187  0.0554 -0.1570  0.7472
 3065TIP3    H130686   4.334   5.674  12.154  0.0672  0.1979  0.6356
 3065TIP3    H230687   4.207   5.752  12.128 -0.7039 -1.2337  0.0565
 3066TIP3   OH230688   1.902   0.469  12.050  0.4747 -0.6040 -0.1659
 3066TIP3    H130689   1.990   0.447  12.020  0.2720 -0.9554 -0.5124
 3066TIP3    H230690   1.866   0.525  11.982  1.1285  1.1498  0.8991
 3067TIP3   OH230691   0.106   2.796   3.327  0.1718  0.2131 -0.0555
 3067TIP3    H130692   0.128   2.780   3.419 -0.1414 -0.0295 -0.0234
 3067TIP3    H230693   0.053   2.721   3.301  1.0950 -0.2306 -0.7256
 3068TIP3   OH230694   4.678   1.876  15.701 -0.0458 -0.2291 -0.4221
 3068TIP3    H130695   4.717   1.795  15.668 -0.3951 -0.0093 -1.3738
 3068TIP3    H230696   4.593   1.882  15.659 -0.7265 -0.2040  0.9173
 3069TIP3   OH230697   3.145   6.815   5.433 -0.4589 -0.2871 -0.3181
 3069TIP3    H130698   3.193   6.732   5.431 -0.4484 -0.3308  1.1681
 3069TIP3    H230699   3.056   6.791   5.457  0.2972  0.4224  3.5149
 3070TIP3   OH230700   1.163   5.241   1.991  0.2932 -0.9134  0.1055
 3070TIP3    H130701   1.216   5.169   2.026  0.9316 -0.4800  0.0262
 3070TIP3    H230702   1.226   5.302   1.953 -0.2855 -0.5884 -0.3506
 3071TIP3   OH230703   3.324   4.867  13.177  0.5849 -0.6131 -0.6749
 3071TIP3    H130704   3.380   4.914  13.240  1.8399 -1.0156 -1.4780
 3071TIP3    H230705   3.332   4.775  13.202 -2.3213 -0.4312  1.2548
 3072TIP3   OH230706   5.870   3.265   1.808  0.1523 -0.6061  0.3011
 3072TIP3    H130707   5.799   3.204   1.829 -1.3697  1.1967  0.4674
 3072TIP3    H230708   5.942   3.239   1.866 -0.5184 -2.1541  0.4588
 3073TIP3   OH230709   3.176   0.809  16.795 -0.3269 -0.2433 -0.0958
 3073TIP3    H130710   3.258   0.850  16.766 -0.9790  1.3478  0.2132
 3073TIP3    H230711   3.202   0.724  16.829  0.9087 -0.6964 -2.0912
 3074TIP3   OH230712   6.168   1.958   0.140 -0.4841 -0.6202  0.3123
 3074TIP3    H130713   6.105   2.030   0.145 -0.0719 -0.1992 -0.5684
 3074TIP3    H230714   6.177   1.940   0.046  1.2139 -0.2336  0.3874
 3075TIP3   OH230715   5.460   3.840   0.219  0.1260 -0.1307 -0.3220
 3075TIP3    H130716   5.396   3.867   0.286  0.0637 -1.8856  0.3539
 3075TIP3    H230717   5.533   3.901   0.230 -0.7585  0.9082 -0.0563
 3076TIP3   OH230718   3.046   4.686   4.861  0.2803 -0.2326 -0.3710
 3076TIP3    H130719   3.056   4.743   4.785 -0.8652 -1.3819 -1.4121
 3076TIP3    H230720   3.025   4.601   4.824 -0.2874 -0.8083  1.2447
 3077TIP3   OH230721   6.499   4.067  16.592  0.2758 -0.1527 -0.0422
 3077TIP3    H130722   6.428   4.020  16.637  0.0520  0.2737  0.0583
 3077TIP3    H230723   6.462   4.089  16.507  1.8201 -3.8821 -1.7801
 3078TIP3   OH230724   3.099   4.722  12.526 -0.1573 -0.2828  0.0757
 3078TIP3    H130725   3.060   4.780  12.461  1.8471  0.5566 -0.4118
 3078TIP3    H230726   3.152   4.661  12.475  0.8182 -0.0922  0.8329
 3079TIP3   OH230727   6.045   0.152   0.766 -0.1471 -0.0329 -0.6554
 3079TIP3    H130728   5.975   0.090   0.746  1.0446 -1.5157 -0.2969
 3079TIP3    H230729   6.035   0.221   0.699 -0.8197 -1.1299 -1.7135
 3080TIP3   OH230730   2.493   2.436  12.710  0.0832 -0.1737  0.0867
 3080TIP3    H130731   2.435   2.365  12.684  1.0786 -1.3851  1.1503
 3080TIP3    H230732   2.581   2.399  12.709  0.6298  1.0491  0.5852
 3081TIP3   OH230733   1.172   4.710  12.686 -0.8122 -0.4846  0.1763
 3081TIP3    H130734   1.159   4.710  12.781 -2.7145  1.2232 -0.0330
 3081TIP3    H230735   1.266   4.722  12.674 -0.7002  0.4981  1.8687
 3082TIP3   OH230736   4.433   4.095  16.824 -0.0969 -0.3325  0.0803
 3082TIP3    H130737   4.388   4.100  16.909  0.4050 -1.2027  0.4115
 3082TIP3    H230738   4.521   4.131  16.842 -0.0384 -0.3829 -0.1073
 3083TIP3   OH230739   1.062   1.465  15.143  0.1368 -0.3837 -0.1794
 3083TIP3    H130740   0.988   1.526  15.133  0.1682 -0.1215  1.0171
 3083TIP3    H230741   1.089   1.476  15.234  1.2821 -0.9128 -0.4477
 3084TIP3   OH230742   3.010   0.711   1.863  0.1815  0.0457 -0.3090
 3084TIP3    H130743   2.957   0.646   1.910  1.2805  0.1607  1.1082
 3084TIP3    H230744   2.999   0.792   1.913 -1.3160  1.0421 -2.1576
 3085TIP3   OH230745   1.490   1.013  13.119  0.3724  0.2120 -0.1142
 3085TIP3    H130746   1.480   1.075  13.046 -1.6064  0.1755  0.1120
 3085TIP3    H230747   1.426   0.944  13.101  2.1871 -1.5099 -0.0770
 3086TIP3   OH230748   4.444   3.702  13.275  0.0763  0.1282 -0.0178
 3086TIP3    H130749   4.372   3.760  13.251 -0.5963 -0.5274  0.3909
 3086TIP3    H230750   4.484   3.744  13.352 -1.3485 -0.7008  1.2038
 3087TIP3   OH230751   3.554   5.638  16.992  0.2206  0.0043 -0.5776
 3087TIP3    H130752   3.557   5.583  16.914  1.4675 -0.9590  0.1106
 3087TIP3    H230753   3.465   5.628  17.026  0.7470 -2.5535  0.1795
 3088TIP3   OH230754   4.444   1.707  12.560  0.0996 -0.4767 -0.0895
 3088TIP3    H130755   4.393   1.779  12.523 -0.0761 -0.4721  0.1609
 3088TIP3    H230756   4.479   1.660  12.484  1.2657  0.6215 -0.2561
 3089TIP3   OH230757   2.756   2.045  17.193  0.1694  0.0108  0.3580
 3089TIP3    H130758   2.767   2.130  17.150  1.1444 -0.3750 -0.1693
 3089TIP3    H230759   2.677   2.055  17.246  0.8987  1.6044  1.1774
 3090TIP3   OH230760   5.656   4.832   4.840  0.3354 -0.0505  0.1201
 3090TIP3    H130761   5.572   4.850   4.882  0.8477  1.8828  0.3567
 3090TIP3    H230762   5.716   4.818   4.913  0.4658 -0.2690 -0.0303
 3091TIP3   OH230763   3.028   1.032  13.307 -0.7992  0.1023 -0.4591
 3091TIP3    H130764   2.936   1.050  13.329 -0.3796 -1.1700  2.6779
 3091TIP3    H230765   3.033   0.936  13.306  0.4239  0.1682 -0.9339
 3092TIP3   OH230766   3.034   1.949   4.038  0.0292 -0.2843  0.1158
 3092TIP3    H130767   3.117   1.941   3.991  0.9362  3.0102  1.0271
 3092TIP3    H230768   2.967   1.944   3.970  1.0013 -1.6618 -0.7736
 3093TIP3   OH230769   1.283   4.647   5.330 -0.5398 -0.3509  0.0186
 3093TIP3    H130770   1.364   4.639   5.380  0.3747 -0.5945 -1.4555
 3093TIP3    H230771   1.231   4.711   5.378  0.2587 -0.6705  1.3299
 3094TIP3   OH230772   5.140   2.875  16.643 -0.2516  0.2594  0.2758
 3094TIP3    H130773   5.083   2.840  16.574  1.7272  0.4283 -1.5051
 3094TIP3    H230774   5.092   2.949  16.678 -1.7476 -0.4476 -0.2204
 3095TIP3   OH230775   0.250   4.007   3.124  0.1610  0.0002 -0.8366
 3095TIP3    H130776   0.260   4.091   3.168 -1.1991 -0.6880  0.8850
 3095TIP3    H230777   0.306   3.947   3.174  0.0592 -0.3993 -1.1980
 3096TIP3   OH230778   4.266   6.555   4.261  0.0711  0.4360  0.1785
 3096TIP3    H130779   4.349   6.602   4.272  0.5595 -0.1238 -1.0376
 3096TIP3    H230780   4.228   6.591   4.181 -0.7562  0.5361  0.6143
 3097TIP3   OH230781   5.960   5.247   0.460 -1.1243 -0.2234 -0.2488
 3097TIP3    H130782   5.931   5.220   0.547 -0.5029  0.2801  0.1185
 3097TIP3    H230783   5.956   5.167   0.407 -0.2623 -0.8095  0.5734
 3098TIP3   OH230784   4.825   5.011   2.219  0.0090  0.5739 -0.5594
 3098TIP3    H130785   4.845   5.099   2.185  0.9714  0.4340 -0.3709
 3098TIP3    H230786   4.862   5.011   2.308  1.9750 -0.7519 -1.3470
 3099TIP3   OH230787   5.413   0.972  15.927 -0.0074  0.2012 -0.0789
 3099TIP3    H130788   5.429   0.909  15.997  0.3895  0.7270  0.3054
 3099TIP3    H230789   5.359   1.039  15.966 -2.5924 -1.1739 -1.1730
 3100TIP3   OH230790   6.032   6.332   1.619  0.4550 -0.7318 -0.2741
 3100TIP3    H130791   5.961   6.349   1.557  1.8772  0.2487 -1.6394
 3100TIP3    H230792   6.001   6.257   1.670 -1.5081 -0.4030 -0.9359
 3101TIP3   OH230793   0.486   3.755  16.414 -0.3372 -0.3299 -0.0839
 3101TIP3    H130794   0.494   3.753  16.509 -2.2941 -0.0415  0.1005
 3101TIP3    H230795   0.574   3.732  16.382  0.3501 -0.3691  1.7721
 3102TIP3   OH230796   2.056   0.730  16.642 -0.1168  0.2842  0.1610
 3102TIP3    H130797   2.059   0.709  16.735 -2.0692  1.9820  0.6333
 3102TIP3    H230798   2.146   0.749  16.619  0.5487 -1.1638  1.4390
 3103TIP3   OH230799   6.616   2.381  15.755 -0.3894 -0.3045  0.1048
 3103TIP3    H130800   6.559   2.406  15.828 -0.4640 -0.7274  0.1959
 3103TIP3    H230801   6.694   2.346  15.797 -0.3470 -0.3601 -0.0206
 3104TIP3   OH230802   6.252   0.797  16.768  0.1866 -0.0538  0.8371
 3104TIP3    H130803   6.314   0.826  16.701 -2.6924 -2.0683 -2.8541
 3104TIP3    H230804   6.203   0.876  16.791  0.9183  0.5770  0.2640
 3105TIP3   OH230805   6.784   0.395  16.151 -0.4694 -0.3588 -0.5401
 3105TIP3    H130806   6.741   0.351  16.078  1.2381 -0.5738 -1.4454
 3105TIP3    H230807   6.750   0.484  16.148 -1.3527 -0.6945 -0.8219
 3106TIP3   OH230808   4.429   5.995   2.157  0.0589 -0.4494  0.2121
 3106TIP3    H130809   4.340   5.961   2.163 -0.2455  0.2291 -0.3237
 3106TIP3    H230810   4.454   6.014   2.248 -0.5180 -0.1962  0.3179
 3107TIP3   OH230811   0.881   6.168   2.893  0.1637 -0.2695  0.5123
 3107TIP3    H130812   0.834   6.093   2.931 -0.1051 -1.3124 -1.7800
 3107TIP3    H230813   0.813   6.233   2.878 -0.2653 -1.0292 -0.9730
 3108TIP3   OH230814   1.386   5.650   1.231  0.5126 -0.3086 -0.4395
 3108TIP3    H130815   1.394   5.633   1.137 -1.2724 -0.4899 -0.5883
 3108TIP3    H230816   1.349   5.738   1.237 -1.0774 -0.9798  0.0234
 3109TIP3   OH230817   0.208   3.524  13.692  0.3915  0.1713 -0.2755
 3109TIP3    H130818   0.142   3.519  13.760  0.9780 -1.1511  0.2096
 3109TIP3    H230819   0.170   3.477  13.618  0.9049 -0.8296  0.0988
 3110TIP3   OH230820   1.537   4.548  14.591  0.3933 -0.5584 -0.1754
 3110TIP3    H130821   1.581   4.607  14.530  0.2986  0.3981  0.6895
 3110TIP3    H230822   1.459   4.519  14.544  0.6104 -0.2648 -0.7225
 3111TIP3   OH230823   1.509   0.259   4.062  0.1223  0.3482  0.0636
 3111TIP3    H130824   1.531   0.275   4.154 -1.3441  2.4187  0.0870
 3111TIP3    H230825   1.467   0.340   4.033 -1.9887 -1.2979 -1.6373
 3112TIP3   OH230826   6.776   5.287   2.833 -0.7968 -0.4673  0.3248
 3112TIP3    H130827   6.788   5.235   2.913 -1.2226  1.1106  1.4565
 3112TIP3    H230828   6.681   5.292   2.822 -0.8380  1.4108  1.1894
 3113TIP3   OH230829   5.551   4.343  17.071  0.9779 -0.2705  0.4176
 3113TIP3    H130830   5.499   4.275  17.113  1.1835 -1.0396 -0.5476
 3113TIP3    H230831   5.631   4.298  17.044  1.0086  0.2985 -0.4501
 3114TIP3   OH230832   1.041   5.249   0.336 -0.0285 -0.0986  0.1770
 3114TIP3    H130833   1.093   5.326   0.357 -0.9511  0.3666  0.7574
 3114TIP3    H230834   1.078   5.180   0.392 -0.9695  0.5800  1.6735
 3115TIP3   OH230835   1.638   1.721  15.409 -0.5673 -0.2468 -0.5013
 3115TIP3    H130836   1.668   1.640  15.367  0.5977 -0.3428  0.5111
 3115TIP3    H230837   1.700   1.788  15.380  0.9929 -0.5473  1.9907
 3116TIP3   OH230838   5.707   4.361  12.534  0.6312 -0.3605  0.0999
 3116TIP3    H130839   5.645   4.288  12.530  0.0672 -0.1464  3.3940
 3116TIP3    H230840   5.671   4.426  12.474 -0.9690 -1.2538  0.0561
 3117TIP3   OH230841   2.332   6.151   2.193  0.2960 -0.0092 -0.0536
 3117TIP3    H130842   2.244   6.164   2.227  0.1366  1.5945 -1.0174
 3117TIP3    H230843   2.388   6.147   2.270 -0.3354  1.3253  0.4862
 3118TIP3   OH230844   3.755   2.957   3.773 -0.0124  0.1406 -0.0760
 3118TIP3    H130845   3.847   2.966   3.748  0.6170 -0.2531  1.9788
 3118TIP3    H230846   3.740   3.029   3.834 -1.3604  0.7772 -1.1399
 3119TIP3   OH230847   1.578   1.910  12.825 -0.1970 -0.1281 -0.1263
 3119TIP3    H130848   1.552   1.839  12.766  4.1367 -0.7838 -1.4219
 3119TIP3    H230849   1.572   1.872  12.913 -1.7365 -0.7950 -0.5068
 3120TIP3   OH230850   5.705   2.648  14.135 -0.6264 -0.0610  0.2679
 3120TIP3    H130851   5.701   2.699  14.054 -2.1532  0.6463  0.7596
 3120TIP3    H230852   5.782   2.681  14.180  0.0558 -0.2341 -0.7507
 3121TIP3   OH230853   3.893   0.441  17.251  0.1843 -0.2486  0.3963
 3121TIP3    H130854   3.832   0.385  17.299  0.0354 -0.0012  0.5006
 3121TIP3    H230855   3.979   0.405  17.271  0.0733 -0.6162  0.2313
 3122TIP3   OH230856   4.399   4.565  12.727  0.0745  0.5769  0.0161
 3122TIP3    H130857   4.460   4.639  12.728  0.6497  0.0941  0.4882
 3122TIP3    H230858   4.440   4.500  12.670 -1.1153  1.1868 -1.5940
 3123TIP3   OH230859   2.320   6.556   0.031  0.2837 -0.0044  0.0055
 3123TIP3    H130860   2.281   6.570  -0.056  0.1061 -0.6174 -0.0183
 3123TIP3    H230861   2.249   6.577   0.092  0.1956 -0.2513 -0.0134
 3124TIP3   OH230862   2.906   2.804   0.434 -0.1912 -0.6697  0.4443
 3124TIP3    H130863   2.995   2.837   0.417  0.0399 -1.3728  0.2456
 3124TIP3    H230864   2.848   2.866   0.391  0.2456 -0.5764 -0.0124
 3125TIP3   OH230865   6.292   0.376   3.877  0.6079  0.4963 -0.6739
 3125TIP3    H130866   6.227   0.411   3.815  1.2264  3.7485  0.4576
 3125TIP3    H230867   6.333   0.304   3.829 -1.9254  0.1254 -2.4244
 3126TIP3   OH230868   6.761   3.713   2.994 -0.0459 -0.1311 -0.5242
 3126TIP3    H130869   6.744   3.736   2.903  1.3851 -0.2330 -0.8224
 3126TIP3    H230870   6.856   3.699   2.999  0.3460  2.7921  1.6212
 3127TIP3   OH230871   6.726   5.435   2.320  0.1458  0.7231  0.5632
 3127TIP3    H130872   6.687   5.500   2.379 -0.1399  1.0140  0.0540
 3127TIP3    H230873   6.777   5.487   2.258 -0.4518  0.4991 -0.1245
 3128TIP3   OH230874   3.994   5.927  17.008 -0.7333 -0.3281  0.3919
 3128TIP3    H130875   3.940   5.932  17.087 -1.5952  1.0049 -0.2766
 3128TIP3    H230876   4.079   5.961  17.035 -0.6798 -0.9605  1.0374
 3129TIP3   OH230877   1.889   2.596  16.144  0.3414  0.7432 -0.3314
 3129TIP3    H130878   1.854   2.510  16.165  0.1715  0.2861 -2.4051
 3129TIP3    H230879   1.979   2.595  16.178  0.9715 -0.9338 -1.9875
 3130TIP3   OH230880   1.241   4.999   5.464 -0.3836 -0.4424  0.2452
 3130TIP3    H130881   1.232   4.904   5.456  1.8689 -0.5632 -1.0835
 3130TIP3    H230882   1.198   5.034   5.386 -0.6711 -0.3932  0.4243
 3131TIP3   OH230883   2.553   3.122  14.130 -0.0928 -0.4625  0.1923
 3131TIP3    H130884   2.567   3.216  14.122 -0.7958 -0.5267 -2.3227
 3131TIP3    H230885   2.629   3.083  14.087  0.6344 -1.0800  1.9963
 3132TIP3   OH230886   0.845   5.650   1.020  0.3797  0.3514  0.6149
 3132TIP3    H130887   0.877   5.582   1.081 -0.5740  0.1297  0.8693
 3132TIP3    H230888   0.880   5.623   0.935 -0.7230 -0.9469  0.5591
 3133TIP3   OH230889   4.169   1.809  12.713  0.8813 -0.3771 -0.3187
 3133TIP3    H130890   4.216   1.846  12.638  2.0540  0.4274  0.7699
 3133TIP3    H230891   4.088   1.774  12.677  0.7520  1.3293 -1.7377
 3134TIP3   OH230892   0.887   6.216   0.873  0.0606 -0.2234 -0.2254
 3134TIP3    H130893   0.896   6.162   0.952 -3.3103  1.2101  1.2414
 3134TIP3    H230894   0.827   6.166   0.817  0.4339 -0.0514 -0.7774
 3135TIP3   OH230895   5.750   0.523   1.742 -0.1301  0.1218 -0.1534
 3135TIP3    H130896   5.708   0.510   1.827 -1.0298  0.8223 -0.4845
 3135TIP3    H230897   5.727   0.444   1.692  2.0235 -1.2033  0.8914
 3136TIP3   OH230898   4.840   0.902  11.208  0.6725  0.4334  0.0944
 3136TIP3    H130899   4.807   0.812  11.203  0.5371  0.4584  0.4984
 3136TIP3    H230900   4.897   0.911  11.132  1.2099 -0.2034  0.4217
 3137TIP3   OH230901   1.953   5.746  11.833 -0.1819 -0.2764  0.5025
 3137TIP3    H130902   1.987   5.674  11.780 -0.4837  0.3022 -0.4843
 3137TIP3    H230903   1.912   5.702  11.908 -0.2697 -1.1339 -0.0298
 3138TIP3   OH230904   0.013   0.511  13.352  0.2831 -0.1957  0.3028
 3138TIP3    H130905   0.033   0.500  13.445 -1.9436  0.5269  0.8994
 3138TIP3    H230906   0.070   0.582  13.324  0.3150  0.2245  1.3724
 3139TIP3   OH230907   3.930   6.736  15.726  0.1049  0.2173 -0.4150
 3139TIP3    H130908   3.933   6.687  15.644 -1.7181  0.8459 -0.8835
 3139TIP3    H230909   3.999   6.802  15.717  0.8633 -0.6263 -0.8430
 3140TIP3   OH230910   5.423   3.725  13.112  0.5625  0.7535 -0.0083
 3140TIP3    H130911   5.465   3.780  13.179  0.0407  2.8246 -1.3265
 3140TIP3    H230912   5.436   3.773  13.031 -3.9528  1.2693 -0.5438
 3141TIP3   OH230913   1.325   0.176  10.906 -0.1249 -0.1840  0.3819
 3141TIP3    H130914   1.317   0.104  10.843 -1.9195 -0.4870  0.9101
 3141TIP3    H230915   1.269   0.150  10.979 -1.1367  1.9144  0.4076
 3142TIP3   OH230916   4.100   1.094  11.096  0.1801  0.4508  0.2451
 3142TIP3    H130917   4.179   1.091  11.149 -0.0927 -2.0567  0.5842
 3142TIP3    H230918   4.044   1.159  11.139  1.6986  1.6488  0.4516
 3143TIP3   OH230919   2.061   4.286   4.949 -0.7741 -0.7120  0.1594
 3143TIP3    H130920   2.075   4.378   4.925  1.0048 -0.4673  2.0585
 3143TIP3    H230921   1.987   4.288   5.009 -0.6809 -0.5134  0.2683
 3144TIP3   OH230922   3.178   5.860   3.437  0.3253 -0.4189  0.4565
 3144TIP3    H130923   3.214   5.947   3.453  2.3557 -1.4450  1.6715
 3144TIP3    H230924   3.088   5.865   3.470  1.5047  0.2445  3.8061
 3145TIP3   OH230925   4.295   1.308  16.271 -0.0934 -0.1635 -0.3533
 3145TIP3    H130926   4.291   1.341  16.182  0.9554  1.2019  0.0865
 3145TIP3    H230927   4.205   1.309  16.302 -0.1402  1.9283 -0.4948
 3146TIP3   OH230928   5.055   6.719  13.063 -0.0890  0.1508  0.2619
 3146TIP3    H130929   5.029   6.734  12.972 -2.3842 -1.0251  0.6955
 3146TIP3    H230930   5.131   6.661  13.058 -0.2985 -0.0208 -0.8953
 3147TIP3   OH230931   5.311   6.712  13.404 -0.0124  0.0981  0.5963
 3147TIP3    H130932   5.225   6.680  13.377  0.8384 -2.3365  0.6555
 3147TIP3    H230933   5.328   6.669  13.488  0.4687  2.0253  1.5170
 3148TIP3   OH230934   0.035   0.413  12.697  0.2872 -0.4005 -0.1165
 3148TIP3    H130935   0.014   0.439  12.608 -0.8043  0.8637  0.4858
 3148TIP3    H230936  -0.019   0.335  12.712  2.0176 -1.8208 -1.2363
 3149TIP3   OH230937   5.211   0.300   0.292  0.6133  0.1894 -0.1173
 3149TIP3    H130938   5.294   0.328   0.331  0.2981 -0.0132  0.7042
 3149TIP3    H230939   5.155   0.378   0.297  0.7780  0.3536 -0.7555
 3150TIP3   OH230940   5.444   0.709   1.754 -0.1747  0.6643 -0.3012
 3150TIP3    H130941   5.426   0.666   1.670  0.6344  1.7503 -1.0385
 3150TIP3    H230942   5.519   0.766   1.737  0.2644  0.5885  1.2678
 3151TIP3   OH230943   1.379   0.287   0.722 -0.3316  0.4080  0.0721
 3151TIP3    H130944   1.363   0.193   0.714  0.7200  0.1653  0.6195
 3151TIP3    H230945   1.297   0.323   0.755  0.1622 -0.7678  2.7721
 3152TIP3   OH230946   2.587   1.171  14.558 -0.4644 -0.3012 -0.5985
 3152TIP3    H130947   2.661   1.184  14.617 -1.4156  1.5201  0.2208
 3152TIP3    H230948   2.587   1.077  14.541  2.4766 -0.2537 -1.2234
 3153TIP3   OH230949   3.280   0.308   2.033  0.1716 -0.0039  0.1261
 3153TIP3    H130950   3.276   0.354   1.950 -0.5459 -0.2365  0.0253
 3153TIP3    H230951   3.300   0.217   2.010  1.5838  0.2466  0.3240
 3154TIP3   OH230952   0.849   4.125   2.618 -0.6682 -0.2979 -0.0535
 3154TIP3    H130953   0.781   4.155   2.558  0.7504  2.9502 -0.1302
 3154TIP3    H230954   0.815   4.145   2.705 -0.1946  0.5136 -0.0530
 3155TIP3   OH230955   4.640   6.182   0.809  0.1702  0.0142 -0.2595
 3155TIP3    H130956   4.662   6.254   0.749  1.5573  1.9351  2.4363
 3155TIP3    H230957   4.565   6.214   0.859 -0.4940 -1.2570 -0.4286
 3156TIP3   OH230958   3.031   1.559   1.370  0.1499 -0.8953 -0.4962
 3156TIP3    H130959   2.951   1.509   1.383  0.9933 -2.7826 -2.2746
 3156TIP3    H230960   3.099   1.493   1.355  1.8326  0.6993 -0.1755
 3157TIP3   OH230961   3.346   5.545  13.447  0.1433  0.2618 -0.1455
 3157TIP3    H130962   3.312   5.456  13.452  0.7753  0.0904  0.9657
 3157TIP3    H230963   3.298   5.593  13.514  1.2338  0.3054  0.6000
 3158TIP3   OH230964   2.791   5.317  16.119 -0.2601  0.1614 -0.1048
 3158TIP3    H130965   2.826   5.275  16.198  0.3024  1.5250  0.3936
 3158TIP3    H230966   2.800   5.251  16.051  2.3118  0.0841  0.2458
 3159TIP3   OH230967   6.472   4.200   7.440 -0.0454  0.1581 -0.5872
 3159TIP3    H130968   6.381   4.206   7.469  0.0342 -0.5346 -0.1913
 3159TIP3    H230969   6.502   4.115   7.473  0.7489  0.3946 -0.7049
 3160TIP3   OH230970   2.282   4.675  14.118 -0.3960  0.2109  0.5741
 3160TIP3    H130971   2.227   4.599  14.101 -0.0919  0.2622 -0.6814
 3160TIP3    H230972   2.301   4.711  14.032  2.2947 -0.3046  0.8874
 3161TIP3   OH230973   2.820   5.369  15.693 -0.6348 -0.2201  0.4657
 3161TIP3    H130974   2.741   5.363  15.639  0.7577 -0.7622 -1.5604
 3161TIP3    H230975   2.805   5.445  15.748 -3.2289 -1.2099  1.2006
 3162TIP3   OH230976   1.960   2.450   0.416  0.2026 -0.0529 -0.3835
 3162TIP3    H130977   1.875   2.448   0.372 -0.0152  0.3886  0.0139
 3162TIP3    H230978   2.015   2.505   0.360  0.5902 -1.3157 -1.2775
 3163TIP3   OH230979   2.804   0.537  13.547  0.5592 -0.7747 -0.0072
 3163TIP3    H130980   2.757   0.619  13.566 -0.8157 -1.0717 -1.9592
 3163TIP3    H230981   2.891   0.550  13.585  0.2022  1.4023  0.1564
 3164TIP3   OH230982   0.001   0.403   6.895  0.1929  0.2303  0.0534
 3164TIP3    H130983  -0.047   0.383   6.814  0.7271  0.0423 -0.2125
 3164TIP3    H230984   0.068   0.466   6.868  1.0950 -0.6848  0.1332
 3165TIP3   OH230985   6.022   2.296   1.475  0.1269  0.5305  0.3291
 3165TIP3    H130986   6.093   2.244   1.438  1.2249  0.7881  2.0370
 3165TIP3    H230987   6.065   2.375   1.509 -1.0312  0.8739  1.0246
 3166TIP3   OH230988   2.528   2.110   2.024 -0.5238 -0.3487  0.6305
 3166TIP3    H130989   2.594   2.072   2.081  0.3568  0.9723  0.5133
 3166TIP3    H230990   2.470   2.037   2.002  0.8168 -1.4939  0.8315
 3167TIP3   OH230991   2.650   2.268  15.218  0.1353 -0.1482  0.7121
 3167TIP3    H130992   2.616   2.189  15.174 -1.5749  0.9713 -0.0459
 3167TIP3    H230993   2.609   2.340  15.171  1.5549  1.2013  1.5185
 3168TIP3   OH230994   1.048   5.382   6.501 -0.2133 -0.5197 -0.0992
 3168TIP3    H130995   1.097   5.460   6.476 -0.4627 -0.8530 -1.6928
 3168TIP3    H230996   1.100   5.342   6.571  1.5417 -0.5989 -1.4180
 3169TIP3   OH230997   2.328   0.911   5.518 -0.1739  0.3988 -0.5244
 3169TIP3    H130998   2.249   0.860   5.503 -0.4042  1.0295 -1.5391
 3169TIP3    H230999   2.333   0.922   5.613 -1.1359  0.0890 -0.4391
 3170TIP3   OH231000   5.550   6.152  13.648  0.1260 -0.4319  0.2076
 3170TIP3    H131001   5.458   6.134  13.663  0.5415 -1.5216  1.4972
 3170TIP3    H231002   5.566   6.234  13.695 -0.4639  0.4627 -1.0983
 3171TIP3   OH231003   2.382   1.244   6.246 -0.1793  0.4205  0.3164
 3171TIP3    H131004   2.453   1.196   6.204  0.3037  0.8555  0.6300
 3171TIP3    H231005   2.345   1.182   6.310  0.9370  0.7254  1.2614
 3172TIP3   OH231006   6.201   3.137  11.561 -0.4954  0.2232 -0.0273
 3172TIP3    H131007   6.116   3.133  11.516 -0.6178  1.8159  0.0325
 3172TIP3    H231008   6.212   3.050  11.598 -1.9650 -0.1067 -0.3116
 3173TIP3   OH231009   6.634   6.262  17.079  0.7801  0.3300 -0.2890
 3173TIP3    H131010   6.715   6.233  17.037 -0.3956 -2.1834 -0.8955
 3173TIP3    H231011   6.605   6.335  17.026  1.1083 -0.6507 -1.8531
 3174TIP3   OH231012   2.627   1.147   6.067 -0.0554 -0.4417  0.4897
 3174TIP3    H131013   2.707   1.111   6.103 -0.2113 -0.6746  0.6021
 3174TIP3    H231014   2.586   1.075   6.020  0.0373 -0.1971  0.0260
 3175TIP3   OH231015   3.752   2.887  17.216  0.0310  0.3791 -0.0614
 3175TIP3    H131016   3.848   2.887  17.219  0.0225  2.7199  0.6821
 3175TIP3    H231017   3.729   2.961  17.160 -1.3711 -0.3359 -0.4686
 3176TIP3   OH231018   0.385   1.939   3.260  0.1108 -0.0084 -0.0344
 3176TIP3    H131019   0.331   1.998   3.207  0.8708  0.5932 -0.1631
 3176TIP3    H231020   0.404   1.990   3.339  4.2833  1.6116 -1.9525
 3177TIP3   OH231021   3.587   5.227   5.998  0.6113 -0.2845 -0.2872
 3177TIP3    H131022   3.595   5.174   5.918  1.5307 -0.6523  0.0318
 3177TIP3    H231023   3.638   5.178   6.063 -0.3430 -0.1136  0.5859
 3178TIP3   OH231024   4.332   4.431  11.025 -0.3790 -0.0392 -0.2225
 3178TIP3    H131025   4.241   4.405  11.008 -0.2851 -1.0341  0.6955
 3178TIP3    H231026   4.377   4.416  10.942 -0.9000 -0.2721 -0.4678
 3179TIP3   OH231027   5.433   5.401  12.781 -0.4027  0.3214 -0.7206
 3179TIP3    H131028   5.344   5.384  12.811 -1.1213  0.5045 -2.6689
 3179TIP3    H231029   5.487   5.390  12.859 -2.2064  0.9980  0.6675
 3180TIP3   OH231030   4.530   6.767   2.288 -0.0529  0.4309 -0.0479
 3180TIP3    H131031   4.520   6.828   2.361 -1.1368 -1.1131  1.1305
 3180TIP3    H231032   4.468   6.697   2.308  0.3551 -0.4845 -1.9666
 3181TIP3   OH231033   2.938   4.362  15.198  0.6171 -0.5087  0.0960
 3181TIP3    H131034   2.984   4.316  15.128 -0.2139  0.3845 -1.0501
 3181TIP3    H231035   3.006   4.388  15.259  1.7234  1.2794 -1.8432
 3182TIP3   OH231036   2.681   0.656  13.034  0.0711 -0.3497  0.2150
 3182TIP3    H131037   2.729   0.739  13.038  0.7744 -0.7984  1.1049
 3182TIP3    H231038   2.653   0.650  12.942  2.6939 -0.6224 -0.6008
 3183TIP3   OH231039   1.699   2.224   0.393 -0.3125  0.3570 -0.1513
 3183TIP3    H131040   1.759   2.293   0.423 -1.6627  1.3387  0.3196
 3183TIP3    H231041   1.633   2.218   0.462 -1.8533  0.6584 -1.5670
 3184TIP3   OH231042   2.626   5.380   5.011  0.1701 -0.4392  0.0328
 3184TIP3    H131043   2.710   5.339   4.989  1.4300  1.5823  0.9272
 3184TIP3    H231044   2.613   5.445   4.942 -0.9901 -1.1765 -0.4510
 3185TIP3   OH231045   6.206   2.923  11.376 -0.0306  0.1874 -0.2147
 3185TIP3    H131046   6.178   2.896  11.289 -1.2519 -0.3360  0.3258
 3185TIP3    H231047   6.152   2.872  11.436 -0.4017  1.7852  0.8532
 3186TIP3   OH231048   5.018   3.688  12.414 -0.0588  0.1311  0.2640
 3186TIP3    H131049   5.039   3.622  12.347 -2.1866 -1.1533  0.8422
 3186TIP3    H231050   5.042   3.646  12.497 -0.6052  0.4148  0.5637
 3187TIP3   OH231051   0.893   0.869  15.991 -0.5707  0.3001  0.3166
 3187TIP3    H131052   0.877   0.813  16.067  0.9413  0.5239  0.8181
 3187TIP3    H231053   0.986   0.855  15.971 -0.5221  1.6113 -0.3844
 3188TIP3   OH231054   5.560   4.076  13.083 -0.3886 -0.4251  0.1902
 3188TIP3    H131055   5.610   3.996  13.096  0.1586 -0.0777  0.2395
 3188TIP3    H231056   5.510   4.060  13.002  0.1194 -0.6102 -0.0892
 3189TIP3   OH231057   5.120   2.725  15.845  0.3845  0.7028  0.0872
 3189TIP3    H131058   5.151   2.777  15.771 -0.1140  2.4764  1.0856
 3189TIP3    H231059   5.189   2.733  15.911 -0.3684  1.3295  0.8034
 3190TIP3   OH231060   1.912   3.773  15.591 -0.4388 -0.1076  0.0627
 3190TIP3    H131061   1.983   3.836  15.603  0.0608 -0.7378  0.4331
 3190TIP3    H231062   1.843   3.804  15.649 -0.1850  0.0786  0.2680
 3191TIP3   OH231063   4.144   1.436  15.464  0.3475  0.0633  0.0535
 3191TIP3    H131064   4.171   1.431  15.555 -0.2990  1.0180  0.3068
 3191TIP3    H231065   4.054   1.403  15.463 -0.6946  2.6994  0.2666
 3192TIP3   OH231066   1.742   4.241  11.275 -0.2235 -0.3433  0.1551
 3192TIP3    H131067   1.730   4.303  11.203  0.2810  0.2970  0.6155
 3192TIP3    H231068   1.790   4.168  11.236 -1.3389 -0.7160 -0.5314
 3193TIP3   OH231069   4.952   0.373  11.276 -0.1658  0.3068  0.5985
 3193TIP3    H131070   4.973   0.455  11.231 -0.7952  0.8163  1.2198
 3193TIP3    H231071   4.892   0.399  11.346  1.2184 -0.4053  2.0639
 3194TIP3   OH231072   5.744   1.002  14.998  0.2152  0.1896  0.4018
 3194TIP3    H131073   5.810   0.992  14.928 -0.7373 -1.2661 -0.3145
 3194TIP3    H231074   5.788   0.970  15.077  0.4965 -0.4290 -0.0036
 3195TIP3   OH231075   5.396   2.105  10.530 -0.0626  0.5637 -0.4614
 3195TIP3    H131076   5.422   2.014  10.517  0.6859  0.2871  2.5945
 3195TIP3    H231077   5.479   2.154  10.530 -0.2372  0.8798  0.4298
 3196TIP3   OH231078   1.637   1.269  10.941  0.2844  0.5442 -0.3542
 3196TIP3    H131079   1.624   1.336  10.873 -0.7063 -0.7342 -1.4697
 3196TIP3    H231080   1.690   1.202  10.899 -0.2442 -0.2105  0.1628
 3197TIP3   OH231081   6.360   2.824  16.943 -0.0859 -0.1026  0.0084
 3197TIP3    H131082   6.285   2.771  16.970 -0.0030 -0.4843 -0.4834
 3197TIP3    H231083   6.360   2.818  16.847 -0.5688  1.4878 -0.0937
 3198TIP3   OH231084   3.931   6.457   2.666  0.5658 -0.0834  0.7605
 3198TIP3    H131085   3.886   6.468   2.583  0.4448  0.2865  0.8732
 3198TIP3    H231086   3.950   6.546   2.695 -3.1909  0.0424  3.1983
 3199TIP3   OH231087   2.607   0.831   1.968 -0.3468 -0.8468 -0.0921
 3199TIP3    H131088   2.696   0.814   1.998 -0.3332 -1.6893 -0.6102
 3199TIP3    H231089   2.610   0.919   1.930  0.4468 -1.2029 -0.8495
 3200TIP3   OH231090   2.660   5.594  12.453 -0.2939  0.5800  0.1730
 3200TIP3    H131091   2.668   5.582  12.547  0.8549  0.2285  0.0511
 3200TIP3    H231092   2.749   5.617  12.424 -0.3317 -0.6711 -1.0038
 3201TIP3   OH231093   3.224   6.058   4.352 -0.2017  0.0709  0.0992
 3201TIP3    H131094   3.263   5.983   4.307 -0.2466  0.2210 -0.1945
 3201TIP3    H231095   3.244   6.044   4.445 -0.5715 -0.5201  0.0940
 3202TIP3   OH231096   5.169   2.203  11.227  0.1458  0.0269 -0.2383
 3202TIP3    H131097   5.148   2.197  11.134 -0.6061  2.6089 -0.2719
 3202TIP3    H231098   5.257   2.166  11.234 -0.6302 -2.1755 -1.6061
 3203TIP3   OH231099   5.144   5.002  16.360 -0.6196 -0.3543 -0.0149
 3203TIP3    H131100   5.227   4.977  16.319 -0.4037  0.5137 -0.1146
 3203TIP3    H231101   5.165   5.012  16.453 -0.6665 -0.3425 -0.0064
 3204TIP3   OH231102   2.170   6.197  12.838 -0.0501 -0.1084  0.3710
 3204TIP3    H131103   2.163   6.152  12.922  0.2071  1.0421  1.0078
 3204TIP3    H231104   2.080   6.200  12.805 -0.1527 -0.5434  0.6112
 3205TIP3   OH231105   0.381   4.277   2.961  0.4661 -0.5523  0.2700
 3205TIP3    H131106   0.358   4.367   2.985  1.0906 -1.2880  4.0062
 3205TIP3    H231107   0.297   4.235   2.944 -0.1789 -0.3699  2.8552
 3206TIP3   OH231108   0.252   5.077  13.471  0.0724  0.4245  0.1029
 3206TIP3    H131109   0.312   5.003  13.464 -0.5756 -0.0554 -0.4182
 3206TIP3    H231110   0.202   5.060  13.551  0.4186  0.6719  0.3757
 3207TIP3   OH231111   1.324   3.874  14.372 -0.4139 -0.2069 -0.1872
 3207TIP3    H131112   1.255   3.872  14.438  0.5553 -2.7217  0.8448
 3207TIP3    H231113   1.364   3.960  14.381 -2.0719  0.4866  0.6180
 3208TIP3   OH231114   6.185   0.027  15.558 -0.2990 -0.0262  0.1403
 3208TIP3    H131115   6.183   0.119  15.584  0.0951  0.0426 -0.0679
 3208TIP3    H231116   6.274   0.013  15.524 -0.9369 -0.0041 -1.5951
 3209TIP3   OH231117   1.546   1.848  13.095 -0.8354  0.4415 -0.1356
 3209TIP3    H131118   1.481   1.806  13.150 -0.4592 -0.0784 -0.0852
 3209TIP3    H231119   1.565   1.931  13.138 -0.0106 -0.2700  0.9165
 3210TIP3   OH231120   6.344   0.522   1.219 -0.5136 -0.0749  0.0614
 3210TIP3    H131121   6.252   0.540   1.200 -0.3811 -1.1224 -1.6485
 3210TIP3    H231122   6.384   0.506   1.134  0.7967 -1.7687  0.9429
 3211TIP3   OH231123   3.833   1.110  16.834  0.1443 -0.1110 -0.4527
 3211TIP3    H131124   3.849   1.021  16.865  0.8746 -0.8374 -2.8301
 3211TIP3    H231125   3.898   1.164  16.879  0.9335 -1.0749 -0.4248
 3212TIP3   OH231126   2.166   6.564  16.578  0.1881 -0.1237 -0.4112
 3212TIP3    H131127   2.106   6.588  16.650 -0.6223 -0.0218 -1.1135
 3212TIP3    H231128   2.153   6.633  16.513  0.9986 -0.1620 -0.6194
 3213TIP3   OH231129   1.068   1.384  13.372  0.4161  0.0876 -0.1253
 3213TIP3    H131130   0.974   1.365  13.368  0.1687  1.4305 -0.8995
 3213TIP3    H231131   1.081   1.421  13.459  0.5033 -1.4238  0.5317
 3214TIP3   OH231132   3.250   5.472  12.732 -0.5120 -0.7401 -0.2080
 3214TIP3    H131133   3.224   5.542  12.672  0.2459  0.1871  0.5322
 3214TIP3    H231134   3.269   5.398  12.674  0.0863  0.1059 -1.1254
 3215TIP3   OH231135   6.075   1.702   4.608 -0.0135 -0.1820 -0.3731
 3215TIP3    H131136   6.116   1.681   4.524  0.9844 -0.6122  0.2126
 3215TIP3    H231137   6.116   1.784   4.635 -0.6972  0.2189 -0.5425
 3216TIP3   OH231138   4.070   3.616  15.742  0.4103  0.6110 -0.1818
 3216TIP3    H131139   4.064   3.522  15.722  1.6842  0.0275  1.9125
 3216TIP3    H231140   4.126   3.652  15.673 -0.2349 -0.1280 -1.1053
 3217TIP3   OH231141   0.522   3.818   4.116 -0.0452 -0.0255  0.3915
 3217TIP3    H131142   0.602   3.833   4.066 -0.4835  1.0676  0.0129
 3217TIP3    H231143   0.468   3.895   4.100  0.5592  1.2528  3.9648
 3218TIP3   OH231144   1.236   2.371  14.508  0.4825 -0.0277 -0.4331
 3218TIP3    H131145   1.291   2.409  14.577 -2.5231  0.1540  1.9635
 3218TIP3    H231146   1.249   2.277  14.517  1.4530  0.0553 -0.8309
 3219TIP3   OH231147   3.766   5.569   2.537  0.1031 -0.4295 -0.4270
 3219TIP3    H131148   3.707   5.594   2.467 -0.0047 -0.7223 -0.4394
 3219TIP3    H231149   3.847   5.544   2.493  0.3330  0.2402 -0.3940
 3220TIP3   OH231150   1.802   6.239   2.167  0.1053 -0.2787 -0.4609
 3220TIP3    H131151   1.806   6.171   2.100  0.1106  0.1143 -0.8610
 3220TIP3    H231152   1.726   6.292   2.143 -0.6668 -0.8994  0.5753
 3221TIP3   OH231153   0.638   4.013  11.551 -0.1422 -0.2205  0.1209
 3221TIP3    H131154   0.558   3.972  11.584 -0.3289 -0.2134 -0.3218
 3221TIP3    H231155   0.611   4.059  11.472 -0.1948  1.8364  1.2919
 3222TIP3   OH231156   2.263   4.600   6.572  0.6844 -1.0911  1.1451
 3222TIP3    H131157   2.248   4.692   6.593 -0.0043 -1.2932  1.5482
 3222TIP3    H231158   2.176   4.564   6.557  1.0459 -1.3733 -0.3203
 3223TIP3   OH231159   6.138   1.156  15.272 -0.1458  0.5557  0.1186
 3223TIP3    H131160   6.186   1.150  15.355 -0.1826 -1.1227  0.0306
 3223TIP3    H231161   6.086   1.235  15.281 -1.1215 -0.2765  2.2193
 3224TIP3   OH231162   1.321   1.614   6.684  0.3036  0.9721  0.1663
 3224TIP3    H131163   1.261   1.651   6.749 -0.0800  1.0653 -0.2403
 3224TIP3    H231164   1.408   1.646   6.710  0.2973  0.0813  1.2943
 3225TIP3   OH231165   4.574   0.056  14.132  0.1927 -0.3233 -0.1249
 3225TIP3    H131166   4.654   0.092  14.093  1.1598 -0.5938  1.5235
 3225TIP3    H231167   4.603  -0.024  14.176 -0.8832 -0.1460  0.9351
 3226TIP3   OH231168   5.859   0.849   3.367  0.5042  0.8359  0.1733
 3226TIP3    H131169   5.920   0.917   3.340  0.2687  0.3957 -1.5248
 3226TIP3    H231170   5.888   0.771   3.320 -1.3873  0.6292 -0.7016
 3227TIP3   OH231171   6.326   3.238   3.342 -0.0337  0.8382 -0.3481
 3227TIP3    H131172   6.262   3.299   3.379 -0.2322 -0.6409  1.8915
 3227TIP3    H231173   6.407   3.289   3.336  0.2225  0.9524  2.9970
 3228TIP3   OH231174   5.131   5.693   5.550  0.6587 -0.0063 -0.0455
 3228TIP3    H131175   5.130   5.785   5.523 -0.2193  0.2112  0.7064
 3228TIP3    H231176   5.183   5.649   5.482  0.8426  0.9903 -0.5638
 3229TIP3   OH231177   1.571   3.854   4.155  0.1566 -0.2315 -0.2292
 3229TIP3    H131178   1.508   3.859   4.083  1.8207 -1.8664 -1.8843
 3229TIP3    H231179   1.582   3.944   4.183 -1.7943  0.2497 -0.8956
 3230TIP3   OH231180   2.486   1.691   6.090  0.2332  0.1067 -0.0272
 3230TIP3    H131181   2.516   1.782   6.076  0.9759  0.0504  1.1763
 3230TIP3    H231182   2.556   1.638   6.051 -0.3594  0.0455 -1.0271
 3231TIP3   OH231183   1.548   2.518   1.703 -0.0662  0.0688  0.6353
 3231TIP3    H131184   1.563   2.611   1.687 -1.6545  0.0547 -1.1744
 3231TIP3    H231185   1.498   2.516   1.785  1.3945  0.6773  1.5628
 3232TIP3   OH231186   1.696   1.917  14.918 -0.2830 -0.5882  0.1660
 3232TIP3    H131187   1.659   1.881  14.838 -0.3477  0.8814 -0.4926
 3232TIP3    H231188   1.708   2.010  14.898  0.5071 -0.3828  1.5678
 3233TIP3   OH231189   1.656   0.251   4.307  0.7599  0.2802  0.1324
 3233TIP3    H131190   1.711   0.192   4.255  2.1408  1.3707  0.3367
 3233TIP3    H231191   1.709   0.330   4.318 -0.3592  0.8647  1.4172
 3234TIP3   OH231192   0.883   4.183   3.938  0.6123 -0.2692 -0.1548
 3234TIP3    H131193   0.874   4.216   4.027 -0.4687 -0.5261 -0.1595
 3234TIP3    H231194   0.895   4.261   3.884  0.0456 -0.0175  0.0772
 3235TIP3   OH231195   6.569   2.153  11.092 -0.0625 -0.5061 -0.4292
 3235TIP3    H131196   6.563   2.135  11.186 -0.7662 -0.0175 -0.3767
 3235TIP3    H231197   6.661   2.138  11.071  0.4355  0.8399  0.6598
 3236TIP3   OH231198   5.229   3.277  11.354  0.6496 -0.0464 -0.0222
 3236TIP3    H131199   5.229   3.231  11.270  2.2660 -0.4984  0.1995
 3236TIP3    H231200   5.139   3.269  11.386  0.0131  0.1930 -1.7369
 3237TIP3   OH231201   6.391   1.211  15.183  0.0224 -0.2179 -0.6707
 3237TIP3    H131202   6.433   1.154  15.118 -1.5442 -0.4360 -1.5064
 3237TIP3    H231203   6.310   1.165  15.206  0.6135 -0.1953  1.5318
 3238TIP3   OH231204   1.096   5.092  15.595  0.4530  0.3347  0.2074
 3238TIP3    H131205   1.009   5.131  15.585  1.2073  1.9363 -0.1754
 3238TIP3    H231206   1.088   5.038  15.674 -0.5321  1.4607  0.9003
 3239TIP3   OH231207   3.444   6.015   1.497 -0.6166  0.0528 -0.3015
 3239TIP3    H131208   3.368   5.990   1.445  0.1888 -0.8833 -1.0637
 3239TIP3    H231209   3.417   6.003   1.588 -1.5756  0.3351 -0.5507
 3240TIP3   OH231210   1.364   5.367   4.525 -0.6301 -0.2081 -0.5128
 3240TIP3    H131211   1.369   5.334   4.435 -0.4829  0.2335 -0.6640
 3240TIP3    H231212   1.455   5.385   4.549 -0.3103 -3.2009  0.7968
 3241TIP3   OH231213   0.485   3.640  15.269 -0.1176 -0.0610  0.3142
 3241TIP3    H131214   0.543   3.577  15.313  1.4531  1.6176  0.6754
 3241TIP3    H231215   0.397   3.609  15.289  0.6063 -0.6151  2.7724
 3242TIP3   OH231216   4.192   6.736   2.223  0.4634  0.1724  0.0576
 3242TIP3    H131217   4.238   6.817   2.247  0.0825  0.5932 -0.6172
 3242TIP3    H231218   4.261   6.670   2.219  0.5300  0.0761  2.3384
 3243TIP3   OH231219   5.973   1.594   5.364 -0.1393 -0.1434 -0.4757
 3243TIP3    H131220   5.980   1.498   5.365  0.5774 -0.0926 -0.0710
 3243TIP3    H231221   6.001   1.619   5.276  0.8957 -0.2258 -0.1760
 3244TIP3   OH231222   2.809   2.407  13.185  0.4761  0.0699 -0.4328
 3244TIP3    H131223   2.789   2.495  13.156  1.8028 -0.0107 -1.6245
 3244TIP3    H231224   2.875   2.418  13.253  0.9814 -0.0206 -0.9028
 3245TIP3   OH231225   5.813   0.412  12.918 -0.3775  0.1637 -0.4050
 3245TIP3    H131226   5.893   0.453  12.952 -0.8883  0.2237  0.7705
 3245TIP3    H231227   5.827   0.318  12.930 -0.9839  0.2348  0.9899
 3246TIP3   OH231228   4.921   2.912  17.120  0.3157 -0.0557 -0.2428
 3246TIP3    H131229   4.948   2.910  17.211  0.8678  0.5065 -0.3932
 3246TIP3    H231230   4.963   2.836  17.080 -1.0477 -1.1056  0.2778
 3247TIP3   OH231231   4.608   6.250   5.873  0.2719  0.4045 -0.4684
 3247TIP3    H131232   4.564   6.318   5.823  1.5339 -0.0975 -2.3075
 3247TIP3    H231233   4.702   6.265   5.857  0.7397  0.5708  2.1803
 3248TIP3   OH231234   2.402   0.078   5.860 -0.0375  0.2171 -0.0159
 3248TIP3    H131235   2.495   0.081   5.884 -0.1383  1.7801  0.1747
 3248TIP3    H231236   2.355   0.089   5.942 -0.3911  0.7564 -0.2881
 3249TIP3   OH231237   1.316   1.944   1.926 -0.3197 -0.2217  0.2382
 3249TIP3    H131238   1.337   1.882   1.996 -0.9644 -1.9196 -1.0476
 3249TIP3    H231239   1.241   1.993   1.959 -0.0765 -0.4070  1.0823
 3250TIP3   OH231240   4.549   2.586  12.780 -0.4650  0.4096 -0.5992
 3250TIP3    H131241   4.635   2.549  12.799 -0.4210  0.5732 -0.4802
 3250TIP3    H231242   4.488   2.525  12.822 -0.3346  1.1856  0.7618
 3251TIP3   OH231243   0.877   3.621  13.364 -0.2782  0.3566 -0.3581
 3251TIP3    H131244   0.965   3.587  13.347 -0.8482 -0.6346 -1.3838
 3251TIP3    H231245   0.826   3.594  13.288 -1.2004  1.9161 -0.3068
 3252TIP3   OH231246   3.823   3.105   3.411  0.1198  0.3862 -0.7637
 3252TIP3    H131247   3.754   3.123   3.347  0.2623  0.3141 -0.9376
 3252TIP3    H231248   3.798   3.156   3.488 -0.2844  0.1245 -0.7232
 3253TIP3   OH231249   1.506   4.402  14.242 -0.0551  0.2016  0.0853
 3253TIP3    H131250   1.432   4.421  14.299 -0.3369  1.3381 -0.6373
 3253TIP3    H231251   1.579   4.386  14.301 -0.2820  1.6063  0.7606
 3254TIP3   OH231252   3.646   0.930   4.104  0.5400  0.1908 -0.5090
 3254TIP3    H131253   3.640   0.855   4.046  2.9937  0.1433 -0.7223
 3254TIP3    H231254   3.657   1.005   4.045  0.2857  0.4609 -0.2139
 3255TIP3   OH231255   5.597   2.605   4.612 -0.0787 -0.1565  0.3626
 3255TIP3    H131256   5.582   2.691   4.574  1.7057  0.4341  0.9220
 3255TIP3    H231257   5.629   2.624   4.701 -0.2484 -1.4123  0.7022
 3256TIP3   OH231258   2.108   6.374  13.084  0.0264 -0.0741  0.3410
 3256TIP3    H131259   2.059   6.366  13.165  1.3400  0.7811  1.2405
 3256TIP3    H231260   2.189   6.326  13.100 -0.5263 -1.5638 -1.1618
 3257TIP3   OH231261   1.543   0.580  15.275 -0.4106 -0.0188 -0.6959
 3257TIP3    H131262   1.610   0.614  15.215  0.9403  0.0721  0.8405
 3257TIP3    H231263   1.462   0.581  15.223  0.7693 -0.1786 -2.6050
 3258TIP3   OH231264   5.640   2.369  15.667 -0.7645  0.5526 -0.0451
 3258TIP3    H131265   5.581   2.444  15.656 -1.5214  0.0253  0.3737
 3258TIP3    H231266   5.708   2.401  15.727 -1.3599  0.7624  0.5333
 3259TIP3   OH231267   3.865   4.218  16.972  0.3143  0.3058 -0.3206
 3259TIP3    H131268   3.816   4.297  16.992 -1.0959 -0.8490  0.9090
 3259TIP3    H231269   3.954   4.236  17.004  0.2861  1.7742 -1.0278
 3260TIP3   OH231270   5.346   6.267  15.190  0.3492 -0.1546 -0.4941
 3260TIP3    H131271   5.413   6.242  15.254  1.5250  1.4146 -1.0649
 3260TIP3    H231272   5.303   6.343  15.230 -0.7881 -0.8840 -0.3308
 3261TIP3   OH231273   0.977   0.622   3.115  0.0388 -0.5151  0.1225
 3261TIP3    H131274   1.001   0.620   3.022 -1.5365 -3.2008 -0.2894
 3261TIP3    H231275   0.905   0.685   3.119 -0.0444 -0.5655 -0.5258
 3262TIP3   OH231276   6.331   3.890  12.153 -0.1222  0.2170 -0.3246
 3262TIP3    H131277   6.347   3.854  12.240 -0.1804  0.0530 -0.3822
 3262TIP3    H231278   6.280   3.969  12.170  0.6156  0.6659 -0.1489
 3263TIP3   OH231279   4.150   3.027   4.925  0.2127  0.0166  0.0087
 3263TIP3    H131280   4.171   3.040   4.833  0.1012  1.4249  0.1724
 3263TIP3    H231281   4.075   2.968   4.925  0.3995 -0.2218 -0.7906
 3264TIP3   OH231282   1.835   3.788  14.598 -0.0225  0.0654 -0.3819
 3264TIP3    H131283   1.791   3.712  14.559  2.0127 -0.2928 -2.0969
 3264TIP3    H231284   1.826   3.776  14.692 -1.6233 -1.1530 -0.6672
 3265TIP3   OH231285   4.688   6.182   2.556 -0.2176  0.0050  0.4914
 3265TIP3    H131286   4.762   6.178   2.618  1.2292  1.2631 -1.1026
 3265TIP3    H231287   4.658   6.273   2.562  0.4112  0.3291 -1.1930
 3266TIP3   OH231288   0.325   3.187   4.440  0.1882 -0.3724  0.2792
 3266TIP3    H131289   0.236   3.165   4.469  0.3173  0.1950  1.1225
 3266TIP3    H231290   0.379   3.177   4.519  0.7855 -0.1839 -0.0997
 3267TIP3   OH231291   3.181   4.504  14.384 -0.2475 -0.4295  0.0030
 3267TIP3    H131292   3.190   4.531  14.475  0.8658 -0.3644 -0.1183
 3267TIP3    H231293   3.110   4.439  14.385  0.4456 -1.1885  1.0810
 3268TIP3   OH231294   2.735   2.457  11.476  0.4256  0.0435  0.0964
 3268TIP3    H131295   2.776   2.541  11.456  0.2196  0.1147 -0.0360
 3268TIP3    H231296   2.717   2.460  11.570  2.1432 -0.6250  0.4641
 3269TIP3   OH231297   0.457   4.837   2.882 -0.0503  0.0062  0.0637
 3269TIP3    H131298   0.514   4.846   2.958  0.2929  1.0611 -0.3097
 3269TIP3    H231299   0.384   4.897   2.898  0.0093  0.2168 -0.4109
 3270TIP3   OH231300   4.850   5.533   1.566 -0.0010  0.0297 -0.0397
 3270TIP3    H131301   4.874   5.441   1.557  1.4871  0.3715  0.2142
 3270TIP3    H231302   4.928   5.581   1.538 -0.4825  1.2019  0.5685
 3271TIP3   OH231303   0.334   5.738  11.767 -0.0813  0.2177  0.3274
 3271TIP3    H131304   0.307   5.764  11.679 -2.0734 -0.3128  0.7474
 3271TIP3    H231305   0.252   5.728  11.815  0.9951  0.7920  2.3377
 3272TIP3   OH231306   0.491   2.400   4.402 -0.1060  0.4247  1.1862
 3272TIP3    H131307   0.454   2.464   4.341 -1.9708 -0.9117  0.8720
 3272TIP3    H231308   0.532   2.334   4.345  1.4908  1.1262  1.4991
 3273TIP3   OH231309   4.781   3.939   1.223  0.4346 -0.6202  0.7972
 3273TIP3    H131310   4.872   3.942   1.253  0.6139 -0.4896  0.2434
 3273TIP3    H231311   4.735   3.892   1.292  0.6917  0.3779  1.6790
 3274TIP3   OH231312   1.819   1.859   1.884 -0.2409 -0.4117  0.0096
 3274TIP3    H131313   1.904   1.825   1.911 -0.1531 -1.8867 -1.9886
 3274TIP3    H231314   1.830   1.882   1.792 -1.4767  1.2218  0.2490
 3275TIP3   OH231315   4.725   6.705   2.614 -0.0912  0.3481 -0.3648
 3275TIP3    H131316   4.678   6.738   2.691  0.0028 -0.5721  0.0879
 3275TIP3    H231317   4.780   6.779   2.587 -2.5769  1.8408 -1.5619
 3276TIP3   OH231318   5.308   6.213   1.294 -0.3011 -0.3669  0.0234
 3276TIP3    H131319   5.385   6.191   1.346  1.0607  3.0457 -0.3998
 3276TIP3    H231320   5.238   6.224   1.358  0.0861 -1.3233  0.6178
 3277TIP3   OH231321   2.954   4.306  14.401  0.3786 -0.3911  0.2588
 3277TIP3    H131322   2.889   4.371  14.428  1.1652 -0.0571  1.3830
 3277TIP3    H231323   2.937   4.231  14.457  0.8071 -0.3914  0.3862
 3278TIP3   OH231324   6.293   2.857  13.846  0.0736  0.4696  0.0549
 3278TIP3    H131325   6.271   2.775  13.802  0.7009 -0.0665  0.7456
 3278TIP3    H231326   6.282   2.839  13.939  0.5336  1.0701  0.2333
 3279TIP3   OH231327   1.923   5.728   3.816 -0.3215 -0.0465  0.0371
 3279TIP3    H131328   1.834   5.760   3.800 -0.5205  0.4068  1.8597
 3279TIP3    H231329   1.973   5.756   3.740 -1.5317  0.4923 -0.5849
 3280TIP3   OH231330   5.259   5.311   0.835  0.2148 -0.9777 -0.1676
 3280TIP3    H131331   5.204   5.236   0.859 -0.0261 -0.6117  0.4505
 3280TIP3    H231332   5.199   5.371   0.791 -0.3633  0.2943  2.2446
 3281TIP3   OH231333   3.567   2.126  13.769 -0.6041 -0.6840 -0.1397
 3281TIP3    H131334   3.625   2.202  13.761 -3.1687  1.3330 -0.2595
 3281TIP3    H231335   3.536   2.110  13.680 -1.2925 -0.8620  0.1306
 3282TIP3   OH231336   1.224   4.874  17.285  0.3949 -0.0462  0.0695
 3282TIP3    H131337   1.202   4.963  17.259  0.5602 -0.4348 -1.4559
 3282TIP3    H231338   1.262   4.883  17.373  2.0848  1.6066 -0.7828
 3283TIP3   OH231339   1.202   5.297  16.127  0.6709  0.5915 -0.0514
 3283TIP3    H131340   1.257   5.241  16.073  1.5571  1.5545 -0.1588
 3283TIP3    H231341   1.191   5.249  16.209  0.7149 -0.1136 -0.4534
 3284TIP3   OH231342   0.945   1.469   4.213 -0.0986 -0.0774 -0.3173
 3284TIP3    H131343   0.976   1.445   4.125 -0.7366  0.7865 -0.7883
 3284TIP3    H231344   1.021   1.509   4.255  0.4086 -1.1258 -0.2228
 3285TIP3   OH231345   2.895   4.577  13.583 -0.3339  0.4193 -0.2524
 3285TIP3    H131346   2.906   4.576  13.488 -0.7300  0.3781 -0.2982
 3285TIP3    H231347   2.953   4.507  13.614 -0.5984  0.0827 -0.5074
 3286TIP3   OH231348   0.070   0.464  11.510 -0.2071  0.5236 -0.4463
 3286TIP3    H131349   0.117   0.536  11.468  0.9253 -0.1470 -0.3645
 3286TIP3    H231350   0.136   0.396  11.520 -1.0913 -0.2557  0.1356
 3287TIP3   OH231351   1.723   1.853   0.045  0.3709 -0.1234 -0.0024
 3287TIP3    H131352   1.818   1.867   0.056  0.1285  0.6585  1.2162
 3287TIP3    H231353   1.702   1.897  -0.037  0.8712  0.7084  0.3024
 3288TIP3   OH231354   3.917   4.339   0.073  0.8239  0.4781 -0.2245
 3288TIP3    H131355   4.006   4.342   0.037  0.3296  1.0047 -1.4269
 3288TIP3    H231356   3.880   4.259   0.036  0.9272  0.0526  0.5906
 3289TIP3   OH231357   4.231   5.042  17.280  0.1458 -0.1607 -0.8266
 3289TIP3    H131358   4.156   5.080  17.235 -0.3838 -0.6134 -0.3386
 3289TIP3    H231359   4.260   5.110  17.340  0.4265  0.1918 -1.3640
 3290TIP3   OH231360   5.973   5.691   0.051 -0.0352 -0.1197 -0.6177
 3290TIP3    H131361   5.930   5.654   0.129 -0.7157  0.1238 -0.8737
 3290TIP3    H231362   5.928   5.774   0.036 -0.7024 -0.7222 -1.9695
 3291TIP3   OH231363   3.698   2.831  13.379 -0.5183 -0.0536 -0.1396
 3291TIP3    H131364   3.716   2.881  13.459 -0.9347 -0.4411  0.1949
 3291TIP3    H231365   3.783   2.821  13.338 -0.3338  0.3554  0.1355
 3292TIP3   OH231366   2.449   0.117   0.275  0.1801 -0.1727 -0.1144
 3292TIP3    H131367   2.414   0.156   0.356  1.4622 -0.4040  0.5684
 3292TIP3    H231368   2.373   0.110   0.217 -0.4033  1.7500  0.3761
 3293TIP3   OH231369   3.272   4.913   4.652 -0.6121  0.2231 -0.0875
 3293TIP3    H131370   3.357   4.924   4.610 -0.1453  0.4110  0.8984
 3293TIP3    H231371   3.243   5.002   4.673 -0.1055  0.0502  1.4227
 3294TIP3   OH231372   0.921   2.286   4.401 -0.8326  0.3188 -0.2223
 3294TIP3    H131373   0.867   2.346   4.452 -0.7653  0.2077 -0.0173
 3294TIP3    H231374   0.932   2.210   4.458  0.0137  0.5784 -0.0329
 3295TIP3   OH231375   5.657   5.065  17.154  0.3829  0.3494  0.1628
 3295TIP3    H131376   5.567   5.033  17.161 -0.4218  2.3920 -0.2768
 3295TIP3    H231377   5.706   4.992  17.118 -1.1612 -0.7189  0.1914
 3296TIP3   OH231378   2.654   0.279   2.596 -0.2413  0.1758  0.9630
 3296TIP3    H131379   2.657   0.184   2.603 -0.5349  0.0666 -0.4046
 3296TIP3    H231380   2.746   0.307   2.599 -0.1589 -0.1423  1.3776
 3297TIP3   OH231381   5.232   2.137   3.855 -0.4709 -0.3582 -0.6513
 3297TIP3    H131382   5.266   2.223   3.881  1.3987 -1.1069 -0.5370
 3297TIP3    H231383   5.151   2.156   3.809 -0.1658  1.4638 -0.4730
 3298TIP3   OH231384   0.314   4.112  16.825 -0.6180 -0.2113  0.0324
 3298TIP3    H131385   0.263   4.191  16.809 -1.4120 -1.1815 -2.4434
 3298TIP3    H231386   0.290   4.086  16.914 -2.5554  0.7461 -0.1816
 3299TIP3   OH231387   0.301   2.735  12.404  0.2386 -0.3014  0.2113
 3299TIP3    H131388   0.333   2.726  12.314 -0.4813  1.2708 -0.2302
 3299TIP3    H231389   0.381   2.736  12.457  0.7972  0.6579 -0.6052
 3300TIP3   OH231390   4.218   6.811   4.476  0.3016 -0.1502  0.3520
 3300TIP3    H131391   4.170   6.749   4.531  0.5292 -0.9405 -0.3337
 3300TIP3    H231392   4.224   6.768   4.391  0.4619  0.8176 -0.1307
 3301TIP3   OH231393   2.996   3.534  11.365 -0.2139 -0.4273  0.1261
 3301TIP3    H131394   3.059   3.492  11.306  0.1470  1.3750 -0.8151
 3301TIP3    H231395   3.050   3.589  11.422 -0.8712  0.9410 -0.5322
 3302TIP3   OH231396   0.970   4.472   3.612  0.2000  0.0252 -0.3846
 3302TIP3    H131397   0.973   4.389   3.564  0.5985  0.7027 -1.5534
 3302TIP3    H231398   0.886   4.471   3.657  0.2487 -1.0659 -0.3080
 3303TIP3   OH231399   3.749   2.821  11.544  0.3089  0.6155 -0.5607
 3303TIP3    H131400   3.679   2.846  11.605  0.9875  1.1800  0.0039
 3303TIP3    H231401   3.712   2.750  11.492 -0.7975  1.1357 -0.4904
 3304TIP3   OH231402   3.538   4.072  17.212 -0.0664  0.4070  0.0904
 3304TIP3    H131403   3.481   3.995  17.217 -0.3471  0.5834 -0.3721
 3304TIP3    H231404   3.517   4.113  17.128 -0.7146  1.6028  0.8147
 3305TIP3   OH231405   4.130   2.585  16.594  0.3704 -0.8192 -0.0762
 3305TIP3    H131406   4.111   2.609  16.685 -1.8864 -0.4878 -0.5914
 3305TIP3    H231407   4.162   2.665  16.554  4.3856 -1.7214  1.1564
 3306TIP3   OH231408   0.739   3.435   3.726 -0.0003 -0.1565 -0.2190
 3306TIP3    H131409   0.831   3.454   3.708 -0.0512  0.7802  0.4182
 3306TIP3    H231410   0.697   3.435   3.640  0.7213 -1.3244 -0.5753
 3307TIP3   OH231411   5.137   3.563  15.731  0.5989  0.6679 -0.0346
 3307TIP3    H131412   5.144   3.581  15.824  2.9534 -0.0195 -0.0400
 3307TIP3    H231413   5.092   3.639  15.695  0.2702  1.2425  1.5593
 3308TIP3   OH231414   3.244   5.542  15.326 -0.3265  0.4221  0.4062
 3308TIP3    H131415   3.170   5.502  15.280 -1.0192  1.4575  0.6123
 3308TIP3    H231416   3.269   5.477  15.392  1.1996 -1.4200 -1.9044
 3309TIP3   OH231417   0.119   1.478  16.376  0.4352 -0.0494 -0.0492
 3309TIP3    H131418   0.093   1.559  16.333  0.5789 -0.4295 -0.8705
 3309TIP3    H231419   0.051   1.415  16.353  0.7714 -0.3878 -0.1272
 3310TIP3   OH231420   6.041   4.469  12.779  0.2749 -0.5124  0.2004
 3310TIP3    H131421   5.986   4.470  12.857 -1.1307 -0.3114 -0.7717
 3310TIP3    H231422   6.006   4.396  12.727 -0.4971  0.9647 -1.4041
 3311TIP3   OH231423   4.557   6.713  15.210 -0.5434  0.2320  0.0691
 3311TIP3    H131424   4.632   6.759  15.249 -0.4115 -0.2176  0.3426
 3311TIP3    H231425   4.530   6.769  15.137 -0.9131  1.1808  0.9170
 3312TIP3   OH231426   5.744   6.386   1.026 -0.0811  0.3087 -0.3598
 3312TIP3    H131427   5.836   6.359   1.029 -0.1467  0.0764 -0.3816
 3312TIP3    H231428   5.698   6.307   0.998 -0.1981  0.6451 -1.1402
 3313TIP3   OH231429   6.260   4.398   1.542 -0.0548  0.0935 -0.0914
 3313TIP3    H131430   6.267   4.321   1.486  0.1957  1.5959 -2.1645
 3313TIP3    H231431   6.350   4.431   1.550 -0.1665  0.2138  0.7180
 3314TIP3   OH231432   0.350   0.402  14.049 -0.2006  0.3936  0.2701
 3314TIP3    H131433   0.374   0.470  13.986 -1.9320  0.1973 -0.6427
 3314TIP3    H231434   0.394   0.427  14.130  1.2161  1.2210 -0.7417
 3315TIP3   OH231435   3.171   1.019  12.997  0.1566  0.3295 -0.2719
 3315TIP3    H131436   3.228   1.095  12.989  3.0856 -1.6978  0.4567
 3315TIP3    H231437   3.155   1.011  13.091 -1.6827  1.1124 -0.5064
 3316TIP3   OH231438   4.162   6.246  12.147 -0.1215 -0.2364 -0.7286
 3316TIP3    H131439   4.167   6.221  12.055  2.6866  1.7499 -1.1758
 3316TIP3    H231440   4.146   6.341  12.145 -1.2480 -0.3742  0.8481
 3317TIP3   OH231441   4.055   6.691  12.544  0.6225  0.1339  0.3583
 3317TIP3    H131442   4.114   6.701  12.618  1.0378  0.8718 -0.0716
 3317TIP3    H231443   4.107   6.647  12.477  0.2859 -0.4183  0.4574
 3318TIP3   OH231444   1.729   4.379   4.840 -0.2868  0.7490 -0.2276
 3318TIP3    H131445   1.768   4.346   4.759  1.2615 -1.1234  1.2379
 3318TIP3    H231446   1.734   4.474   4.830  0.2220  0.5571 -2.1720
 3319TIP3   OH231447   2.232   6.375  15.081  0.0775 -0.2637  0.0446
 3319TIP3    H131448   2.249   6.464  15.050  1.6319  0.6233  3.2303
 3319TIP3    H231449   2.149   6.382  15.129 -0.0289 -0.6302 -0.0862
 3320TIP3   OH231450   0.925   6.467  17.058  1.2186 -0.5709  0.1693
 3320TIP3    H131451   0.934   6.562  17.048  1.3491 -0.6557 -0.5061
 3320TIP3    H231452   0.974   6.430  16.985  1.3017 -1.1628  0.5196
 3321TIP3   OH231453   4.265   0.404   3.195  0.3127  0.3083  0.3216
 3321TIP3    H131454   4.208   0.442   3.261  1.6456  0.5451  1.3555
 3321TIP3    H231455   4.315   0.478   3.161  0.4483  0.0091 -0.1345
 3322TIP3   OH231456   6.708   3.310  12.258  0.2594 -0.1477  0.5349
 3322TIP3    H131457   6.779   3.365  12.225 -0.4710  0.1653 -0.5434
 3322TIP3    H231458   6.696   3.337  12.349 -0.6739  2.0987 -0.2301
 3323TIP3   OH231459   1.884   3.832   1.876 -0.0134  0.5486  0.1335
 3323TIP3    H131460   1.800   3.864   1.843 -0.0706 -0.2947 -0.5365
 3323TIP3    H231461   1.878   3.843   1.971 -0.4662  1.4793  0.0003
 3324TIP3   OH231462   4.815   3.751   3.547  0.4774 -0.4446 -0.1561
 3324TIP3    H131463   4.865   3.707   3.616 -0.6637 -1.7772 -0.1707
 3324TIP3    H231464   4.724   3.744   3.575  0.1279  0.2706 -1.0965
 3325TIP3   OH231465   4.333   1.749  15.576 -0.6673 -0.1304  0.1477
 3325TIP3    H131466   4.262   1.814  15.583  1.6520  2.4123  0.8644
 3325TIP3    H231467   4.410   1.800  15.553  1.5660 -2.4593  2.1887
 3326TIP3   OH231468   4.733   3.302  11.957 -0.3022 -0.4356 -0.2814
 3326TIP3    H131469   4.644   3.337  11.953 -0.3984 -0.7571 -0.9847
 3326TIP3    H231470   4.762   3.299  11.866 -0.1238 -1.7466 -0.1866
 3327TIP3   OH231471   5.540   4.981   2.784  0.1569  0.1442 -0.2628
 3327TIP3    H131472   5.491   4.899   2.771  0.8601 -0.4358  0.6475
 3327TIP3    H231473   5.556   4.984   2.878  4.0454 -0.9936 -0.7962
 3328TIP3   OH231474   3.247   6.150  16.602 -0.1955 -0.3365 -0.2011
 3328TIP3    H131475   3.184   6.108  16.543 -0.2742  0.5232 -0.7416
 3328TIP3    H231476   3.259   6.237  16.565  2.4352 -0.9658 -0.9690
 3329TIP3   OH231477   4.998   3.036  12.553  0.0086 -0.0075  0.3406
 3329TIP3    H131478   4.930   3.038  12.485  0.7122  0.0544 -0.3735
 3329TIP3    H231479   4.982   2.955  12.601 -1.0212  0.3703  0.6421
 3330TIP3   OH231480   3.621   4.898   0.324  0.3644 -0.2757  0.5123
 3330TIP3    H131481   3.701   4.889   0.272  0.6861  2.9613  0.3489
 3330TIP3    H231482   3.550   4.897   0.259  0.4311 -0.7201  0.4427
 3331TIP3   OH231483   6.812   2.717   2.792 -0.6532 -0.5213  0.0072
 3331TIP3    H131484   6.846   2.720   2.882  0.0832 -1.2074 -0.2438
 3331TIP3    H231485   6.824   2.806   2.759  1.0203 -0.7814 -0.1207
 3332TIP3   OH231486   5.747   2.641   2.653  0.1025  0.4394  0.5001
 3332TIP3    H131487   5.755   2.581   2.727 -0.3113 -0.8755 -0.5056
 3332TIP3    H231488   5.682   2.706   2.683  1.2429  0.9610  1.9373
 3333TIP3   OH231489   3.710   1.118   4.582 -0.2964 -0.2412  0.2817
 3333TIP3    H131490   3.677   1.076   4.503 -0.0337 -2.9573  1.5386
 3333TIP3    H231491   3.803   1.095   4.583  0.0900  1.2703  0.4906
 3334TIP3   OH231492   4.822   4.769  16.780  0.3561  0.1807  0.6026
 3334TIP3    H131493   4.884   4.771  16.708 -0.0156  1.2900  0.2941
 3334TIP3    H231494   4.865   4.819  16.850 -0.5735  1.8171  0.0425
 3335TIP3   OH231495   1.393   0.293  15.015  0.8071 -0.0889 -0.3007
 3335TIP3    H131496   1.397   0.388  15.027  0.9706 -0.0999 -0.2579
 3335TIP3    H231497   1.307   0.268  15.047  1.2110 -0.1036  0.8113
 3336TIP3   OH231498   0.613   5.517  10.869  0.3055 -0.2883 -0.5473
 3336TIP3    H131499   0.589   5.427  10.893 -1.7874  0.5802  0.7912
 3336TIP3    H231500   0.638   5.511  10.777 -1.8628 -1.9144 -1.0810
 3337TIP3   OH231501   3.890   1.631   6.507  0.2075  0.3732  0.1174
 3337TIP3    H131502   3.811   1.633   6.453 -0.2094 -1.4390  0.6212
 3337TIP3    H231503   3.913   1.538   6.513  1.4062  0.7277  1.3832
 3338TIP3   OH231504   3.532   4.547   4.178  0.0854  0.7493  0.2481
 3338TIP3    H131505   3.593   4.562   4.250  0.9202  0.0204 -0.3010
 3338TIP3    H231506   3.510   4.634   4.146 -0.2136  1.0755  1.3097
 3339TIP3   OH231507   4.544   5.635   4.059  0.1059 -0.0589  0.1511
 3339TIP3    H131508   4.468   5.693   4.063 -1.1677 -1.7165  0.5561
 3339TIP3    H231509   4.552   5.612   3.966  0.4625  0.5450  0.0268
 3340TIP3   OH231510   3.633   3.808  15.737  0.1848 -0.2853  0.3921
 3340TIP3    H131511   3.658   3.729  15.689  1.0321 -0.4505  1.0971
 3340TIP3    H231512   3.555   3.783  15.786  0.1655 -0.5302  0.2385
 3341TIP3   OH231513   4.137   0.902  17.041 -0.2148  0.0445 -0.2437
 3341TIP3    H131514   4.225   0.876  17.014 -0.4569 -0.2053 -0.8004
 3341TIP3    H231515   4.079   0.852  16.984 -0.7408 -0.4711  0.7342
 3342TIP3   OH231516   2.024   5.812   5.301  0.0193 -0.6270  0.1253
 3342TIP3    H131517   1.996   5.848   5.217  0.0399  2.1786  1.2314
 3342TIP3    H231518   1.979   5.728   5.309 -2.0455  0.2951 -1.5109
 3343TIP3   OH231519   3.170   0.824   5.352 -0.3167 -0.0932 -0.2598
 3343TIP3    H131520   3.110   0.751   5.337  0.3132 -0.7847  0.5868
 3343TIP3    H231521   3.168   0.838   5.447  1.5047 -0.6669 -0.1235
 3344TIP3   OH231522   3.543   6.454  16.997 -0.1533 -0.4063  0.8163
 3344TIP3    H131523   3.478   6.384  16.990 -0.4350 -0.0637  0.0494
 3344TIP3    H231524   3.595   6.447  16.917 -0.0498  0.1346  0.8378
 3345TIP3   OH231525   1.025   2.993  14.793 -0.1147 -0.1451  0.5563
 3345TIP3    H131526   1.093   3.004  14.726  0.9631  0.3906  1.7052
 3345TIP3    H231527   0.943   2.993  14.745  0.6719 -0.1931 -0.8043
 3346TIP3   OH231528   4.561   4.843  16.703  0.5580 -0.2701  0.0755
 3346TIP3    H131529   4.640   4.799  16.675  0.6008  0.2090 -0.5621
 3346TIP3    H231530   4.565   4.929  16.661 -1.1969 -0.9051 -1.4640
 3347TIP3   OH231531   0.685   5.954  14.984  0.4668 -0.0552  0.4041
 3347TIP3    H131532   0.602   5.988  14.950  0.3111 -0.5314  0.2984
 3347TIP3    H231533   0.717   6.022  15.043 -0.7419 -0.5107  1.6136
 3348TIP3   OH231534   5.498   1.644  12.937 -0.4211 -0.2682  0.3783
 3348TIP3    H131535   5.593   1.640  12.954 -0.4732 -0.4656  0.6339
 3348TIP3    H231536   5.484   1.586  12.863 -0.1293  0.9317 -0.6410
 3349TIP3   OH231537   6.030   5.779  12.554 -0.1368 -0.2105 -0.1221
 3349TIP3    H131538   5.972   5.830  12.610 -0.4765  1.6155 -2.0702
 3349TIP3    H231539   6.116   5.783  12.597 -0.0577  2.4413 -0.4852
 3350TIP3   OH231540   1.209   4.722   0.549 -0.5782 -0.4613 -0.0490
 3350TIP3    H131541   1.206   4.677   0.464  0.5772 -0.4501 -0.1035
 3350TIP3    H231542   1.125   4.702   0.589 -0.8043 -1.1664 -0.8524
 3351TIP3   OH231543   6.339   3.509   3.908 -0.1102 -0.1651  0.0776
 3351TIP3    H131544   6.343   3.453   3.830 -0.3780 -1.3660  0.9005
 3351TIP3    H231545   6.416   3.564   3.903  0.0306 -0.4476 -0.8878
 3352TIP3   OH231546   4.966   0.136   2.016  0.3643 -0.0133  0.2193
 3352TIP3    H131547   5.043   0.155   2.069  2.4433 -0.3343 -2.5345
 3352TIP3    H231548   4.937   0.050   2.045  0.8073  0.2632  1.5262
 3353TIP3   OH231549   1.733   2.375   2.054 -0.3767  0.5526 -0.3305
 3353TIP3    H131550   1.708   2.463   2.084  0.3167  0.8742 -0.6602
 3353TIP3    H231551   1.792   2.392   1.980 -0.3742 -0.1963 -0.4988
 3354TIP3   OH231552   0.654   1.501   2.442 -0.3926  0.6471  0.0490
 3354TIP3    H131553   0.730   1.486   2.498 -0.8605 -2.3229 -0.0194
 3354TIP3    H231554   0.691   1.534   2.360  0.9512 -1.3424 -0.2007
 3355TIP3   OH231555   4.335   5.739   1.750  0.2752 -0.5681 -0.5023
 3355TIP3    H131556   4.431   5.738   1.755  0.2885 -0.0953 -0.6735
 3355TIP3    H231557   4.315   5.782   1.668 -0.1014  0.2814  0.0261
 3356TIP3   OH231558   3.785   5.512  13.209 -0.7386 -0.5821  0.3092
 3356TIP3    H131559   3.721   5.479  13.272 -2.1932  0.0120 -0.8399
 3356TIP3    H231560   3.735   5.567  13.149  1.0311  0.7769  0.0242
 3357TIP3   OH231561   5.574   5.494   2.548  0.7217 -0.0559  0.2861
 3357TIP3    H131562   5.538   5.411   2.581 -2.3499  1.3169  0.5816
 3357TIP3    H231563   5.580   5.481   2.454 -1.7001  0.0233  0.0816
 3358TIP3   OH231564   4.427   1.115   4.713  0.3150  0.1569 -0.0731
 3358TIP3    H131565   4.501   1.060   4.687 -0.2323 -0.1887 -0.9381
 3358TIP3    H231566   4.448   1.201   4.677 -0.6519 -0.4260 -2.1537
 3359TIP3   OH231567   1.871   2.628  15.845  0.1942 -0.3139 -0.0440
 3359TIP3    H131568   1.920   2.709  15.857 -0.8417  0.3254 -0.0299
 3359TIP3    H231569   1.884   2.580  15.926  1.1349 -0.3408 -0.2048
 3360TIP3   OH231570   1.966   1.236  13.855 -0.6717 -0.6546  0.4987
 3360TIP3    H131571   1.988   1.318  13.897 -1.2112 -0.9172  1.2911
 3360TIP3    H231572   1.965   1.257  13.761  0.9314 -0.1711  0.5694
 3361TIP3   OH231573   3.108   0.137  13.101 -0.2134  0.5226  0.7383
 3361TIP3    H131574   3.171   0.206  13.082 -0.2290  0.3634  0.0596
 3361TIP3    H231575   3.024   0.182  13.105 -0.1415  0.6371  0.9566
 3362TIP3   OH231576   4.590   1.190  12.985 -0.5318 -0.6468  0.2327
 3362TIP3    H131577   4.566   1.227  12.900 -0.6228 -0.0437  0.5158
 3362TIP3    H231578   4.528   1.230  13.046  1.1112  0.8513  0.9680
 3363TIP3   OH231579   3.304   1.775   4.106 -0.6290  0.1941 -0.2119
 3363TIP3    H131580   3.295   1.768   4.201 -1.5429  0.7200 -0.2523
 3363TIP3    H231581   3.249   1.705   4.071  1.2888 -1.2922 -0.3247
 3364TIP3   OH231582   0.379   4.346   4.270 -0.1936  0.4709 -0.3508
 3364TIP3    H131583   0.447   4.357   4.336  0.0277 -0.8595 -0.3441
 3364TIP3    H231584   0.302   4.388   4.307 -0.2930 -0.9561  1.1265
 3365TIP3   OH231585   0.550   2.134   4.722  0.1392  0.5057 -0.8357
 3365TIP3    H131586   0.597   2.102   4.645  0.9370  1.9652 -0.9608
 3365TIP3    H231587   0.544   2.229   4.710  0.2815  0.7594  0.9013
 3366TIP3   OH231588   0.494   1.809  13.569 -0.8229 -0.0241  0.4604
 3366TIP3    H131589   0.469   1.893  13.608  1.4180  0.2289  1.4594
 3366TIP3    H231590   0.545   1.833  13.492 -3.4473 -0.5233 -1.5012
 3367TIP3   OH231591   2.738   3.525  15.964 -0.1376 -0.4765  0.1552
 3367TIP3    H131592   2.739   3.605  15.912  1.1727 -0.9922 -0.6241
 3367TIP3    H231593   2.736   3.555  16.055  0.4756  0.4409 -0.1291
 3368TIP3   OH231594   4.794   1.953  15.410  0.1323  0.0325  0.2721
 3368TIP3    H131595   4.795   2.037  15.457 -1.4317  0.3005 -0.1186
 3368TIP3    H231596   4.834   1.973  15.325 -0.4101  0.4406  0.1061
 3369TIP3   OH231597   3.363   4.432   3.286 -0.3069 -0.3705  0.1539
 3369TIP3    H131598   3.271   4.409   3.280 -0.4115 -0.6367  2.2076
 3369TIP3    H231599   3.405   4.385   3.215 -1.9914  1.1156 -1.8871
 3370TIP3   OH231600   5.231   1.353  12.350  0.2789 -0.1951  0.6356
 3370TIP3    H131601   5.309   1.398  12.383  0.4584  0.0679 -0.1292
 3370TIP3    H231602   5.202   1.408  12.277  1.2496 -1.9928 -1.1739
 3371TIP3   OH231603   5.909   2.689   1.378 -0.3757 -0.0076 -0.0636
 3371TIP3    H131604   5.993   2.673   1.336 -1.6711  0.2194 -2.8471
 3371TIP3    H231605   5.896   2.784   1.370 -1.2307 -0.1435 -0.3365
 3372TIP3   OH231606   4.713   2.079  10.988 -0.9385  0.3863  0.2532
 3372TIP3    H131607   4.740   2.128  10.910  1.0534  0.7121  1.1081
 3372TIP3    H231608   4.739   1.989  10.969 -0.8574  0.3881  0.3570
 3373TIP3   OH231609   5.431   1.180  17.262  0.3165  0.6415 -0.2295
 3373TIP3    H131610   5.409   1.261  17.309 -2.7202  2.0007 -3.6399
 3373TIP3    H231611   5.515   1.199  17.221  0.4767  1.4113  0.4306
 3374TIP3   OH231612   2.071   4.176   0.218 -0.3955 -0.4523  0.6215
 3374TIP3    H131613   2.160   4.203   0.241 -0.9591  1.8800  0.1948
 3374TIP3    H231614   2.044   4.119   0.290  1.0040 -0.2051  1.3553
 3375TIP3   OH231615   1.963   0.313   2.017 -0.0956  0.1884  0.1051
 3375TIP3    H131616   2.004   0.376   1.958 -1.7618  2.4408  1.2831
 3375TIP3    H231617   2.036   0.262   2.051  1.3187  1.5301 -0.8294
 3376TIP3   OH231618   0.793   0.402  13.425 -0.1552 -0.5116  0.3089
 3376TIP3    H131619   0.702   0.375  13.439 -0.4902 -0.3363 -1.4088
 3376TIP3    H231620   0.803   0.481  13.478 -1.5856  0.5444 -0.9210
 3377TIP3   OH231621   0.127   5.474  15.755 -0.2262  0.1382  0.9196
 3377TIP3    H131622   0.173   5.458  15.837  1.2950 -0.0650  0.0492
 3377TIP3    H231623   0.163   5.409  15.695  0.8053  2.1308 -0.6952
 3378TIP3   OH231624   6.401   1.369  13.493 -1.4714  0.4610 -0.0746
 3378TIP3    H131625   6.459   1.293  13.502 -1.5212  0.3212 -0.8793
 3378TIP3    H231626   6.337   1.358  13.563 -1.0697  0.1191  0.2425
 3379TIP3   OH231627   2.389   2.762   3.645  0.4562 -0.3633 -0.1094
 3379TIP3    H131628   2.390   2.711   3.564  1.0507 -0.4696 -0.0404
 3379TIP3    H231629   2.481   2.764   3.672  0.4189  0.6298 -0.0415
 3380TIP3   OH231630   5.580   1.482   2.641 -0.1034  0.7230 -0.5388
 3380TIP3    H131631   5.504   1.485   2.699  0.0033 -0.3935 -0.3418
 3380TIP3    H231632   5.638   1.550   2.674 -0.2538  0.4127  0.3708
 3381TIP3   OH231633   4.401   2.080  13.515 -0.6750 -0.2589  0.0688
 3381TIP3    H131634   4.350   2.157  13.489  1.7892  1.0495 -1.0835
 3381TIP3    H231635   4.343   2.006  13.499 -2.0303  1.1490 -1.7241
 3382TIP3   OH231636   5.929   1.404   1.459  0.1678 -0.2916  0.0293
 3382TIP3    H131637   5.833   1.405   1.464  0.2375 -0.3565  1.7130
 3382TIP3    H231638   5.957   1.476   1.515  1.1003  0.5613 -1.4782
 3383TIP3   OH231639   6.684   6.224  13.081 -0.2759  0.2838 -0.8928
 3383TIP3    H131640   6.673   6.200  13.173  1.6398 -0.2331 -0.7842
 3383TIP3    H231641   6.612   6.285  13.063 -1.3654 -0.5313  0.6047
 3384TIP3   OH231642   1.027   4.889   1.283 -0.1639  0.5726  0.2251
 3384TIP3    H131643   1.009   4.833   1.358 -0.6782 -0.3675 -0.5727
 3384TIP3    H231644   0.953   4.875   1.224  0.2216  1.2990 -0.4509
 3385TIP3   OH231645   6.008   5.073  12.330  0.0813  0.5956  0.3814
 3385TIP3    H131646   5.958   5.096  12.408  0.0941 -1.3991  1.0079
 3385TIP3    H231647   6.099   5.088  12.355  0.0338  0.7751  0.4515
 3386TIP3   OH231648   5.508   5.119  16.408  0.1723 -0.0360  0.3534
 3386TIP3    H131649   5.597   5.151  16.392  0.3011 -0.2205  0.7050
 3386TIP3    H231650   5.468   5.185  16.465 -0.3131  0.6595 -0.7568
 3387TIP3   OH231651   4.618   2.067  17.285 -0.2227 -0.5111 -0.0464
 3387TIP3    H131652   4.600   2.140  17.226 -1.4620  0.9886  2.1303
 3387TIP3    H231653   4.672   2.008  17.233  0.1776  1.5812 -2.1157
 3388TIP3   OH231654   6.605   5.643   2.520 -0.1139 -0.0313 -0.1885
 3388TIP3    H131655   6.627   5.643   2.613 -0.2986  1.1059 -0.1403
 3388TIP3    H231656   6.630   5.730   2.489  1.4108 -0.9379 -1.5593
 3389TIP3   OH231657   4.200   1.773  14.400 -0.9322  0.4055  0.1039
 3389TIP3    H131658   4.223   1.687  14.434  0.2084  1.2360  1.5142
 3389TIP3    H231659   4.120   1.797  14.448 -2.7461 -0.9401 -2.1679
 3390TIP3   OH231660   0.427   3.434   0.780  0.1309  0.4218 -1.0776
 3390TIP3    H131661   0.351   3.486   0.753  0.2487  0.7165 -0.8547
 3390TIP3    H231662   0.390   3.351   0.809 -0.0623  0.3810 -1.4403
 3391TIP3   OH231663   4.512   5.299   2.147  0.0681 -0.0908  0.7957
 3391TIP3    H131664   4.572   5.370   2.171  0.0033 -0.3408  1.7391
 3391TIP3    H231665   4.427   5.341   2.137  0.0493 -0.0067  1.2628
 3392TIP3   OH231666   5.890   1.612   0.667  0.5353  0.4168 -0.6237
 3392TIP3    H131667   5.926   1.547   0.607  3.2802  0.5689  0.7979
 3392TIP3    H231668   5.912   1.578   0.754 -0.7827  1.6911  0.2280
 3393TIP3   OH231669   5.969   6.779  10.480 -0.0726  0.3300 -0.1069
 3393TIP3    H131670   5.965   6.867  10.517  1.0821  0.8112 -1.1151
 3393TIP3    H231671   6.019   6.728  10.544 -0.3746  0.5090  0.2713
 3394TIP3   OH231672   1.997   4.761   5.543 -0.1977 -0.4705  0.6048
 3394TIP3    H131673   1.910   4.725   5.557 -1.2465  1.7800  0.1726
 3394TIP3    H231674   2.008   4.824   5.615  1.1559 -0.9118  0.7931
 3395TIP3   OH231675   2.751   1.534   2.842  0.3997 -0.3174 -0.4018
 3395TIP3    H131676   2.716   1.486   2.916 -1.0976 -1.2451 -1.6825
 3395TIP3    H231677   2.846   1.520   2.847  0.3081 -0.4111  1.2805
 3396TIP3   OH231678   2.654   5.157  12.669  0.1174  0.6319  0.2172
 3396TIP3    H131679   2.675   5.171  12.762  1.6019  0.9624 -0.1607
 3396TIP3    H231680   2.683   5.068  12.651  0.8503  0.9598 -0.2160
 3397TIP3   OH231681   0.066   3.586   3.457  0.2866 -0.3033  0.0082
 3397TIP3    H131682   0.100   3.675   3.456 -1.2786  0.3016  0.1063
 3397TIP3    H231683   0.023   3.575   3.372  0.8932 -1.1387 -0.2035
 3398TIP3   OH231684   1.643   0.105   6.347 -0.6349  0.3738 -0.7155
 3398TIP3    H131685   1.731   0.109   6.384  0.2023  2.2493 -2.8289
 3398TIP3    H231686   1.630   0.013   6.323  0.5959  0.0336 -0.0792
 3399TIP3   OH231687   4.551   0.954  13.102  0.4957  0.4624 -0.0322
 3399TIP3    H131688   4.557   1.043  13.067 -0.1488  0.7689  0.6061
 3399TIP3    H231689   4.626   0.908  13.065 -0.3052  0.7060 -2.0073
 3400TIP3   OH231690   6.203   1.129   0.447 -0.3294 -0.1604  0.1578
 3400TIP3    H131691   6.238   1.056   0.396 -1.3403 -0.0973 -0.6603
 3400TIP3    H231692   6.269   1.198   0.440 -0.6164 -0.0099 -1.4320
 3401TIP3   OH231693   0.608   1.056   3.064 -0.5822 -0.3490 -0.1822
 3401TIP3    H131694   0.548   1.003   3.012 -0.3036 -0.3635 -0.4907
 3401TIP3    H231695   0.661   0.993   3.112 -1.9417 -0.3261  1.3973
 3402TIP3   OH231696   2.717   2.475   5.718 -0.7386 -0.3931  0.5313
 3402TIP3    H131697   2.670   2.531   5.657 -0.4346 -0.4175  0.2746
 3402TIP3    H231698   2.666   2.395   5.722 -1.0622 -0.1769  0.7407
 3403TIP3   OH231699   5.398   5.828   5.812  0.2761  0.1808  0.1735
 3403TIP3    H131700   5.468   5.811   5.750  2.2697 -3.4917  3.2492
 3403TIP3    H231701   5.442   5.858   5.891 -1.7440 -0.5168  1.6089
 3404TIP3   OH231702   4.143   1.210  16.771  0.1776  0.2398  0.1585
 3404TIP3    H131703   4.183   1.222  16.857 -0.4963 -2.4886  0.9018
 3404TIP3    H231704   4.091   1.289  16.757 -1.3161 -0.1528  3.1518
 3405TIP3   OH231705   4.978   4.595   2.148 -0.4593  0.3014  0.0513
 3405TIP3    H131706   4.977   4.656   2.222 -2.1097 -0.7515  0.9152
 3405TIP3    H231707   4.985   4.509   2.188 -0.8815 -0.2498 -1.0448
 3406TIP3   OH231708   3.175   3.467  13.623 -0.4419 -0.3844 -0.1721
 3406TIP3    H131709   3.250   3.424  13.665 -1.7150 -0.2590  2.3025
 3406TIP3    H231710   3.205   3.485  13.534  2.6971  0.1604  0.9177
 3407TIP3   OH231711   3.270   3.171   0.289 -0.4385  0.4771 -0.0451
 3407TIP3    H131712   3.227   3.230   0.351  0.9255  1.6520 -0.1755
 3407TIP3    H231713   3.342   3.223   0.253  0.3475 -1.0385 -0.7113
 3408TIP3   OH231714   3.785   2.450   1.595 -0.0161  0.2724 -0.5171
 3408TIP3    H131715   3.747   2.412   1.517 -3.3432  0.1297  1.0829
 3408TIP3    H231716   3.769   2.544   1.586  0.6874  0.3917 -0.5627
 3409TIP3   OH231717   1.079   4.126  14.876 -0.6377  0.5133 -0.0102
 3409TIP3    H131718   0.990   4.100  14.854  0.0119 -0.4384 -1.5650
 3409TIP3    H231719   1.101   4.073  14.953 -1.5057  0.9847  0.5759
 3410TIP3   OH231720   1.402   0.466   5.786 -0.5586 -0.9429  0.7326
 3410TIP3    H131721   1.458   0.519   5.729 -0.2828 -1.2469  0.7259
 3410TIP3    H231722   1.439   0.378   5.783 -0.7389 -1.0351  1.1248
 3411TIP3   OH231723   5.898   5.090  13.708  0.2673  0.6315 -0.0740
 3411TIP3    H131724   5.928   5.163  13.762 -1.0205  1.7779 -0.8885
 3411TIP3    H231725   5.826   5.052  13.758 -0.8203  1.5938 -0.9045
 3412TIP3   OH231726   6.449   6.441  11.198 -0.0214 -0.3888 -0.2403
 3412TIP3    H131727   6.531   6.394  11.213  0.5404  0.5405 -0.3481
 3412TIP3    H231728   6.465   6.529  11.231 -0.6902  0.0453 -1.0380
 3413TIP3   OH231729   3.538   3.128  16.455  0.7632 -0.0385 -0.2382
 3413TIP3    H131730   3.542   3.125  16.550  3.1744 -1.2564 -0.3477
 3413TIP3    H231731   3.482   3.054  16.431 -0.7071  0.8949  0.2487
 3414TIP3   OH231732   1.581   1.189   0.660 -0.1992  0.5032  0.3083
 3414TIP3    H131733   1.629   1.266   0.627 -1.2302  0.8969 -0.3126
 3414TIP3    H231734   1.524   1.164   0.587  1.2800 -1.8428 -0.0897
 3415TIP3   OH231735   5.670   4.636   3.496 -0.2055 -0.3853  0.7745
 3415TIP3    H131736   5.678   4.725   3.532 -1.4129 -0.2646  0.7360
 3415TIP3    H231737   5.706   4.580   3.565 -0.0095  0.0735  1.0545
 3416TIP3   OH231738   0.928   4.908   1.586  0.0077  0.3125  0.0063
 3416TIP3    H131739   0.880   4.828   1.564  1.6188 -0.2067 -1.7544
 3416TIP3    H231740   0.915   4.919   1.680  0.7596 -2.6901  0.4904
 3417TIP3   OH231741   6.737   4.173  16.652 -0.2334  0.5976 -0.1698
 3417TIP3    H131742   6.729   4.176  16.748  0.8444 -1.4382  0.0036
 3417TIP3    H231743   6.671   4.110  16.624 -1.7364  2.4802 -0.9506
 3418TIP3   OH231744   5.933   3.609  14.284  0.2074 -0.6531 -0.3556
 3418TIP3    H131745   5.865   3.580  14.345  0.8804  1.0894  1.2757
 3418TIP3    H231746   5.894   3.685  14.240  0.5512 -0.5450 -0.4720
 3419TIP3   OH231747   5.983   2.206   6.661  0.6621 -0.2724  0.1779
 3419TIP3    H131748   5.953   2.119   6.635 -2.7590  0.8270  0.1762
 3419TIP3    H231749   5.948   2.217   6.750 -2.0966  2.4480 -1.1722
 3420TIP3   OH231750   2.217   6.031   3.365  0.0297 -0.0556 -0.1696
 3420TIP3    H131751   2.275   5.954   3.368 -0.9419 -0.7708  0.4732
 3420TIP3    H231752   2.217   6.064   3.454 -0.9888 -0.3899 -0.0430
 3421TIP3   OH231753   2.306   1.915  12.934  0.4666 -0.3264 -0.2547
 3421TIP3    H131754   2.215   1.906  12.962  1.5009 -0.3151  3.3579
 3421TIP3    H231755   2.324   1.834  12.885 -0.4084 -2.0789  2.2346
 3422TIP3   OH231756   5.573   2.753   0.631 -0.3414 -0.0522  0.0468
 3422TIP3    H131757   5.543   2.738   0.541 -0.3517  2.1613 -0.3534
 3422TIP3    H231758   5.494   2.754   0.683 -0.3205 -1.5602  0.1436
 3423TIP3   OH231759   4.728   5.934   2.190 -0.0405 -0.2779  0.4228
 3423TIP3    H131760   4.693   5.965   2.107  0.6466  0.6922  0.4920
 3423TIP3    H231761   4.777   6.008   2.226  2.1154 -1.6016  0.3062
 3424TIP3   OH231762   0.048   0.062  16.919  0.4937  0.0615  0.1983
 3424TIP3    H131763   0.000  -0.021  16.917  0.3647  0.1539 -0.6563
 3424TIP3    H231764  -0.017   0.127  16.944  0.3390  0.0836 -0.2756
 3425TIP3   OH231765   1.367   2.745  14.705 -0.1013  0.0255 -0.6648
 3425TIP3    H131766   1.439   2.808  14.709 -1.4780  1.5937  0.1342
 3425TIP3    H231767   1.308   2.772  14.775 -1.6442 -1.0193 -1.5360
 3426TIP3   OH231768   3.239   1.395  11.607  0.0478 -0.1701 -0.2112
 3426TIP3    H131769   3.249   1.449  11.528  0.2707 -0.5533 -0.4427
 3426TIP3    H231770   3.240   1.458  11.679 -0.5671  0.2216 -0.5425
 3427TIP3   OH231771   0.646   0.969   2.739  0.1321 -0.0394  0.1389
 3427TIP3    H131772   0.570   1.022   2.715 -1.2037 -2.3108 -0.8334
 3427TIP3    H231773   0.720   1.014   2.700 -1.0891  0.5493 -1.5499
 3428TIP3   OH231774   0.384   0.801   1.443 -0.4294  0.4400  0.4257
 3428TIP3    H131775   0.421   0.806   1.531  0.1883  1.0360  0.1457
 3428TIP3    H231776   0.389   0.891   1.410  0.4466  0.0151 -0.6546
 3429TIP3   OH231777   3.477   1.185   1.535  0.6716  0.1116  0.1514
 3429TIP3    H131778   3.511   1.151   1.452 -1.0720 -1.8658  0.1993
 3429TIP3    H231779   3.502   1.277   1.535  1.2666 -0.0109 -2.2914
 3430TIP3   OH231780   5.548   2.806  16.810 -0.1799 -0.1510  0.6128
 3430TIP3    H131781   5.482   2.846  16.866 -3.2905 -0.3248 -2.7164
 3430TIP3    H231782   5.509   2.722  16.783  1.5943 -0.4921 -1.0174
 3431TIP3   OH231783   3.847   2.850  16.787  0.0131  0.3848 -0.1440
 3431TIP3    H131784   3.854   2.800  16.706 -0.4700  0.0276  0.0324
 3431TIP3    H231785   3.792   2.796  16.844  1.3329  0.0759  0.8550
 3432TIP3   OH231786   3.131   3.286   4.587  0.1483  0.1525  0.4334
 3432TIP3    H131787   3.177   3.223   4.531 -1.3893 -0.1850 -0.4647
 3432TIP3    H231788   3.177   3.280   4.671  0.9904 -1.0458 -0.0886
 3433TIP3   OH231789   0.400   3.774  11.992  0.7773  0.2077 -0.0242
 3433TIP3    H131790   0.427   3.764  12.084 -0.9539  0.1169  0.4856
 3433TIP3    H231791   0.386   3.868  11.981 -1.5639 -0.0417  0.5640
 3434TIP3   OH231792   3.750   4.970   4.914  0.3678  0.2643  0.3630
 3434TIP3    H131793   3.826   4.924   4.876  1.3612  0.7027  1.7691
 3434TIP3    H231794   3.729   4.919   4.993 -0.2205  0.6800  0.4701
 3435TIP3   OH231795   1.060   1.995  17.046 -0.2969 -0.1299  0.0905
 3435TIP3    H131796   1.071   2.079  17.090 -2.2623  0.8301 -1.1849
 3435TIP3    H231797   1.060   2.016  16.953  2.7573 -2.0115 -0.4062
 3436TIP3   OH231798   1.752   6.044   0.635  0.2084  0.8695  0.4312
 3436TIP3    H131799   1.671   6.093   0.620 -0.2289 -0.3110 -1.3174
 3436TIP3    H231800   1.821   6.104   0.609 -0.2337  1.1873 -0.0320
 3437TIP3   OH231801   2.597   1.281   2.965  0.5051 -0.0355  0.4826
 3437TIP3    H131802   2.512   1.261   2.926  0.2460  1.9425 -0.0036
 3437TIP3    H231803   2.639   1.195   2.975 -0.9095 -0.8958 -0.6992
 3438TIP3   OH231804   1.293   4.167   0.331 -0.2210  0.1798  0.0358
 3438TIP3    H131805   1.214   4.113   0.326  0.7972 -1.3127 -0.6194
 3438TIP3    H231806   1.322   4.158   0.422  0.5687 -1.3621 -0.3367
 3439TIP3   OH231807   4.583   5.885  11.907  0.2148 -0.0509 -0.1176
 3439TIP3    H131808   4.556   5.977  11.910 -2.0789 -0.6745 -0.1587
 3439TIP3    H231809   4.545   5.847  11.987  3.1964 -0.4821  1.1792
 3440TIP3   OH231810   1.484   1.738   6.452  0.5959  0.0422 -0.6156
 3440TIP3    H131811   1.388   1.737   6.456  0.5552  0.2500 -1.4242
 3440TIP3    H231812   1.511   1.774   6.536 -0.0639  0.6398 -0.6513
 3441TIP3   OH231813   6.045   1.039   2.110  0.2799  0.0632  0.4534
 3441TIP3    H131814   6.023   1.088   2.190 -2.2408 -3.8124  2.2640
 3441TIP3    H231815   6.128   0.997   2.131  0.0852 -0.2094  0.6817
 3442TIP3   OH231816   2.401   6.553  11.620  0.4960 -0.0257  0.2608
 3442TIP3    H131817   2.444   6.568  11.704 -0.9414  0.8464  0.8614
 3442TIP3    H231818   2.462   6.499  11.571  1.4334 -0.3955  1.8036
 3443TIP3   OH231819   3.865   3.370  12.712  0.0466  0.0602 -0.2906
 3443TIP3    H131820   3.952   3.389  12.748 -0.0236 -0.3881  0.1252
 3443TIP3    H231821   3.825   3.311  12.776  0.0261 -0.9928 -1.2415
 3444TIP3   OH231822   5.955   1.821   1.325  0.4253 -0.0320 -0.3492
 3444TIP3    H131823   5.886   1.754   1.320 -0.3007  0.4357  2.5807
 3444TIP3    H231824   5.910   1.903   1.302 -0.1023  0.3026  1.7458
 3445TIP3   OH231825   0.889   4.532  11.395 -0.4013  0.0174  0.8486
 3445TIP3    H131826   0.898   4.521  11.301  3.1135 -1.1129  1.2607
 3445TIP3    H231827   0.878   4.442  11.428 -0.3445  0.2995  1.6349
 3446TIP3   OH231828   6.366   5.454  12.221  0.6737  0.2656 -0.0383
 3446TIP3    H131829   6.383   5.451  12.315 -0.6588 -1.9162  0.1845
 3446TIP3    H231830   6.406   5.536  12.192 -1.0829  2.2467  2.8560
 3447TIP3   OH231831   2.243   4.101  15.990  0.3410 -0.3115 -0.1840
 3447TIP3    H131832   2.150   4.122  15.997 -0.2524 -3.0374  0.9337
 3447TIP3    H231833   2.269   4.078  16.079  1.5664 -1.5975 -0.8510
 3448TIP3   OH231834   2.022   5.659  15.421  0.2195  0.0504 -0.1874
 3448TIP3    H131835   2.078   5.633  15.494  0.5620 -1.1015 -0.8383
 3448TIP3    H231836   2.004   5.752  15.435  1.0368  0.0528  0.8527
 3449TIP3   OH231837   0.228   0.778  14.182  0.0655  0.0651  0.3585
 3449TIP3    H131838   0.192   0.862  14.211  0.8178  0.9777 -1.2310
 3449TIP3    H231839   0.212   0.777  14.087  0.1990 -1.5199  0.3411
 3450TIP3   OH231840   4.768   6.123  16.780  0.1288  0.2943 -0.4928
 3450TIP3    H131841   4.855   6.144  16.747  0.4888  0.3010  0.4218
 3450TIP3    H231842   4.709   6.141  16.708  1.0040 -0.7428 -1.4855
 3451TIP3   OH231843   1.268   6.381   5.784  0.2365  0.0521  0.5924
 3451TIP3    H131844   1.355   6.422   5.779  0.2214 -0.1171 -1.8265
 3451TIP3    H231845   1.286   6.287   5.776 -0.0580 -0.0861  1.5827
 3452TIP3   OH231846   0.668   6.342  13.955 -0.4364  0.2715 -0.6839
 3452TIP3    H131847   0.757   6.337  13.921 -0.5145 -0.4448 -0.7957
 3452TIP3    H231848   0.649   6.253  13.986 -0.7189  0.6792  0.3374
 3453TIP3   OH231849   5.276   5.662  17.206  0.3505  0.4469  0.5462
 3453TIP3    H131850   5.245   5.717  17.134  2.4312 -0.5562 -1.1528
 3453TIP3    H231851   5.266   5.573  17.175  1.0998 -0.0094  1.5903
 3454TIP3   OH231852   1.570   0.623   0.366  0.7751  0.4911  0.2350
 3454TIP3    H131853   1.543   0.564   0.436 -1.6635  0.5030 -0.6499
 3454TIP3    H231854   1.597   0.566   0.294  0.6050  0.4599  0.1956
 3455TIP3   OH231855   4.891   5.221  16.832 -0.0611 -0.1963  0.3566
 3455TIP3    H131856   4.831   5.160  16.875 -0.8643 -0.8034 -1.5450
 3455TIP3    H231857   4.913   5.178  16.749  0.6440  1.3658 -0.2814
 3456TIP3   OH231858   2.097   3.784  14.169 -0.6962  0.4704 -0.8487
 3456TIP3    H131859   2.171   3.752  14.118  0.0335  0.5346  0.1537
 3456TIP3    H231860   2.030   3.805  14.104  0.5117  1.3231 -1.8302
 3457TIP3   OH231861   4.325   2.595   5.204 -0.4635  0.1844 -0.4057
 3457TIP3    H131862   4.371   2.663   5.253 -0.3203 -1.0652  1.2328
 3457TIP3    H231863   4.306   2.635   5.119 -0.9303  2.4605  0.7529
 3458TIP3   OH231864   2.271   5.028   1.659 -0.2316 -0.4339 -0.5666
 3458TIP3    H131865   2.361   5.062   1.657 -0.4528  0.2205  0.7466
 3458TIP3    H231866   2.232   5.066   1.737 -1.5528 -1.0078 -0.9345
 3459TIP3   OH231867   5.500   5.603  16.513 -0.3542  0.4153  0.6389
 3459TIP3    H131868   5.481   5.582  16.421  2.1308  0.3401  0.1053
 3459TIP3    H231869   5.579   5.553  16.533 -0.8941  0.3909  2.8570
 3460TIP3   OH231870   1.109   4.301  14.643  0.0372 -0.0980  0.3167
 3460TIP3    H131871   1.046   4.264  14.580  1.8931 -1.8005 -0.5941
 3460TIP3    H231872   1.086   4.394  14.648 -1.1531 -0.2492 -1.6859
 3461TIP3   OH231873   5.618   5.389   3.413 -0.0762  0.0183  0.3667
 3461TIP3    H131874   5.540   5.419   3.366 -1.0847 -1.5881  0.9466
 3461TIP3    H231875   5.668   5.340   3.348 -1.2464 -1.8184  0.8099
 3462TIP3   OH231876   0.662   4.140   2.429  0.6222  0.5216 -0.3622
 3462TIP3    H131877   0.574   4.170   2.456  1.0226 -0.2607  1.9381
 3462TIP3    H231878   0.660   4.143   2.333 -1.9038  0.5698 -0.3483
 3463TIP3   OH231879   0.745   4.430   0.230  0.2502  0.1408  0.1508
 3463TIP3    H131880   0.674   4.454   0.170  1.3395 -0.5530 -1.4361
 3463TIP3    H231881   0.738   4.335   0.238  1.4673 -0.0240 -0.6308
 3464TIP3   OH231882   0.083   1.838  11.124 -0.1045  0.1771  0.4756
 3464TIP3    H131883  -0.006   1.826  11.158  0.3456  0.5535  1.8164
 3464TIP3    H231884   0.137   1.854  11.202  0.7456  2.3186 -0.4999
 3465TIP3   OH231885   0.709   0.110   3.031 -0.1596  0.1096 -0.4505
 3465TIP3    H131886   0.696   0.133   3.123  1.4108  0.6664 -0.3634
 3465TIP3    H231887   0.739   0.019   3.032 -0.9649 -0.1603 -0.4695
 3466TIP3   OH231888   6.539   0.008   3.166  0.1559  0.2006 -0.3352
 3466TIP3    H131889   6.455   0.002   3.212  0.5150 -0.2798  0.2662
 3466TIP3    H231890   6.585  -0.073   3.189  1.4431  1.1974  0.6743
 3467TIP3   OH231891   1.560   6.467  13.603 -0.1506 -0.3246 -0.2243
 3467TIP3    H131892   1.648   6.481  13.569  0.1715 -0.0623  0.6978
 3467TIP3    H231893   1.509   6.542  13.572  0.0985 -0.1653 -0.2459
 3468TIP3   OH231894   1.972   5.368   0.362 -0.1074 -0.0993 -0.0533
 3468TIP3    H131895   1.935   5.445   0.406  0.1424 -0.2824  0.4781
 3468TIP3    H231896   1.962   5.297   0.425 -1.3416 -0.7562 -0.9575
 3469TIP3   OH231897   5.154   6.070   5.018 -0.3224 -0.6754 -0.5509
 3469TIP3    H131898   5.093   6.134   5.056  0.3312 -0.4915  0.1862
 3469TIP3    H231899   5.130   5.987   5.060 -1.2180 -0.9410 -1.5613
 3470TIP3   OH231900   5.060   3.058  16.845  0.1322  0.1643 -0.1963
 3470TIP3    H131901   5.031   3.147  16.825  3.2318  1.3508  0.3701
 3470TIP3    H231902   5.006   3.032  16.920 -2.2076  0.7483 -1.6204
 3471TIP3   OH231903   1.049   3.985  12.740  0.3032 -0.1948  0.7970
 3471TIP3    H131904   1.094   3.906  12.768 -0.3350  0.1147  2.7395
 3471TIP3    H231905   1.027   4.031  12.821 -1.2004  0.9267 -0.2104
 3472TIP3   OH231906   2.180   3.094   1.596  0.3641 -0.2347  0.5172
 3472TIP3    H131907   2.241   3.165   1.578  0.5337 -0.4951  0.0309
 3472TIP3    H231908   2.236   3.021   1.623  0.3158 -0.6457 -0.4854
 3473TIP3   OH231909   4.180   3.481   5.622 -0.6525 -0.7833  0.5587
 3473TIP3    H131910   4.122   3.422   5.573 -0.7827  0.3758 -0.7267
 3473TIP3    H231911   4.125   3.517   5.691 -0.4330 -2.5378  1.7012
 3474TIP3   OH231912   5.175   4.346  11.324 -0.6555 -0.5176  0.1266
 3474TIP3    H131913   5.151   4.434  11.352  1.4500  0.9165 -2.2801
 3474TIP3    H231914   5.238   4.316  11.389 -1.0646 -0.0625  0.7302
 3475TIP3   OH231915   1.646   3.397  15.615 -0.5574  0.1449  0.4214
 3475TIP3    H131916   1.685   3.476  15.577 -0.9889  0.1273 -0.0636
 3475TIP3    H231917   1.682   3.325  15.563 -0.2735  0.0343  0.7742
 3476TIP3   OH231918   1.360   2.084  11.713  0.7570 -0.5921  0.0596
 3476TIP3    H131919   1.450   2.061  11.736  0.9883  1.7302  1.7131
 3476TIP3    H231920   1.324   2.005  11.675  4.1749 -0.9156 -2.7622
 3477TIP3   OH231921   4.935   4.571  14.782 -0.1929  0.0359  0.3579
 3477TIP3    H131922   4.916   4.613  14.866  1.1020  2.0869 -0.3248
 3477TIP3    H231923   4.955   4.481  14.804 -1.3201  0.1752  2.0826
 3478TIP3   OH231924   2.356   0.535  12.081  0.1420  0.1957 -0.4737
 3478TIP3    H131925   2.378   0.604  12.018 -0.5639  0.6791 -0.2066
 3478TIP3    H231926   2.433   0.527  12.136  0.0345  1.1657 -0.1672
 3479TIP3   OH231927   1.294   3.666  11.712 -0.0953  0.2086  0.1788
 3479TIP3    H131928   1.213   3.716  11.722 -0.0737  0.1749  0.5444
 3479TIP3    H231929   1.362   3.731  11.698 -0.0107  0.3021  1.0230
 3480TIP3   OH231930   3.991   2.151   2.558  0.0738 -0.4577  0.1641
 3480TIP3    H131931   3.989   2.071   2.610  1.6590 -0.2459  0.5652
 3480TIP3    H231932   3.924   2.138   2.491 -0.8304 -1.4246  1.2355
 3481TIP3   OH231933   3.622   6.695   3.168  0.1807 -0.1719 -0.2547
 3481TIP3    H131934   3.593   6.612   3.204 -1.2415  0.9198  1.1509
 3481TIP3    H231935   3.586   6.697   3.079 -0.3912 -0.7366 -0.0361
 3482TIP3   OH231936   5.557   1.644  11.133 -0.5625  0.6572  0.0849
 3482TIP3    H131937   5.571   1.653  11.228 -1.7645  1.1589  0.2312
 3482TIP3    H231938   5.462   1.634  11.124 -0.4992  1.0729 -1.1043
 3483TIP3   OH231939   3.093   5.895   4.968 -0.8317  0.1201 -0.2808
 3483TIP3    H131940   3.082   5.819   4.911 -1.5218  0.6410 -0.8586
 3483TIP3    H231941   3.097   5.969   4.908  0.3305  0.4987  0.2535
 3484TIP3   OH231942   5.078   4.771  16.028  0.2350  0.5690  0.4009
 3484TIP3    H131943   5.165   4.807  16.044  1.1149 -0.9133 -0.8710
 3484TIP3    H231944   5.093   4.677  16.016 -1.5687  0.2631  0.4115
 3485TIP3   OH231945   5.217   2.675  14.123  0.6673 -0.4740 -0.2223
 3485TIP3    H131946   5.244   2.642  14.038  0.1470 -1.6087  0.0461
 3485TIP3    H231947   5.298   2.679  14.174  0.8940 -0.3242 -0.5932
 3486TIP3   OH231948   2.189   0.861   4.061  0.5533 -0.5965 -0.1576
 3486TIP3    H131949   2.210   0.848   3.968  1.8168 -2.3243  0.3504
 3486TIP3    H231950   2.139   0.783   4.085 -0.1582  0.0594  0.4986
 3487TIP3   OH231951   1.407   3.496  14.659  0.4761 -0.1219  0.0609
 3487TIP3    H131952   1.329   3.551  14.654  0.3849 -0.3299 -0.8426
 3487TIP3    H231953   1.436   3.488  14.568  0.6573 -1.3234  0.2263
 3488TIP3   OH231954   6.374   0.067   6.848  0.2164  0.4639 -0.0117
 3488TIP3    H131955   6.372   0.080   6.753  0.8761  2.4146  0.2065
 3488TIP3    H231956   6.439   0.130   6.879  0.8996 -1.0173  1.6132
 3489TIP3   OH231957   4.375   4.655  16.001 -1.1839 -0.5629  0.1242
 3489TIP3    H131958   4.450   4.715  16.003 -0.8763 -0.9325 -0.2078
 3489TIP3    H231959   4.363   4.630  16.092 -0.0987 -1.4851  0.0279
 3490TIP3   OH231960   0.538   5.572  13.369  0.1640  0.2249  0.2255
 3490TIP3    H131961   0.564   5.646  13.314  0.1702  1.0199  1.2849
 3490TIP3    H231962   0.620   5.541  13.408  0.0196  0.3431  0.6241
 3491TIP3   OH231963   2.483   4.303  11.491 -0.4169  0.4016  0.0176
 3491TIP3    H131964   2.425   4.369  11.453  1.2301  2.0100  0.2748
 3491TIP3    H231965   2.446   4.284  11.577 -0.3115  1.7419  0.3571
 3492TIP3   OH231966   4.415   6.272  14.728  0.4618  0.6109 -0.2421
 3492TIP3    H131967   4.335   6.249  14.680  0.2912  1.5166 -0.4138
 3492TIP3    H231968   4.395   6.357  14.767  0.8257  0.1652  0.9388
 3493TIP3   OH231969   1.979   3.545   0.533 -0.0946 -0.6966  0.2614
 3493TIP3    H131970   1.973   3.592   0.616 -1.0326  0.2368 -0.3330
 3493TIP3    H231971   1.891   3.549   0.496  0.0368 -2.0969 -0.2568
 3494TIP3   OH231972   3.866   6.452  13.881 -0.1222 -0.1464 -0.0114
 3494TIP3    H131973   3.951   6.473  13.920  0.1198  0.9298 -1.0820
 3494TIP3    H231974   3.804   6.459  13.954  0.4095  1.2172  0.3380
 3495TIP3   OH231975   5.906   2.748  13.124 -0.4073  0.3632 -0.2230
 3495TIP3    H131976   5.903   2.841  13.146  2.3388  0.2611  0.7675
 3495TIP3    H231977   5.961   2.709  13.192  0.3102 -1.6018 -1.8947
 3496TIP3   OH231978   3.072   0.931  12.532 -0.1078 -0.1452  0.2169
 3496TIP3    H131979   3.042   1.004  12.586  1.2073  0.7597 -0.2455
 3496TIP3    H231980   3.167   0.929  12.544  0.1385 -0.3072 -1.5763
 3497TIP3   OH231981   6.122   4.462  16.016 -0.6060 -0.2508 -0.0883
 3497TIP3    H131982   6.069   4.522  16.070 -1.2300 -0.5823 -0.3198
 3497TIP3    H231983   6.109   4.376  16.057  0.5322 -0.1791  0.4281
 3498TIP3   OH231984   5.713   5.645   1.250  0.4396  0.2280 -0.5184
 3498TIP3    H131985   5.769   5.707   1.297  0.2506 -0.5743  0.7928
 3498TIP3    H231986   5.761   5.563   1.251 -0.2858 -0.2005 -0.3276
 3499TIP3   OH231987   5.024   2.592   5.693 -0.1335 -0.3593  0.1614
 3499TIP3    H131988   5.064   2.524   5.747 -2.2830 -0.4796  1.6955
 3499TIP3    H231989   4.944   2.551   5.659 -1.0981  1.1485  0.5482
 3500TIP3   OH231990   4.453   0.672  14.510 -0.4916 -0.5770 -0.2420
 3500TIP3    H131991   4.487   0.583  14.500  1.1752 -0.0771  0.8582
 3500TIP3    H231992   4.387   0.665  14.579 -0.0385 -0.8933  0.1634
 3501TIP3   OH231993   5.318   4.315  14.136  0.8119 -0.6199 -0.3521
 3501TIP3    H131994   5.372   4.238  14.117  1.1632 -0.7957  1.2390
 3501TIP3    H231995   5.244   4.280  14.187 -0.4248 -0.2750 -1.8705
 3502TIP3   OH231996   0.219   2.325   2.928  0.2836 -0.4736 -0.3424
 3502TIP3    H131997   0.257   2.389   2.868  0.5045 -1.3839 -1.1885
 3502TIP3    H231998   0.126   2.345   2.929  0.8075  2.1361  2.1788
 3503TIP3   OH231999   4.280   5.778  12.450  0.4794 -0.1608  0.5186
 3503TIP3    H132000   4.199   5.761  12.498  0.2273  0.0299  0.1635
 3503TIP3    H232001   4.261   5.749  12.361  0.6766  0.2419  0.3445
 3504TIP3   OH232002   6.718   1.348   0.945  0.3696 -0.1022  0.2738
 3504TIP3    H132003   6.697   1.269   0.996 -0.5765  0.5142  0.8643
 3504TIP3    H232004   6.633   1.383   0.919  0.8522 -0.8250 -2.4195
 3505TIP3   OH232005   4.480   6.505  12.560  0.1660 -0.3526 -0.0506
 3505TIP3    H132006   4.575   6.491  12.571  0.2437  0.5301  0.4262
 3505TIP3    H232007   4.459   6.460  12.478  0.9514 -0.7727 -0.0342
 3506TIP3   OH232008   1.099   5.181   3.472  0.0605  0.6071 -0.4083
 3506TIP3    H132009   1.055   5.125   3.408  0.3568 -0.1793  0.0724
 3506TIP3    H232010   1.084   5.139   3.556 -0.4813  1.7440  0.0670
 3507TIP3   OH232011   6.267   5.031   0.614 -0.4697 -0.0159  0.2719
 3507TIP3    H132012   6.219   5.075   0.544 -0.6592  1.5902  1.3882
 3507TIP3    H232013   6.323   4.968   0.568 -3.5687 -1.9070 -1.0464
 3508TIP3   OH232014   3.131   4.106  15.537 -0.0514 -0.1735  0.2720
 3508TIP3    H132015   3.061   4.087  15.600  0.9766  0.5856  1.6463
 3508TIP3    H232016   3.113   4.047  15.464 -2.4251  0.3424  0.3938
 3509TIP3   OH232017   4.909   5.462   4.529  0.4002  0.3441 -0.0744
 3509TIP3    H132018   4.818   5.446   4.553 -0.2816  1.4030 -1.8456
 3509TIP3    H232019   4.907   5.547   4.484  2.6015  1.4844  1.8263
 3510TIP3   OH232020   5.564   2.319  12.746  0.1256 -0.0645 -0.4018
 3510TIP3    H132021   5.496   2.299  12.682  0.7599  0.8470 -1.3996
 3510TIP3    H232022   5.646   2.309  12.698  0.5640  2.0725 -0.1820
 3511TIP3   OH232023   6.266   0.031   0.907  0.7489 -0.3169  0.0462
 3511TIP3    H132024   6.200   0.063   0.845  1.0278 -0.0417 -0.1109
 3511TIP3    H232025   6.216  -0.018   0.972  0.1701  1.5473  1.0261
 3512TIP3   OH232026   3.022   5.672  11.876  0.2574 -0.2397 -0.3338
 3512TIP3    H132027   2.934   5.709  11.872  0.9068  1.4150  0.3952
 3512TIP3    H232028   3.015   5.600  11.939 -1.0043 -1.3847 -1.7426
 3513TIP3   OH232029   5.996   6.495  16.605 -0.4073 -0.2648  0.1753
 3513TIP3    H132030   5.984   6.583  16.639  1.5148 -0.0137  0.2553
 3513TIP3    H232031   6.085   6.470  16.633 -0.9138 -2.2068  0.1621
 3514TIP3   OH232032   2.007   6.380  13.789 -0.1818 -0.5707  0.7494
 3514TIP3    H132033   2.085   6.386  13.845 -0.7053 -2.1757  1.6675
 3514TIP3    H232034   1.934   6.399  13.848 -0.5382  0.5255 -0.0240
 3515TIP3   OH232035   2.089   3.655   1.606  0.0363  0.1605 -0.0141
 3515TIP3    H132036   2.037   3.734   1.592 -1.2710 -0.4861  1.1175
 3515TIP3    H232037   2.035   3.585   1.568  0.4043 -0.4189  0.5409
 3516TIP3   OH232038   2.197   6.338  14.800  0.1081  0.1722  0.0060
 3516TIP3    H132039   2.241   6.349  14.884  0.1380  2.0316 -0.2352
 3516TIP3    H232040   2.207   6.423  14.756 -0.3102 -0.6245 -1.6770
 3517TIP3   OH232041   0.535   1.358   4.121 -0.3323  0.0569 -0.0998
 3517TIP3    H132042   0.592   1.430   4.148 -0.7110 -0.2779  1.6225
 3517TIP3    H232043   0.446   1.390   4.136 -0.4838 -1.2605  2.0375
 3518TIP3   OH232044   0.879   1.621  13.750  0.3441  0.2314 -0.2772
 3518TIP3    H132045   0.862   1.561  13.823  0.2613 -0.5127 -0.8989
 3518TIP3    H232046   0.838   1.703  13.777 -1.3079 -0.5631 -0.2870
 3519TIP3   OH232047   6.045   4.729   6.330  0.1869 -0.1734  1.2666
 3519TIP3    H132048   6.128   4.724   6.282  0.2942  0.7709  1.3556
 3519TIP3    H232049   6.032   4.640   6.363  0.3799 -0.6988 -0.0535
 3520TIP3   OH232050   5.134   2.213   0.080  0.4785 -0.1104 -0.5199
 3520TIP3    H132051   5.043   2.221   0.051  1.1220  1.3857 -2.1882
 3520TIP3    H232052   5.143   2.278   0.150  1.0184  1.8472 -2.3463
 3521TIP3   OH232053   1.592   5.132   1.568 -0.9673  0.1204  0.0028
 3521TIP3    H132054   1.498   5.119   1.558 -0.7923 -1.6129  0.5483
 3521TIP3    H232055   1.615   5.192   1.496 -2.2907 -0.2930 -0.7908
 3522TIP3   OH232056   6.162   4.379  11.077  0.4940 -0.4131 -0.5061
 3522TIP3    H132057   6.142   4.295  11.119 -0.6498  0.1594  0.1277
 3522TIP3    H232058   6.229   4.358  11.012  0.8641 -1.6582  0.2610
 3523TIP3   OH232059   3.794   2.701  16.069 -0.6210 -0.4534 -0.4151
 3523TIP3    H132060   3.752   2.663  15.991 -0.4456 -1.4488 -0.0351
 3523TIP3    H232061   3.826   2.625  16.118  0.1653  0.2207  0.1248
 3524TIP3   OH232062   4.564   5.722  10.758 -0.0371 -1.0560 -0.1835
 3524TIP3    H132063   4.639   5.777  10.731 -1.7413  0.7488 -1.3865
 3524TIP3    H232064   4.604   5.647  10.802  2.6130 -1.2308 -2.7147
 3525TIP3   OH232065   4.604   1.483  12.441  0.2273 -0.6613  0.0980
 3525TIP3    H132066   4.522   1.454  12.400  0.0948 -0.2353  0.0597
 3525TIP3    H232067   4.623   1.567  12.399 -0.2684  0.1069  1.3785
 3526TIP3   OH232068   0.140   2.300  10.869  0.4873  0.5840  0.1945
 3526TIP3    H132069   0.228   2.288  10.833 -0.0138  0.0026 -0.8606
 3526TIP3    H232070   0.106   2.377  10.824 -0.3992 -0.5467 -1.1242
 3527TIP3   OH232071   2.266   6.400  12.051  0.3682  0.4182  0.2247
 3527TIP3    H132072   2.327   6.332  12.078 -1.9934 -1.6361  0.5439
 3527TIP3    H232073   2.265   6.394  11.955  0.2604  0.0766  0.2454
 3528TIP3   OH232074   2.119   4.476  14.042 -0.1371  0.1039  0.0392
 3528TIP3    H132075   2.172   4.426  13.979 -0.8215  0.7910 -1.1015
 3528TIP3    H232076   2.047   4.418  14.064 -0.6117  0.3476 -0.8345
 3529TIP3   OH232077   4.250   0.121  13.973 -0.1551  0.2040 -0.2993
 3529TIP3    H132078   4.264   0.076  14.056  1.9658  0.3708 -0.5341
 3529TIP3    H232079   4.229   0.051  13.911 -3.7999  0.2621  0.7318
 3530TIP3   OH232080   2.903   5.924   1.426 -0.2610  0.6866  0.5342
 3530TIP3    H132081   2.945   5.939   1.511 -0.7142  0.0685  0.8689
 3530TIP3    H232082   2.934   5.838   1.398 -0.2781  0.7968  0.1804
 3531TIP3   OH232083   3.409   1.616  15.748  0.0900 -0.3226 -0.2357
 3531TIP3    H132084   3.329   1.654  15.784  0.2904 -0.5518  0.4463
 3531TIP3    H232085   3.480   1.660  15.794  0.3525 -0.3334 -0.6279
 3532TIP3   OH232086   0.465   0.485  16.002 -0.3546  0.7830 -0.1008
 3532TIP3    H132087   0.484   0.578  16.018 -1.3103  0.6260  2.1214
 3532TIP3    H232088   0.372   0.476  16.023 -0.0373 -0.8854  0.6031
 3533TIP3   OH232089   3.157   5.094  12.693  0.1673  0.0687  0.3350
 3533TIP3    H132090   3.205   5.011  12.692 -0.1624 -0.1338  0.9703
 3533TIP3    H232091   3.166   5.126  12.782  0.5590  0.8766  0.0082
 3534TIP3   OH232092   6.724   4.835  16.165  0.7212  0.3714  0.3945
 3534TIP3    H132093   6.629   4.842  16.150  0.5598 -1.2934  0.5360
 3534TIP3    H232094   6.757   4.792  16.086  1.4575  1.4377  0.1044
 3535TIP3   OH232095   6.365   0.705   1.415 -0.0280  0.3748  0.1310
 3535TIP3    H132096   6.376   0.639   1.347 -1.0210 -0.1118  0.4294
 3535TIP3    H232097   6.275   0.695   1.444  0.3373  0.6707  1.4259
 3536TIP3   OH232098   5.600   6.243  12.619  0.4615 -0.1362  0.2199
 3536TIP3    H132099   5.576   6.310  12.554  1.7287 -0.2507 -0.3916
 3536TIP3    H232100   5.567   6.277  12.702  1.3446  1.4259 -0.0293
 3537TIP3   OH232101   4.446   0.473  11.748 -0.2805 -0.0410 -0.1128
 3537TIP3    H132102   4.384   0.514  11.808  1.6088 -0.3111  2.0842
 3537TIP3    H232103   4.434   0.520  11.665 -2.7820  0.4695  0.5214
 3538TIP3   OH232104   4.053   5.952  13.507  0.1514 -0.7805  0.7626
 3538TIP3    H132105   4.102   5.975  13.428 -0.8282 -1.1962  0.0221
 3538TIP3    H232106   4.113   5.972  13.579  2.0949 -2.8828 -0.1945
 3539TIP3   OH232107   5.391   2.050   0.974  0.1901  0.1310  0.2884
 3539TIP3    H132108   5.441   2.005   0.905 -1.1330  0.7650 -1.1273
 3539TIP3    H232109   5.418   2.141   0.968  1.1755 -0.0740  1.6186
 3540TIP3   OH232110   4.062   1.641  13.624  0.0933  0.2173  0.0083
 3540TIP3    H132111   4.022   1.686  13.699 -0.9072 -2.4349  1.0960
 3540TIP3    H232112   3.997   1.648  13.554  0.0898  0.7300  0.0562
 3541TIP3   OH232113   0.557   6.701   2.401 -0.4667 -0.1128 -0.3501
 3541TIP3    H132114   0.508   6.781   2.380  0.0678  0.0413 -1.0585
 3541TIP3    H232115   0.580   6.711   2.494 -1.5127 -0.0521 -0.0949
 3542TIP3   OH232116   3.907   1.585   0.359 -0.5491 -0.0828  0.7457
 3542TIP3    H132117   3.849   1.588   0.283  0.9501  0.5686 -0.4075
 3542TIP3    H232118   3.908   1.492   0.384 -0.1222 -0.5140 -0.7897
 3543TIP3   OH232119   0.903   5.136  14.555  0.0318  0.1738 -0.1687
 3543TIP3    H132120   0.814   5.167  14.569 -0.5893 -2.2490  1.5539
 3543TIP3    H232121   0.955   5.182  14.620 -0.5077 -0.7172  0.9038
 3544TIP3   OH232122   0.740   3.453  12.889  0.0016 -0.3048 -0.7967
 3544TIP3    H132123   0.716   3.491  12.804 -1.4247 -0.3442 -0.4374
 3544TIP3    H232124   0.725   3.359  12.878  0.7226 -0.4225 -0.7856
 3545TIP3   OH232125   6.433   5.463   1.111  0.2768 -0.6238  0.2929
 3545TIP3    H132126   6.371   5.391   1.104 -2.7617  1.7830  1.5782
 3545TIP3    H232127   6.462   5.461   1.203  1.1736 -0.9504  0.0128
 3546TIP3   OH232128   5.675   2.805   6.754 -0.1019 -0.4434  0.8724
 3546TIP3    H132129   5.633   2.762   6.829  0.7235  0.1860  1.6887
 3546TIP3    H232130   5.686   2.734   6.690 -0.6543 -1.0185  1.4025
 3547TIP3   OH232131   3.341   1.794  11.679  0.1663 -0.0640  0.4175
 3547TIP3    H132132   3.371   1.719  11.627  1.1353 -0.3731  1.4215
 3547TIP3    H232133   3.246   1.794  11.667  0.3403 -0.2644 -1.1772
 3548TIP3   OH232134   0.142   4.360  11.142  0.6368 -0.0831 -0.6737
 3548TIP3    H132135   0.123   4.436  11.196  1.8124  1.0697 -1.8498
 3548TIP3    H232136   0.060   4.311  11.138 -0.4070  1.6467 -0.7379
 3549TIP3   OH232137   1.072   5.765  13.475  0.0984  0.3813 -0.0609
 3549TIP3    H132138   1.118   5.773  13.391 -0.0004 -1.6730 -0.3447
 3549TIP3    H232139   0.999   5.826  13.468  0.9935  1.3735 -0.8458
 3550TIP3   OH232140   2.405   3.610  16.588  0.1351  0.2407 -0.4295
 3550TIP3    H132141   2.470   3.679  16.577  0.1803  0.1419 -0.7818
 3550TIP3    H232142   2.423   3.548  16.518 -0.4359  0.2915 -0.6318
 3551TIP3   OH232143   0.148   0.497   3.571  0.5877  0.1234 -0.3552
 3551TIP3    H132144   0.203   0.571   3.546 -2.6202  2.6781 -0.3395
 3551TIP3    H232145   0.133   0.510   3.665 -1.3165  0.4415 -0.6794
 3552TIP3   OH232146   2.858   0.409  13.299  1.1850 -0.2692  0.1788
 3552TIP3    H132147   2.856   0.437  13.390 -1.0607 -2.8591  0.9780
 3552TIP3    H232148   2.780   0.448  13.259  0.9482 -0.9656 -0.0521
 3553TIP3   OH232149   2.947   0.403  11.562  0.1070 -0.3235  0.1096
 3553TIP3    H132150   2.975   0.335  11.501  0.0645 -1.0017  0.8487
 3553TIP3    H232151   3.012   0.401  11.632  0.1486  0.4524  0.0991
 3554TIP3   OH232152   4.223   6.508   3.345  0.2181 -0.6468 -0.0253
 3554TIP3    H132153   4.293   6.533   3.406  0.0857 -0.8687  0.2237
 3554TIP3    H232154   4.267   6.451   3.281  0.2564 -0.8384  0.1672
 3555TIP3   OH232155   6.192   0.956   4.093 -0.7847  0.4128 -0.4706
 3555TIP3    H132156   6.196   1.009   4.173 -0.1546  0.1813 -0.3451
 3555TIP3    H232157   6.274   0.908   4.092 -0.2755  1.2758 -1.8596
 3556TIP3   OH232158   6.474   5.244  15.110  0.3542 -0.0419 -0.2146
 3556TIP3    H132159   6.429   5.179  15.055 -1.6245 -0.2860  1.5932
 3556TIP3    H232160   6.530   5.192  15.168 -0.7704 -0.1221  0.8223
 3557TIP3   OH232161   1.003   3.708   6.638 -0.8653 -0.3805 -0.4851
 3557TIP3    H132162   1.094   3.724   6.613 -1.1403  1.4754 -0.3244
 3557TIP3    H232163   0.955   3.708   6.555 -0.8887 -0.1738 -0.4722
 3558TIP3   OH232164   5.104   5.313  11.808 -0.0301 -0.3444  0.2497
 3558TIP3    H132165   5.103   5.284  11.899 -0.3562  2.4940  1.2083
 3558TIP3    H232166   5.198   5.319  11.786  0.0339 -2.0542  0.0398
 3559TIP3   OH232167   5.998   2.916   6.242 -0.3194 -0.4706 -0.2201
 3559TIP3    H132168   5.982   2.926   6.336 -0.2998  0.7133 -0.3373
 3559TIP3    H232169   6.013   2.822   6.230 -2.8196 -1.0088  0.5889
 3560TIP3   OH232170   1.353   0.582   6.492 -0.1633  0.0616  0.3883
 3560TIP3    H132171   1.273   0.540   6.522  0.0851 -0.0075  0.9711
 3560TIP3    H232172   1.419   0.556   6.556  0.2761  0.2924  0.0337
 3561TIP3   OH232173   6.300   0.942   5.256  0.2105 -0.1627 -0.1916
 3561TIP3    H132174   6.273   0.864   5.206 -1.2180 -0.6475  1.2990
 3561TIP3    H232175   6.260   1.015   5.209 -0.6136 -0.5649 -0.1315
 3562TIP3   OH232176   0.645   0.058   5.454  0.5501 -0.3744  0.1315
 3562TIP3    H132177   0.677   0.129   5.509  0.4870 -0.7129  0.6098
 3562TIP3    H232178   0.586   0.100   5.391  0.2934 -0.0427  0.5969
 3563TIP3   OH232179   0.374   0.837  12.061  0.0144 -0.1934 -0.1397
 3563TIP3    H132180   0.410   0.901  12.122 -0.4738 -0.4579  0.4336
 3563TIP3    H232181   0.345   0.888  11.986 -0.6960  0.2956  0.4642
 3564TIP3   OH232182   2.809   2.046   2.034 -0.0250  0.5724  0.0556
 3564TIP3    H132183   2.803   2.133   2.074  0.3299  0.4776  0.3129
 3564TIP3    H232184   2.847   1.991   2.102 -0.5352  0.1446 -0.0019
 3565TIP3   OH232185   5.466   0.735  14.261  0.1784  0.2805 -0.2431
 3565TIP3    H132186   5.426   0.778  14.338 -0.7262 -1.6418  0.3979
 3565TIP3    H232187   5.394   0.731  14.197  0.1969 -0.5032 -0.2088
 3566TIP3   OH232188   6.713   2.623  16.169  0.4602  0.0251 -0.2222
 3566TIP3    H132189   6.757   2.665  16.243  0.2214 -1.6354  0.8838
 3566TIP3    H232190   6.630   2.591  16.206 -0.3099  0.4153 -1.5596
 3567TIP3   OH232191   4.035   1.250   3.531 -0.3341  0.1777 -0.7157
 3567TIP3    H132192   3.987   1.187   3.477 -0.2594 -1.3636  0.9861
 3567TIP3    H232193   4.049   1.206   3.614  1.1538  1.8468 -0.0319
 3568TIP3   OH232194   0.875   4.699  12.100 -0.1454  0.0090  0.4473
 3568TIP3    H132195   0.852   4.606  12.105  0.3741 -0.1814 -0.4753
 3568TIP3    H232196   0.798   4.745  12.134 -1.2486 -0.6829 -1.0172
 3569TIP3   OH232197   0.777   6.015  14.688 -0.2519 -0.2682 -0.6057
 3569TIP3    H132198   0.711   6.068  14.645 -0.2056  0.4435  0.1767
 3569TIP3    H232199   0.727   5.954  14.743 -0.2601  0.6425  0.4174
 3570TIP3   OH232200   5.808   3.676   1.625 -0.0811  0.0962 -0.1707
 3570TIP3    H132201   5.863   3.716   1.558 -0.2469 -1.3996 -1.2175
 3570TIP3    H232202   5.866   3.666   1.701  0.6218  0.0943 -0.7060
 3571TIP3   OH232203   4.514   1.239  11.678 -0.4928 -0.1385  0.2889
 3571TIP3    H132204   4.516   1.327  11.640 -1.8128 -0.5954 -0.8958
 3571TIP3    H232205   4.422   1.225  11.701 -0.4522 -1.5545 -0.3600
 3572TIP3   OH232206   0.610   5.803  12.682  0.3066  0.7749  0.2231
 3572TIP3    H132207   0.667   5.749  12.738  1.0623  1.6478  0.3098
 3572TIP3    H232208   0.566   5.862  12.742 -0.8419 -0.0139  0.1709
 3573TIP3   OH232209   5.004   3.625  17.068 -0.1134  0.2987  0.0834
 3573TIP3    H132210   5.086   3.645  17.114  0.0569  0.6822 -0.3814
 3573TIP3    H232211   5.022   3.650  16.977 -0.8059  0.5347  0.0160
 3574TIP3   OH232212   2.264   0.002   5.604  0.0205  0.0448  0.4560
 3574TIP3    H132213   2.197   0.069   5.591  0.3007  0.2405  0.0120
 3574TIP3    H232214   2.300   0.020   5.690 -0.4633 -0.0286  0.6737
 3575TIP3   OH232215   5.199   6.505   2.296 -1.2982  0.4591 -0.1197
 3575TIP3    H132216   5.254   6.581   2.312 -0.6426 -0.0601  0.1368
 3575TIP3    H232217   5.129   6.512   2.361  0.4664 -0.7889  1.9971
 3576TIP3   OH232218   5.334   2.958   4.440  0.7668  0.2251 -0.2902
 3576TIP3    H132219   5.429   2.949   4.441  0.8477  1.0319  0.0359
 3576TIP3    H232220   5.302   2.877   4.400  1.6100  0.1078 -0.7343
 3577TIP3   OH232221   3.117   0.840  15.539 -0.1026 -0.1972  0.2661
 3577TIP3    H132222   3.210   0.826  15.556  0.3442  1.5970 -0.5868
 3577TIP3    H232223   3.091   0.907  15.602 -0.9803 -1.1187  0.9057
 3578TIP3   OH232224   5.082   5.291   4.310  0.7665  0.3927  0.0024
 3578TIP3    H132225   5.090   5.319   4.219 -4.2303 -2.2080 -1.4103
 3578TIP3    H232226   5.119   5.203   4.312 -1.4676 -0.5869 -0.1899
 3579TIP3   OH232227   3.935   6.344  15.860 -0.4168 -0.3574 -0.4794
 3579TIP3    H132228   3.940   6.252  15.884  1.7153  0.1829  1.2657
 3579TIP3    H232229   4.026   6.370  15.842 -0.4875  2.2631  2.4714
 3580TIP3   OH232230   5.171   6.420   1.899 -0.0892  0.5820  0.1834
 3580TIP3    H132231   5.144   6.512   1.900  2.1809  1.2823  2.0169
 3580TIP3    H232232   5.132   6.382   1.977 -0.6090  0.1164 -0.3030
 3581TIP3   OH232233   0.554   1.892  14.776 -0.2830 -0.5626 -0.3896
 3581TIP3    H132234   0.571   1.983  14.803 -0.1337 -0.8400  0.4531
 3581TIP3    H232235   0.484   1.862  14.834  0.8291 -1.5337  0.4789
 3582TIP3   OH232236   4.974   1.227   1.329 -0.1083 -0.3896 -0.3096
 3582TIP3    H132237   4.940   1.315   1.345  0.7146  0.1832 -1.6782
 3582TIP3    H232238   5.026   1.206   1.407 -2.5732 -0.8127  1.2956
 3583TIP3   OH232239   2.599   3.307  14.590  0.4693 -0.3020  0.1741
 3583TIP3    H132240   2.612   3.213  14.575  2.3858  0.1770 -1.4056
 3583TIP3    H232241   2.517   3.327  14.546 -0.2849 -1.3407  1.0677
 3584TIP3   OH232242   0.133   0.933  15.474 -0.0541  0.7860  0.2838
 3584TIP3    H132243   0.215   0.887  15.459 -0.3282 -0.1462  1.5038
 3584TIP3    H232244   0.110   0.911  15.564 -0.6417  2.6394  0.5950
 3585TIP3   OH232245   2.854   2.088   5.268 -0.2694  0.4844  0.2483
 3585TIP3    H132246   2.764   2.057   5.273 -0.9441  2.3094 -0.0446
 3585TIP3    H232247   2.905   2.010   5.245 -1.7990 -0.5151  0.1397
 3586TIP3   OH232248   3.215   0.562   3.608  0.3704 -0.1290  0.0809
 3586TIP3    H132249   3.217   0.653   3.577 -0.0537 -0.2888 -0.4351
 3586TIP3    H232250   3.127   0.551   3.644  0.9984  0.1771  1.7668
 3587TIP3   OH232251   4.764   2.587  13.035 -0.2522  0.2355 -0.6644
 3587TIP3    H132252   4.804   2.661  13.080  0.7095  0.3929 -1.7519
 3587TIP3    H232253   4.825   2.515  13.047  0.6325  0.5916 -2.7124
 3588TIP3   OH232254   2.359   1.422   2.492 -0.3525 -0.0010 -0.3073
 3588TIP3    H132255   2.364   1.397   2.399  0.2514 -0.8377 -0.0503
 3588TIP3    H232256   2.447   1.406   2.526 -0.7023 -0.1521  0.5302
 3589TIP3   OH232257   1.361   3.659   1.818 -0.3186  0.0834  0.0855
 3589TIP3    H132258   1.396   3.674   1.730 -0.0435 -1.6949 -0.1381
 3589TIP3    H232259   1.397   3.730   1.871  1.7009 -0.3506 -0.6596
 3590TIP3   OH232260   6.304   6.441  14.035 -0.5390  0.5503  0.1873
 3590TIP3    H132261   6.334   6.490  14.110 -0.0872 -0.1373  0.4640
 3590TIP3    H232262   6.373   6.376  14.019 -2.2814 -1.6735  1.4243
 3591TIP3   OH232263   1.286   5.920   1.888 -0.0769  0.3090  0.1778
 3591TIP3    H132264   1.242   5.954   1.811  1.1685  0.0507 -0.6577
 3591TIP3    H232265   1.220   5.866   1.932  0.4212 -2.9600 -2.9289
 3592TIP3   OH232266   0.937   3.322   6.234 -0.5579 -0.4728  0.0752
 3592TIP3    H132267   0.953   3.294   6.144 -1.4921  0.7884 -0.4934
 3592TIP3    H232268   0.850   3.288   6.255 -0.7431  0.0606  0.1718
 3593TIP3   OH232269   5.226   0.231   4.953  0.6298 -0.1981  0.2639
 3593TIP3    H132270   5.205   0.284   5.031  0.6327  1.0896 -0.6040
 3593TIP3    H232271   5.288   0.166   4.985  2.7479  2.0042  0.8014
 3594TIP3   OH232272   2.130   2.106   3.353 -0.0442 -0.0505 -0.2522
 3594TIP3    H132273   2.220   2.075   3.353  0.1550  0.5229  0.0283
 3594TIP3    H232274   2.084   2.047   3.413  0.5649  0.8643  1.1440
 3595TIP3   OH232275   2.129   4.289   5.534  0.6407  0.4314  0.8405
 3595TIP3    H132276   2.071   4.348   5.581 -0.0941 -0.6230  1.2596
 3595TIP3    H232277   2.180   4.245   5.602  1.6000  1.0032  0.5018
 3596TIP3   OH232278   4.641   3.530   2.368 -0.3801  0.9339 -0.1981
 3596TIP3    H132279   4.698   3.599   2.335  0.4484  0.4622  0.2174
 3596TIP3    H232280   4.647   3.537   2.463 -0.9263  0.8019 -0.1504
 3597TIP3   OH232281   0.322   3.790  13.678 -0.1956  0.6432  0.1407
 3597TIP3    H132282   0.273   3.708  13.687 -1.2035  1.0318 -1.6469
 3597TIP3    H232283   0.409   3.763  13.648  0.4677  0.0194  2.5095
 3598TIP3   OH232284   5.026   1.607  16.268  0.7304 -0.5390  0.5582
 3598TIP3    H132285   4.931   1.599  16.279  0.5704  0.1657 -0.2390
 3598TIP3    H232286   5.062   1.535  16.318 -0.1746 -0.1357  1.8006
 3599TIP3   OH232287   5.812   4.227  17.025  0.3192 -0.2141  1.0997
 3599TIP3    H132288   5.877   4.197  16.961 -1.8395 -1.3656 -0.5891
 3599TIP3    H232289   5.838   4.184  17.107  0.0741 -2.8923 -0.2059
 3600TIP3   OH232290   2.780   5.007  11.493  0.1937 -0.6522 -0.2815
 3600TIP3    H132291   2.870   5.036  11.509  0.0103  0.5256 -1.2560
 3600TIP3    H232292   2.789   4.918  11.460  0.9421 -0.8292  0.3667
 3601TIP3   OH232293   2.762   5.450   4.443 -0.4565  0.0654 -0.2736
 3601TIP3    H132294   2.702   5.394   4.393  0.0777 -0.2563 -0.5591
 3601TIP3    H232295   2.850   5.420   4.418 -0.1769 -0.0331  0.7844
 3602TIP3   OH232296   0.889   1.207   2.317 -0.4571 -0.2590 -0.2644
 3602TIP3    H132297   0.898   1.202   2.412 -1.3630 -0.2900 -0.1751
 3602TIP3    H232298   0.881   1.115   2.289  0.7659 -0.3054 -0.4708
 3603TIP3   OH232299   2.771   2.928  14.050  0.2350 -0.1123 -0.5440
 3603TIP3    H132300   2.783   2.931  13.955  0.9709 -0.0750 -0.4532
 3603TIP3    H232301   2.732   2.843  14.067  2.8016 -1.3305 -0.5867
 3604TIP3   OH232302   4.383   1.043  12.140 -0.9838 -1.1278  0.2611
 3604TIP3    H132303   4.315   1.109  12.129 -1.6509 -2.0960 -1.5195
 3604TIP3    H232304   4.397   1.040  12.235 -2.1472  0.3304  0.5138
 3605TIP3   OH232305   0.956   6.061   0.566 -0.4734  0.2668  0.1400
 3605TIP3    H132306   0.952   6.148   0.527 -0.8765 -0.1494 -0.7816
 3605TIP3    H232307   0.865   6.038   0.584 -0.6018 -0.9398 -1.8915
 3606TIP3   OH232308   1.499   6.422   5.136  0.1090  0.4022  0.2738
 3606TIP3    H132309   1.568   6.357   5.150 -0.0254 -0.4028 -2.4293
 3606TIP3    H232310   1.419   6.371   5.125 -0.5202  1.2028  1.0695
 3607TIP3   OH232311   5.120   3.609   6.333 -0.1945 -0.2602 -0.0414
 3607TIP3    H132312   5.174   3.668   6.385 -0.0577  0.3492 -0.8649
 3607TIP3    H232313   5.146   3.521   6.361  0.9403  0.0365 -0.1428
 3608TIP3   OH232314   1.286   2.533  16.778  0.1344 -0.1704  0.1691
 3608TIP3    H132315   1.287   2.615  16.729 -1.3432 -0.9662 -1.1949
 3608TIP3    H232316   1.363   2.485  16.746  1.5003  0.9909  1.5776
 3609TIP3   OH232317   1.093   3.128  17.189  0.3031  0.2924 -0.4493
 3609TIP3    H132318   1.102   3.073  17.266  0.7984  0.4535 -0.3891
 3609TIP3    H232319   1.029   3.082  17.133 -0.9940  0.7886  0.5947
 3610TIP3   OH232320   1.405   1.532   0.058  0.4181  0.0653 -0.3916
 3610TIP3    H132321   1.481   1.534  -0.000 -0.9012 -1.8672 -2.2300
 3610TIP3    H232322   1.370   1.443   0.050 -0.3540  0.0343  2.6545
 3611TIP3   OH232323   0.497   0.849  17.239 -0.5628 -0.5395  0.2688
 3611TIP3    H132324   0.537   0.762  17.242 -2.4816 -1.5491 -1.3615
 3611TIP3    H232325   0.417   0.839  17.291 -0.0985  0.6459  1.2060
 3612TIP3   OH232326   2.054   3.749   6.270  0.1255  0.0700  0.0919
 3612TIP3    H132327   2.041   3.833   6.226  0.2389 -0.5832 -1.1941
 3612TIP3    H232328   1.972   3.734   6.317 -0.2053  0.5079 -0.3415
 3613TIP3   OH232329   0.656   4.076  12.686 -0.4740 -0.1573  0.6734
 3613TIP3    H132330   0.744   4.104  12.659 -1.4679  1.6342 -0.7933
 3613TIP3    H232331   0.651   4.100  12.778  0.8267 -0.9289  0.9618
 3614TIP3   OH232332   3.535   3.834   1.813 -0.1955 -0.1274 -0.1437
 3614TIP3    H132333   3.469   3.774   1.779  0.7251 -2.0821  1.4411
 3614TIP3    H232334   3.570   3.790   1.891  2.4338  1.2126 -0.5248
 3615TIP3   OH232335   5.687   6.709   4.126 -0.0726  0.2501  0.0790
 3615TIP3    H132336   5.749   6.685   4.057  1.2204 -1.4662  1.7759
 3615TIP3    H232337   5.626   6.635   4.130  1.8121 -1.2403  2.9365
 3616TIP3   OH232338   0.897   0.594  15.525  0.0844 -0.3432  0.4388
 3616TIP3    H132339   0.839   0.563  15.455  0.3891 -1.2505  0.5799
 3616TIP3    H232340   0.847   0.579  15.605  0.7859 -1.8477  0.6271
 3617TIP3   OH232341   0.254   5.349   5.834 -0.1388  0.2701  0.3578
 3617TIP3    H132342   0.315   5.357   5.907  1.3322 -1.5715 -0.6145
 3617TIP3    H232343   0.251   5.436   5.795  0.8733  0.6926  1.2007
 3618TIP3   OH232344   0.495   3.326   1.229 -0.3851 -0.3017 -0.2078
 3618TIP3    H132345   0.438   3.316   1.306 -0.5122 -0.5238 -0.3300
 3618TIP3    H232346   0.441   3.297   1.156 -0.7751  1.3152 -0.5781
 3619TIP3   OH232347   5.444   5.556  14.541 -0.2468 -0.0667 -0.3521
 3619TIP3    H132348   5.395   5.637  14.556  2.5656  1.3633  1.4663
 3619TIP3    H232349   5.498   5.574  14.464  0.8440  0.0186  0.4281
 3620TIP3   OH232350   1.912   1.619   0.596  0.6472 -0.6237  0.1581
 3620TIP3    H132351   1.892   1.712   0.583 -0.0562 -0.5583  1.6988
 3620TIP3    H232352   1.948   1.591   0.511 -0.5832  0.6639 -0.8185
 3621TIP3   OH232353   0.027   5.986   0.255 -0.0057 -0.0851  0.0230
 3621TIP3    H132354  -0.064   5.965   0.234  0.1629  0.1848 -1.0331
 3621TIP3    H232355   0.078   5.938   0.190  0.6516 -0.9022  1.1355
 3622TIP3   OH232356   6.731   1.445   4.247 -0.0546 -0.8987  0.1372
 3622TIP3    H132357   6.709   1.533   4.278 -0.0376 -0.7559 -0.2588
 3622TIP3    H232358   6.710   1.388   4.321  2.2806 -0.2940  1.3340
 3623TIP3   OH232359   1.846   3.801   2.622 -0.4842  0.3689 -0.3979
 3623TIP3    H132360   1.834   3.736   2.553  1.9135  1.1895 -1.6428
 3623TIP3    H232361   1.853   3.751   2.702  0.7179 -0.8710 -1.2672
 3624TIP3   OH232362   5.899   6.128   5.505  0.2100 -0.3291 -0.3339
 3624TIP3    H132363   5.910   6.114   5.411  1.8807 -0.9115 -0.0827
 3624TIP3    H232364   5.988   6.143   5.537 -0.3487 -0.0756  1.1456
 3625TIP3   OH232365   3.524   3.616  13.060  0.5997  0.5104  0.5047
 3625TIP3    H132366   3.604   3.593  13.108  0.0078 -0.0350  1.2435
 3625TIP3    H232367   3.483   3.532  13.041  0.9952  0.7013 -1.2753
 3626TIP3   OH232368   4.045   0.970  12.001 -0.3482  0.1322  0.0519
 3626TIP3    H132369   4.118   1.028  12.024 -0.5953  0.9063 -1.0359
 3626TIP3    H232370   4.025   0.923  12.082 -0.0178  1.4429  0.9137
 3627TIP3   OH232371   3.753   4.751   5.074  0.3317 -0.4241 -0.1686
 3627TIP3    H132372   3.808   4.688   5.028 -0.7516 -1.8796  0.4919
 3627TIP3    H232373   3.728   4.707   5.155  0.0906  1.1107  0.6046
 3628TIP3   OH232374   2.861   3.432  13.301 -0.2976  0.1883 -0.1179
 3628TIP3    H132375   2.852   3.357  13.359  0.2712 -0.2998 -0.6586
 3628TIP3    H232376   2.945   3.471  13.325 -0.6903  0.7793  0.3075
 3629TIP3   OH232377   1.382   0.173   5.537  0.5106 -0.0530 -0.0802
 3629TIP3    H132378   1.438   0.172   5.459  1.5191  1.1643  0.6212
 3629TIP3    H232379   1.441   0.195   5.609 -0.8436  1.1122  0.6896
 3630TIP3   OH232380   3.218   3.254   0.651 -0.0508 -0.5518 -0.2244
 3630TIP3    H132381   3.233   3.294   0.565 -1.3261  0.0201 -0.1967
 3630TIP3    H232382   3.293   3.195   0.664  0.1641 -0.6203 -1.7116
 3631TIP3   OH232383   0.126   2.640  16.666  0.0436 -0.1058  0.0216
 3631TIP3    H132384   0.099   2.549  16.654 -0.9788  0.0794  0.8482
 3631TIP3    H232385   0.157   2.644  16.757 -2.0753  0.8773  0.7386
 3632TIP3   OH232386   0.845   6.174   6.607  0.3829 -0.2329 -0.3189
 3632TIP3    H132387   0.902   6.148   6.679 -0.1949 -1.7513 -0.4119
 3632TIP3    H232388   0.796   6.095   6.584 -1.5105  0.9565 -0.4879
 3633TIP3   OH232389   2.988   1.438   0.968 -0.1433 -0.4193 -0.4684
 3633TIP3    H132390   2.922   1.403   1.028  0.8033 -0.4222  0.5950
 3633TIP3    H232391   2.993   1.375   0.897 -1.3946 -0.3437 -0.6301
 3634TIP3   OH232392   5.046   0.710  13.081  0.1861 -0.2515  0.3118
 3634TIP3    H132393   5.038   0.615  13.067  0.3896 -0.0783 -1.0503
 3634TIP3    H232394   5.119   0.719  13.143  1.7613 -0.8828 -1.3928
 3635TIP3   OH232395   0.046   6.566  14.815 -0.2845 -0.3512 -0.5858
 3635TIP3    H132396   0.026   6.603  14.729  0.2080 -0.0911 -0.5933
 3635TIP3    H232397   0.125   6.514  14.801 -0.4918 -0.7212 -0.3943
 3636TIP3   OH232398   1.240   3.109  12.636  0.2354 -0.2508  0.0084
 3636TIP3    H132399   1.176   3.148  12.576  2.0561 -0.2053 -1.9321
 3636TIP3    H232400   1.201   3.024  12.659 -1.0107  0.2150 -0.3267
 3637TIP3   OH232401   3.676   5.157  14.742 -0.3244 -0.1863 -0.2490
 3637TIP3    H132402   3.638   5.244  14.752 -0.8054 -0.5250  0.8671
 3637TIP3    H232403   3.696   5.129  14.831 -0.2133 -1.2425 -0.6001
 3638TIP3   OH232404   1.478   2.182   3.349 -0.6136  0.1760  0.0920
 3638TIP3    H132405   1.398   2.235   3.348 -0.9774 -0.3536  0.9137
 3638TIP3    H232406   1.496   2.167   3.441  0.1617 -0.1246 -0.1084
 3639TIP3   OH232407   6.037   0.327   4.814  0.7745 -0.4265 -0.1086
 3639TIP3    H132408   6.079   0.322   4.728  0.2900 -1.4922 -0.2901
 3639TIP3    H232409   5.960   0.272   4.806  0.8774 -0.7615  1.0997
 3640TIP3   OH232410   0.982   1.622   2.354 -0.7871 -0.6020  0.3859
 3640TIP3    H132411   0.983   1.542   2.302  0.7432 -0.2133 -0.1932
 3640TIP3    H232412   1.063   1.619   2.405 -1.1606  0.1407  1.0317
 3641TIP3   OH232413   6.579   1.114  17.288 -0.1537 -0.7837  0.0187
 3641TIP3    H132414   6.504   1.095  17.231 -0.5126 -1.3685  0.6784
 3641TIP3    H232415   6.639   1.041  17.271  0.9240  0.4393 -1.6020
 3642TIP3   OH232416   2.990   1.977   0.955 -0.4117  0.0975  0.6639
 3642TIP3    H132417   2.995   1.882   0.967 -0.9786  0.0924  0.8779
 3642TIP3    H232418   2.924   1.989   0.888  0.0524  0.3185  0.2397
 3643TIP3   OH232419   1.226   3.909   5.641 -0.3628  0.0134  0.0505
 3643TIP3    H132420   1.236   3.827   5.691  0.4449  0.8308  1.2693
 3643TIP3    H232421   1.132   3.915   5.624 -0.5828 -0.5850  0.9823
 3644TIP3   OH232422   0.232   0.245   5.802 -0.0425 -0.0608  0.1929
 3644TIP3    H132423   0.235   0.225   5.896 -0.1514 -0.3612  0.1315
 3644TIP3    H232424   0.140   0.237   5.778 -0.1106  0.6341  0.1925
 3645TIP3   OH232425   1.813   6.734  11.283  0.7550 -0.3670  0.4283
 3645TIP3    H132426   1.855   6.659  11.240 -0.0958 -0.9606  0.6148
 3645TIP3    H232427   1.822   6.805  11.221  0.5357 -0.9333 -0.2609
 3646TIP3   OH232428   0.727   3.836  12.086  0.0986  0.2265 -0.3725
 3646TIP3    H132429   0.697   3.770  12.149  0.7838 -0.0918 -0.3815
 3646TIP3    H232430   0.729   3.917  12.137  1.0466 -0.1059  0.1300
 3647TIP3   OH232431   4.966   2.467   0.531 -0.1652  0.2282 -0.0001
 3647TIP3    H132432   4.969   2.552   0.575  1.5034 -0.5852  1.5236
 3647TIP3    H232433   4.898   2.418   0.578  0.0644  0.1319  0.2336
 3648TIP3   OH232434   3.233   4.900   5.958  0.0526  0.0626  0.1047
 3648TIP3    H132435   3.324   4.914   5.984  0.0696 -1.5574  0.9517
 3648TIP3    H232436   3.207   4.819   6.003 -1.8024  0.5122 -0.1163
 3649TIP3   OH232437   2.276   3.772  12.544 -0.0766  0.0496  1.1105
 3649TIP3    H132438   2.244   3.847  12.594  0.1827  0.9100  0.0177
 3649TIP3    H232439   2.371   3.774  12.556 -0.1791 -0.8843  2.1364
 3650TIP3   OH232440   0.154   4.536   0.863  0.2505 -0.3769 -0.1150
 3650TIP3    H132441   0.169   4.573   0.776  0.5058  0.1215  0.1367
 3650TIP3    H232442   0.231   4.480   0.879 -0.2173 -1.1508 -0.5652
 3651TIP3   OH232443   4.600   0.562   5.598  0.2383  0.0738  0.0884
 3651TIP3    H132444   4.543   0.502   5.646 -0.0683  1.0345  0.9431
 3651TIP3    H232445   4.581   0.648   5.635  1.3359  0.5739 -0.4882
 3652TIP3   OH232446   0.204   0.284   4.246  0.0723  0.0180 -0.0869
 3652TIP3    H132447   0.138   0.354   4.250 -0.9627 -0.9414 -0.1443
 3652TIP3    H232448   0.154   0.204   4.256  1.2717 -0.7213  0.0685
 3653TIP3   OH232449   4.163   6.035   5.323  0.0283 -0.1604  0.0063
 3653TIP3    H132450   4.182   5.993   5.407 -0.3259  0.7134  0.5294
 3653TIP3    H232451   4.152   6.127   5.344 -0.9011 -0.0576 -0.8823
 3654TIP3   OH232452   5.622   6.811   2.505 -0.2585  0.4040 -0.1541
 3654TIP3    H132453   5.629   6.819   2.410 -1.1492  1.3307 -0.1442
 3654TIP3    H232454   5.694   6.752   2.529  0.5914  0.9689 -1.2781
 3655TIP3   OH232455   0.279   3.204   0.840 -0.4821 -0.1097  0.1805
 3655TIP3    H132456   0.199   3.208   0.891 -0.9694  0.3348 -0.6174
 3655TIP3    H232457   0.250   3.197   0.750  0.3767 -1.5411 -0.0067
 3656TIP3   OH232458   6.638   3.902  15.206 -0.2751  0.2743  0.3783
 3656TIP3    H132459   6.548   3.918  15.176  0.2092  1.0290 -0.7123
 3656TIP3    H232460   6.693   3.952  15.145  0.9406 -0.8845  0.4992
 3657TIP3   OH232461   1.914   6.765   3.318  0.0156 -0.1258  0.0441
 3657TIP3    H132462   1.876   6.686   3.280 -2.5372  0.4516  1.2956
 3657TIP3    H232463   1.919   6.747   3.412  0.8006  0.6566  0.1650
 3658TIP3   OH232464   1.719   4.725   3.836 -0.3547 -0.3663  0.1615
 3658TIP3    H132465   1.785   4.658   3.854 -0.4080 -0.6016 -0.4908
 3658TIP3    H232466   1.652   4.712   3.904 -0.7806 -1.5325 -0.4742
 3659TIP3   OH232467   6.222   3.073  11.914 -0.1038 -0.4471 -0.4605
 3659TIP3    H132468   6.197   3.037  11.829  0.0323  1.3252 -1.2880
 3659TIP3    H232469   6.279   3.147  11.893 -0.8038  0.5912  1.1276
 3660TIP3   OH232470   3.728   3.319  13.355  0.0445  0.3495 -0.1485
 3660TIP3    H132471   3.669   3.245  13.342  0.3960 -0.2113  1.2892
 3660TIP3    H232472   3.695   3.363  13.433 -0.6760  2.2487 -1.4913
 3661TIP3   OH232473   3.376   1.211   4.625 -0.2252 -0.0208 -0.2141
 3661TIP3    H132474   3.392   1.235   4.716  0.7480  0.0859 -0.4111
 3661TIP3    H232475   3.353   1.118   4.627  0.9555 -0.3078  0.0122
 3662TIP3   OH232476   6.100   4.797   0.085  0.3605 -0.3869 -0.6105
 3662TIP3    H132477   6.064   4.872   0.038  0.7022 -0.1184 -0.4471
 3662TIP3    H232478   6.195   4.801   0.069  0.2438 -1.5302 -1.6751
 3663TIP3   OH232479   4.007   5.985  15.781  0.0092  0.4313 -0.0426
 3663TIP3    H132480   3.943   6.036  15.731  0.7839  1.0405 -0.4102
 3663TIP3    H232481   4.091   6.002  15.739  0.3293 -0.9027  0.0166
 3664TIP3   OH232482   4.707   0.869   5.168  0.6082  0.4102 -0.7573
 3664TIP3    H132483   4.665   0.942   5.214 -1.4957  0.7448 -3.1546
 3664TIP3    H232484   4.654   0.793   5.189  1.7155 -0.1269  0.1963
 3665TIP3   OH232485   5.861   2.756   2.340 -0.8478  0.6197 -0.4084
 3665TIP3    H132486   5.821   2.745   2.426  2.0238  0.7202  1.0059
 3665TIP3    H232487   5.924   2.684   2.334  0.1095  1.5506 -1.7453
 3666TIP3   OH232488   4.510   0.582   2.446  0.1821 -0.7549  0.3240
 3666TIP3    H132489   4.606   0.589   2.450  0.1378  0.9496 -1.0832
 3666TIP3    H232490   4.492   0.490   2.467  1.9897 -0.6505  2.5721
 3667TIP3   OH232491   3.549   6.383   3.983  0.0167  0.2325 -0.5089
 3667TIP3    H132492   3.552   6.476   3.958 -0.9503  0.3798 -0.0821
 3667TIP3    H232493   3.585   6.381   4.072  0.3712  0.1447 -0.6514
 3668TIP3   OH232494   6.477   2.235  15.076 -0.2290 -0.2866  0.6628
 3668TIP3    H132495   6.473   2.303  15.009  0.4369  0.0704  0.9872
 3668TIP3    H232496   6.570   2.226  15.096 -0.4932  0.1590  2.1132
 3669TIP3   OH232497   2.309   1.744   0.705 -0.4883 -0.1646 -0.0788
 3669TIP3    H132498   2.305   1.742   0.609  0.6430  2.2776 -0.2164
 3669TIP3    H232499   2.393   1.786   0.724 -0.7638 -0.5293  1.9863
 3670TIP3   OH232500   4.823   1.375   4.114  0.2597 -0.2149 -0.1242
 3670TIP3    H132501   4.915   1.395   4.096  0.1595  0.6636  0.3260
 3670TIP3    H232502   4.784   1.363   4.028  0.9052 -1.1103 -0.3060
 3671TIP3   OH232503   3.462   2.173  15.539  0.2693  0.4449 -0.0268
 3671TIP3    H132504   3.457   2.084  15.505 -1.0520 -0.1268  1.5747
 3671TIP3    H232505   3.378   2.187  15.582  0.8660  2.0780  0.6628
 3672TIP3   OH232506   4.765   4.565   4.495 -0.2148 -0.0780 -0.2376
 3672TIP3    H132507   4.683   4.522   4.470 -1.2772  1.4687  0.5398
 3672TIP3    H232508   4.828   4.537   4.429 -1.4786 -0.9176 -1.1075
 3673TIP3   OH232509   2.605   3.340  12.948  0.1967 -0.5845 -0.0373
 3673TIP3    H132510   2.605   3.399  13.024  0.0747 -0.9864  0.2726
 3673TIP3    H232511   2.514   3.340  12.918  0.2827 -0.2693 -0.3112
 3674TIP3   OH232512   3.356   6.443   1.197 -0.0460 -0.4481  0.2637
 3674TIP3    H132513   3.309   6.515   1.240 -0.8742 -0.0758 -1.2303
 3674TIP3    H232514   3.404   6.485   1.126  0.7098 -1.1612  0.3498
 3675TIP3   OH232515   6.351   3.473   4.359  0.5390 -0.5022 -0.2829
 3675TIP3    H132516   6.324   3.564   4.352 -0.6578 -0.9042 -1.0093
 3675TIP3    H232517   6.424   3.474   4.421  1.7761  1.1804 -1.7665
 3676TIP3   OH232518   6.647   0.583   0.025 -0.0496 -0.5058 -0.0494
 3676TIP3    H132519   6.608   0.549  -0.055  0.0994 -2.1840  0.5742
 3676TIP3    H232520   6.695   0.509   0.062 -2.6326 -0.7137  3.1826
 3677TIP3   OH232521   2.987   0.957   0.996  0.1067 -0.1339 -0.4529
 3677TIP3    H132522   2.974   0.863   1.002 -0.2518 -0.1113 -0.8208
 3677TIP3    H232523   2.970   0.978   0.904  0.1285  0.2970 -0.3619
 3678TIP3   OH232524   0.159   2.091  14.532 -0.3732 -0.4920 -0.3174
 3678TIP3    H132525   0.128   2.181  14.531  0.3198 -0.2498  0.1807
 3678TIP3    H232526   0.103   2.046  14.468  1.2820  0.9486 -2.8658
 3679TIP3   OH232527   0.381   1.951  11.411  0.0909 -0.0383 -0.2860
 3679TIP3    H132528   0.415   2.023  11.463  1.0602 -0.3415 -0.4889
 3679TIP3    H232529   0.436   1.876  11.435  0.3702 -0.2442 -1.5261
 3680TIP3   OH232530   5.263   6.023  11.333  0.7037  0.2002 -0.1813
 3680TIP3    H132531   5.350   6.025  11.292  1.0044 -1.5730  0.3492
 3680TIP3    H232532   5.216   5.955  11.284  0.1173  0.0895  0.5404
 3681TIP3   OH232533   0.788   3.062  14.667 -0.0509 -0.2368  0.1708
 3681TIP3    H132534   0.799   3.116  14.589  0.9821  0.9750  1.1275
 3681TIP3    H232535   0.702   3.086  14.701 -0.8484 -1.3524 -1.0120
 3682TIP3   OH232536   4.297   5.581  10.254 -0.1240 -0.0274 -0.2889
 3682TIP3    H132537   4.307   5.557  10.162 -0.2545 -1.0490 -0.0486
 3682TIP3    H232538   4.386   5.581  10.289 -0.1709 -0.7688 -0.1530
 3683TIP3   OH232539   0.974   4.990   0.179  0.2060  0.0299 -0.2045
 3683TIP3    H132540   0.973   5.012   0.086 -0.9362 -2.0326 -0.7108
 3683TIP3    H232541   1.014   5.066   0.221  1.2734  0.7517 -2.4293
 3684TIP3   OH232542   1.233   3.355   3.902 -0.0766 -0.2296  0.2567
 3684TIP3    H132543   1.322   3.386   3.887  1.1032 -2.1084  3.0229
 3684TIP3    H232544   1.212   3.382   3.991 -1.3278 -1.9682  0.5146
 3685TIP3   OH232545   5.969   2.900   3.097  0.8351  0.1963  0.2198
 3685TIP3    H132546   6.024   2.830   3.062  1.4330  0.2455  1.0491
 3685TIP3    H232547   6.025   2.947   3.159 -0.0042  0.4970  0.7746
 3686TIP3   OH232548   4.856   1.131  12.937  0.3919  0.4998 -0.3557
 3686TIP3    H132549   4.769   1.115  12.972  0.7054 -0.4890  0.0014
 3686TIP3    H232550   4.859   1.225  12.919  0.1661  1.0023  2.1380
 3687TIP3   OH232551   6.630   6.165  16.211  0.5202 -0.6412 -0.3189
 3687TIP3    H132552   6.593   6.191  16.295 -0.6424 -0.7291 -0.7902
 3687TIP3    H232553   6.596   6.077  16.196  1.1608 -0.8379 -0.6304
 3688TIP3   OH232554   0.893   6.744   6.016 -0.1165 -0.4263  0.5710
 3688TIP3    H132555   0.844   6.701   6.085  1.4955  0.5090  2.3433
 3688TIP3    H232556   0.966   6.684   5.998  0.2091 -0.0497  0.6272
 3689TIP3   OH232557   6.067   4.507   5.065 -0.2556  0.2733 -0.3624
 3689TIP3    H132558   5.994   4.551   5.020 -1.2390 -0.4105  0.5321
 3689TIP3    H232559   6.139   4.509   5.002 -1.0022  1.0830 -1.2138
 3690TIP3   OH232560   2.003   2.163   2.499 -0.0268  0.0397  0.1312
 3690TIP3    H132561   1.968   2.167   2.410  0.6882  1.8627 -0.1032
 3690TIP3    H232562   2.094   2.191   2.490  0.9296 -2.6728  1.0153
 3691TIP3   OH232563   0.508   2.231   3.299  0.3024 -0.1928  0.6557
 3691TIP3    H132564   0.471   2.173   3.366  1.3643 -0.9969  0.5689
 3691TIP3    H232565   0.602   2.234   3.319  0.5476 -0.0245 -0.4691
 3692TIP3   OH232566   0.836   0.026  11.916 -0.1195 -0.0996  0.2099
 3692TIP3    H132567   0.788   0.058  11.840 -0.5292  0.0384  0.5252
 3692TIP3    H232568   0.810  -0.066  11.924 -2.3774  0.6424  1.9369
 3693TIP3   OH232569   3.436   6.566   4.374 -0.4667 -0.1116  0.1928
 3693TIP3    H132570   3.461   6.655   4.399  0.6407 -0.8734  1.8575
 3693TIP3    H232571   3.518   6.521   4.357 -1.0102 -0.9360 -0.3186
 3694TIP3   OH232572   3.624   2.216   4.312  0.2237 -0.4424 -0.7923
 3694TIP3    H132573   3.709   2.172   4.305  0.1644 -0.3516 -2.2574
 3694TIP3    H232574   3.562   2.154   4.273 -0.8190 -1.5903  2.4783
 3695TIP3   OH232575   5.099   5.294   5.362  0.4359  0.0508  0.2766
 3695TIP3    H132576   5.098   5.232   5.289 -0.3575 -1.6098  1.6663
 3695TIP3    H232577   5.175   5.350   5.345  0.6926 -0.7865 -1.4143
 3696TIP3   OH232578   3.113   2.976   6.387 -0.2725 -0.3320 -0.2805
 3696TIP3    H132579   3.202   2.943   6.386 -0.4054 -0.6994 -1.3308
 3696TIP3    H232580   3.073   2.939   6.466  0.4642 -0.2570  0.1280
 3697TIP3   OH232581   1.655   4.946   0.063 -0.4446  0.5669  0.2434
 3697TIP3    H132582   1.668   4.851   0.055 -2.0108  0.3982 -0.6033
 3697TIP3    H232583   1.612   4.971  -0.019 -0.6249  1.9072  0.7332
 3698TIP3   OH232584   2.308   0.486  16.207  0.0507  0.2947 -0.4148
 3698TIP3    H132585   2.313   0.444  16.121 -0.1383 -1.3766  0.3661
 3698TIP3    H232586   2.397   0.480  16.241  0.5369  2.5680 -1.2152
 3699TIP3   OH232587   1.427   1.881  16.949 -0.0277 -0.4646 -0.2625
 3699TIP3    H132588   1.416   1.940  16.874  0.2852 -1.7637 -1.3441
 3699TIP3    H232589   1.400   1.796  16.916 -0.0031 -1.0323  1.1563
 3700TIP3   OH232590   0.930   4.252  17.165  0.5266 -0.2505  0.4158
 3700TIP3    H132591   0.836   4.243  17.149  0.2561  2.3495  0.3236
 3700TIP3    H232592   0.942   4.228  17.257 -0.2435 -0.4894  0.4526
 3701TIP3   OH232593   5.635   1.807   2.167  0.0940  0.1817 -0.1210
 3701TIP3    H132594   5.614   1.719   2.198  2.7126 -0.4829 -0.1114
 3701TIP3    H232595   5.638   1.799   2.071  0.2137  0.2854 -0.1264
 3702TIP3   OH232596   1.787   6.510  13.908 -0.0916  0.4822 -0.2374
 3702TIP3    H132597   1.820   6.596  13.936  0.3200  0.2470  0.0061
 3702TIP3    H232598   1.747   6.527  13.822  0.1350  0.8856 -0.2685
 3703TIP3   OH232599   6.785   5.485  15.466 -0.4864  0.4816  0.1451
 3703TIP3    H132600   6.793   5.542  15.390  0.3544  0.8782  0.5214
 3703TIP3    H232601   6.798   5.543  15.541  0.0524 -0.1458  0.5430
 3704TIP3   OH232602   1.682   5.268   6.354  0.2598  0.3595 -0.4063
 3704TIP3    H132603   1.773   5.295   6.339  0.6688 -0.2883  0.7863
 3704TIP3    H232604   1.678   5.178   6.323 -0.1864  0.6440 -1.1779
 3705TIP3   OH232605   2.388   5.726   4.018 -0.1499  0.2486 -0.7029
 3705TIP3    H132606   2.438   5.644   4.026  0.8115  0.7361 -1.5923
 3705TIP3    H232607   2.306   5.700   3.976  0.1501 -0.2717 -0.9755
 3706TIP3   OH232608   4.910   0.473  12.278  0.3162  0.1925 -0.8828
 3706TIP3    H132609   4.902   0.551  12.223 -0.3261  0.0820 -0.9566
 3706TIP3    H232610   4.823   0.432  12.274  0.1712  0.3465  0.4506
 3707TIP3   OH232611   6.315   4.317   1.199  0.2240  0.2976  0.1350
 3707TIP3    H132612   6.387   4.334   1.138 -0.7450 -0.6216 -1.3055
 3707TIP3    H232613   6.256   4.392   1.190  0.3240  0.4011  0.3219
 3708TIP3   OH232614   5.302   0.956  14.420  0.4130 -0.3031 -0.2886
 3708TIP3    H132615   5.223   0.994  14.382 -0.3668 -0.3576  1.2532
 3708TIP3    H232616   5.270   0.887  14.478  1.6650 -1.2013 -0.6372
 3709TIP3   OH232617   4.778   2.420  13.724 -0.1129  1.0200 -0.1427
 3709TIP3    H132618   4.747   2.340  13.681  0.8397  1.5606 -1.8564
 3709TIP3    H232619   4.794   2.393  13.815 -3.1812  0.1214  0.1926
 3710TIP3   OH232620   0.466   0.321   3.674 -0.1214 -0.0659 -0.0308
 3710TIP3    H132621   0.527   0.318   3.747 -0.5522 -1.6807  0.2697
 3710TIP3    H232622   0.521   0.336   3.597  0.4632  0.3180  0.4636
 3711TIP3   OH232623   4.941   4.480  15.618 -0.1746  1.0157 -0.7123
 3711TIP3    H132624   4.896   4.406  15.577 -0.2654  0.2745  0.6743
 3711TIP3    H232625   4.875   4.549  15.623 -1.0485  0.0781  0.9190
 3712TIP3   OH232626   1.249   4.835   4.051  0.3114 -0.3244 -0.1615
 3712TIP3    H132627   1.248   4.744   4.021 -0.1466 -0.6387  0.7757
 3712TIP3    H232628   1.336   4.867   4.026  0.3732 -0.9293 -0.7478
 3713TIP3   OH232629   3.757   0.872   1.523  0.1106 -0.4320  0.4743
 3713TIP3    H132630   3.820   0.867   1.595 -0.8622  0.8259  1.4512
 3713TIP3    H232631   3.781   0.952   1.475 -2.0112  1.2922  2.1504
 3714TIP3   OH232632   1.718   1.410  10.550 -0.0606 -0.8425 -0.0219
 3714TIP3    H132633   1.699   1.428  10.458  0.0702  0.5754  0.2180
 3714TIP3    H232634   1.776   1.333  10.548  0.8282 -0.1539 -1.1825
 3715TIP3   OH232635   0.210   4.275  16.190  0.7593  0.1668 -0.1149
 3715TIP3    H132636   0.203   4.205  16.125  1.2800 -0.0363  0.0447
 3715TIP3    H232637   0.156   4.346  16.155 -1.9079 -1.2443  0.9338
 3716TIP3   OH232638   5.174   0.759  16.229  0.3012  0.3652  0.2905
 3716TIP3    H132639   5.212   0.798  16.307 -0.3089  1.0751  0.2475
 3716TIP3    H232640   5.238   0.775  16.160  1.2270 -1.0260  0.8238
 3717TIP3   OH232641   1.182   3.830   2.571  0.5973 -0.1581  0.5019
 3717TIP3    H132642   1.242   3.756   2.562  1.0594  0.5124 -2.2408
 3717TIP3    H232643   1.096   3.793   2.556  0.7756 -0.2516 -0.3126
 3718TIP3   OH232644   3.724   6.290  12.723 -0.2585 -0.0854  0.2649
 3718TIP3    H132645   3.763   6.348  12.788 -0.7051 -1.9302  2.2359
 3718TIP3    H232646   3.630   6.300  12.735 -0.3541 -0.2187 -0.3255
 3719TIP3   OH232647   1.859   2.107   4.129  0.1150 -0.2213  0.1254
 3719TIP3    H132648   1.886   2.097   4.038  0.4946 -2.3208  0.4291
 3719TIP3    H232649   1.878   2.198   4.150  0.9131  0.0430 -1.6056
 3720TIP3   OH232650   2.645   0.958  13.131  0.4756  0.6514 -0.3642
 3720TIP3    H132651   2.685   0.998  13.054  1.6200  1.8726  0.8318
 3720TIP3    H232652   2.553   0.985  13.127  0.4585  0.4507 -1.4543
 3721TIP3   OH232653   6.359   1.353   1.729 -0.5102  0.4873 -0.4924
 3721TIP3    H132654   6.298   1.300   1.780 -0.1398 -0.5212 -1.0748
 3721TIP3    H232655   6.310   1.375   1.649 -1.0581  1.9864  0.2463
 3722TIP3   OH232656   0.654   5.900  10.845 -0.0825  0.3208 -0.0809
 3722TIP3    H132657   0.691   5.940  10.766 -0.6372  0.5127 -0.2429
 3722TIP3    H232658   0.701   5.817  10.854 -0.9913 -0.3434 -1.3938
 3723TIP3   OH232659   6.425   5.765   0.760  0.4134  0.2540  0.6232
 3723TIP3    H132660   6.376   5.697   0.715 -0.4709  0.7486  0.8273
 3723TIP3    H232661   6.362   5.835   0.774  0.6562  0.0838  2.6780
 3724TIP3   OH232662   6.436   6.295   0.303 -0.1676 -0.2647 -0.3582
 3724TIP3    H132663   6.450   6.258   0.216 -2.3109  1.6431 -1.5539
 3724TIP3    H232664   6.406   6.384   0.287 -0.3205  0.2167  2.3478
 3725TIP3   OH232665   0.902   0.570  11.557 -0.2642  0.4803  0.9485
 3725TIP3    H132666   0.868   0.480  11.558 -1.0354  0.7228 -0.9871
 3725TIP3    H232667   0.961   0.573  11.482  0.6807  1.2721  1.7124
 3726TIP3   OH232668   3.942   2.037  14.455  0.3148 -0.0722  0.1830
 3726TIP3    H132669   3.972   1.948  14.472  0.8679  0.0774 -0.0044
 3726TIP3    H232670   3.855   2.041  14.496  0.5808 -0.4832  0.7963
 3727TIP3   OH232671   2.749   4.132  12.264  0.5665  0.0624 -0.0217
 3727TIP3    H132672   2.797   4.057  12.227  0.9346  0.2723  0.0328
 3727TIP3    H232673   2.805   4.207  12.247  0.6358  0.1956  0.7792
 3728TIP3   OH232674   0.477   6.785  17.279  0.3098 -0.0583 -0.1498
 3728TIP3    H132675   0.403   6.741  17.235 -0.8916  0.2191  1.5449
 3728TIP3    H232676   0.554   6.739  17.247 -0.7018 -1.2815 -0.8978
 3729TIP3   OH232677   5.597   1.915  15.077 -0.6953  0.1877 -0.2949
 3729TIP3    H132678   5.597   1.924  15.172  0.9253 -2.1822 -0.0119
 3729TIP3    H232679   5.664   1.976  15.047 -1.5619  1.3079  0.0415
 3730TIP3   OH232680   0.583   2.667  13.637  0.1693  0.2524  0.3592
 3730TIP3    H132681   0.496   2.704  13.653 -0.3342 -0.7942  0.0383
 3730TIP3    H232682   0.638   2.709  13.704 -0.7741  0.1787  1.2036
 3731TIP3   OH232683   2.511   1.410  13.682 -0.1328  0.3099  0.5713
 3731TIP3    H132684   2.478   1.486  13.729 -1.0183  0.5582 -0.4120
 3731TIP3    H232685   2.432   1.363  13.654  0.3486  0.3608 -0.9529
 3732TIP3   OH232686   2.442   6.793  14.771 -0.0189 -0.0016 -0.3059
 3732TIP3    H132687   2.383   6.864  14.794 -0.4083 -0.4607  0.1316
 3732TIP3    H232688   2.426   6.777  14.678 -0.4301  0.0148 -0.2385
 3733TIP3   OH232689   0.229   2.009   0.126  0.4652 -0.0248 -0.2262
 3733TIP3    H132690   0.216   2.031   0.034 -0.5512 -0.0304 -0.0965
 3733TIP3    H232691   0.227   2.093   0.171 -2.6121 -0.2410  0.1778
 3734TIP3   OH232692   5.430   4.514   5.162  0.3539  0.2608  0.3740
 3734TIP3    H132693   5.337   4.496   5.172  0.1593  1.8036  1.6435
 3734TIP3    H232694   5.439   4.552   5.075 -0.4960  1.7625  0.9273
 3735TIP3   OH232695   5.948   0.281   2.422  0.0950  0.5357  0.2754
 3735TIP3    H132696   6.003   0.215   2.465  1.4559  1.4650 -0.0069
 3735TIP3    H232697   5.865   0.277   2.469  0.2276 -1.2323  0.4025
 3736TIP3   OH232698   0.041   4.381   0.301  0.6936 -0.2304 -0.2736
 3736TIP3    H132699   0.083   4.415   0.222  1.7964  2.0714  1.2740
 3736TIP3    H232700  -0.046   4.421   0.301  0.4836 -0.6718 -0.5779
 3737TIP3   OH232701   0.736   5.315  11.718  0.2329 -0.6988 -0.0489
 3737TIP3    H132702   0.828   5.324  11.695  0.2216 -0.5107 -0.0191
 3737TIP3    H232703   0.713   5.226  11.691 -0.0333 -0.1702 -1.6122
 3738TIP3   OH232704   5.863   0.457   2.784  0.4552  0.5354 -0.5505
 3738TIP3    H132705   5.902   0.369   2.790  0.0605  0.4622  1.2556
 3738TIP3    H232706   5.774   0.441   2.753  0.7789  0.4192 -1.4497
 3739TIP3   OH232707   3.150   0.340  16.957 -0.1293  0.0792  0.3923
 3739TIP3    H132708   3.176   0.415  17.009  0.2085  0.1967  0.0510
 3739TIP3    H232709   3.228   0.285  16.953 -0.4145 -0.3553  0.7507
 3740TIP3   OH232710   0.326   6.622  17.148 -0.7226  0.1662  0.3202
 3740TIP3    H132711   0.256   6.618  17.083 -0.4049  1.4671 -0.1182
 3740TIP3    H232712   0.405   6.603  17.099 -0.5787  0.3142  0.4953
 3741TIP3   OH232713   5.982   3.917  12.662 -0.6268 -0.5175 -0.2720
 3741TIP3    H132714   5.908   3.911  12.722  0.1471  1.7311  0.9644
 3741TIP3    H232715   5.968   4.000  12.616  2.9179  1.7102  2.4870
 3742TIP3   OH232716   4.900   4.576   3.353 -1.0005  0.1292  0.2231
 3742TIP3    H132717   4.970   4.522   3.316 -1.5866 -0.6806  0.2828
 3742TIP3    H232718   4.829   4.514   3.370 -1.6302  0.9038  0.4171
 3743TIP3   OH232719   5.870   4.869  17.058 -0.6123  0.4108 -0.6935
 3743TIP3    H132720   5.848   4.877  16.966  0.7363 -2.4015 -1.3022
 3743TIP3    H232721   5.863   4.775  17.077 -0.5764  0.9046  1.9908
 3744TIP3   OH232722   3.494   6.766  17.074 -0.1913 -0.0268  0.0711
 3744TIP3    H132723   3.533   6.680  17.062  2.8994  1.5858 -2.1319
 3744TIP3    H232724   3.453   6.787  16.990  0.0239  1.0830  0.2300
 3745TIP3   OH232725   5.391   6.753   6.388  0.1564  0.2202 -0.0862
 3745TIP3    H132726   5.297   6.768   6.396  0.2125  0.9440 -0.7888
 3745TIP3    H232727   5.412   6.696   6.462 -1.2077 -1.6692 -1.1047
 3746TIP3   OH232728   2.253   4.464   1.548  0.2558  0.4195  0.6660
 3746TIP3    H132729   2.171   4.478   1.597  0.3871  2.5635  0.3089
 3746TIP3    H232730   2.314   4.527   1.586  1.0938  0.3684 -0.5821
 3747TIP3   OH232731   3.318   5.859   5.317 -0.1893 -0.0989  0.4324
 3747TIP3    H132732   3.359   5.801   5.382 -0.3913 -0.6870  0.0415
 3747TIP3    H232733   3.391   5.885   5.260 -0.1227 -0.0715  0.5282
 3748TIP3   OH232734   4.203   5.203  10.716 -0.5595  0.1561 -0.1191
 3748TIP3    H132735   4.298   5.217  10.717 -0.2787 -1.6759 -0.2597
 3748TIP3    H232736   4.171   5.245  10.796  0.4150  0.4752  0.1032
 3749TIP3   OH232737   0.615   1.167  11.138 -1.0088  0.7120  0.3193
 3749TIP3    H132738   0.588   1.257  11.156 -2.0007  0.4473  0.1797
 3749TIP3    H232739   0.533   1.119  11.131 -0.4921 -0.1026 -0.1359
 3750TIP3   OH232740   1.837   5.739  17.260 -0.1648 -0.3227  0.4401
 3750TIP3    H132741   1.888   5.735  17.179 -0.9845  0.4981 -0.1293
 3750TIP3    H232742   1.883   5.681  17.321  0.6809 -0.6311 -0.4890
 3751TIP3   OH232743   4.627   2.187  13.677 -0.5552 -0.0815  0.2911
 3751TIP3    H132744   4.622   2.134  13.756 -0.1796 -0.8016 -0.1650
 3751TIP3    H232745   4.551   2.160  13.625  0.4647 -1.2654 -0.6083
 3752TIP3   OH232746   4.213   6.272   1.062 -0.0053  0.1340 -0.3715
 3752TIP3    H132747   4.164   6.215   1.003 -0.3746 -0.1492  0.1994
 3752TIP3    H232748   4.147   6.332   1.097  0.0111 -0.3686  0.5477
 3753TIP3   OH232749   4.437   5.520  13.790 -0.3487 -0.0634  0.7647
 3753TIP3    H132750   4.375   5.478  13.849 -0.8346 -0.1516  0.1914
 3753TIP3    H232751   4.407   5.497  13.702  0.6842 -0.3744  0.4847
 3754TIP3   OH232752   1.605   1.592  17.188  0.6348  0.4002  0.2629
 3754TIP3    H132753   1.660   1.651  17.240  1.7278 -0.9140  0.6446
 3754TIP3    H232754   1.652   1.582  17.105  0.6215 -0.1787  0.3233
 3755TIP3   OH232755   1.461   1.683   4.730 -0.4052 -0.1234 -0.0580
 3755TIP3    H132756   1.402   1.726   4.668 -0.0414 -1.1007 -1.0906
 3755TIP3    H232757   1.492   1.755   4.786 -1.2434  0.6644 -0.5823
 3756TIP3   OH232758   5.187   0.032  15.161  0.1884  0.1309 -1.0493
 3756TIP3    H132759   5.144   0.008  15.243 -0.0601  1.7962 -0.6687
 3756TIP3    H232760   5.198  -0.051  15.114  0.3129 -0.8244  0.6514
 3757TIP3   OH232761   4.276   4.757  14.477 -0.7318  0.0695 -0.0698
 3757TIP3    H132762   4.200   4.700  14.470  0.7994 -1.8834 -1.0876
 3757TIP3    H232763   4.323   4.745  14.395  1.1867  0.5224  0.9397
 3758TIP3   OH232764   5.984   0.598  16.111  1.0259 -0.2602  0.2036
 3758TIP3    H132765   5.942   0.605  16.025  0.9021  2.1209  0.4444
 3758TIP3    H232766   5.956   0.511  16.143 -0.4941 -0.3767 -1.3309
 3759TIP3   OH232767   2.129   2.975  16.900 -0.3285 -0.8435 -0.1997
 3759TIP3    H132768   2.114   3.036  16.972 -1.2042 -1.4926  0.1749
 3759TIP3    H232769   2.090   3.018  16.823  0.9633  0.0320 -0.3891
 3760TIP3   OH232770   0.991   4.505   5.479  0.6303 -0.3250 -0.2924
 3760TIP3    H132771   1.044   4.426   5.489 -0.2039 -0.9256 -0.6060
 3760TIP3    H232772   0.999   4.528   5.386 -0.0375 -0.6838 -0.4392
 3761TIP3   OH232773   4.865   5.367   5.900 -0.0002  0.0003 -0.3978
 3761TIP3    H132774   4.888   5.292   5.955  0.3323 -0.7140 -1.4878
 3761TIP3    H232775   4.773   5.384   5.918  0.0226 -0.4368  0.1327
 3762TIP3   OH232776   0.453   0.808   0.565 -0.1653 -0.1811  0.1416
 3762TIP3    H132777   0.377   0.812   0.507  0.0136  0.3325 -0.0610
 3762TIP3    H232778   0.522   0.856   0.518 -0.2998  1.0897  1.1980
 3763TIP3   OH232779   2.223   3.783   0.632 -0.0001  0.1718 -0.2096
 3763TIP3    H132780   2.190   3.697   0.660  1.2985  0.2941  1.8194
 3763TIP3    H232781   2.170   3.805   0.555 -1.2348 -1.8559  0.0106
 3764TIP3   OH232782   1.560   3.155   6.294  0.1786 -0.3073 -0.0586
 3764TIP3    H132783   1.608   3.083   6.336  2.1855  0.5553 -0.8299
 3764TIP3    H232784   1.598   3.161   6.206 -2.7571 -0.9344 -1.4400
 3765TIP3   OH232785   3.144   1.367  14.605 -0.0218  0.0182  0.5918
 3765TIP3    H132786   3.069   1.335  14.555  0.6360 -2.6308  1.2163
 3765TIP3    H232787   3.123   1.346  14.696  0.5108  1.3096  1.0335
 3766TIP3   OH232788   6.661   4.259  14.189  0.3498 -0.3115  0.1423
 3766TIP3    H132789   6.637   4.166  14.193 -0.8970 -0.0230 -0.4312
 3766TIP3    H232790   6.591   4.304  14.236  0.8708  0.3592  0.2873
 3767TIP3   OH232791   2.768   0.986   4.974 -0.2641 -0.7062 -0.0204
 3767TIP3    H132792   2.714   0.927   5.027  0.0715 -2.0829 -1.1656
 3767TIP3    H232793   2.849   0.937   4.958 -0.5583 -0.5335 -2.2029
 3768TIP3   OH232794   6.775   6.646   1.275 -0.0882  0.0061  0.1955
 3768TIP3    H132795   6.820   6.731   1.277 -1.1119  0.6102 -1.4456
 3768TIP3    H232796   6.737   6.642   1.187 -2.4393 -0.8981  1.2299
 3769TIP3   OH232797   3.551   2.539  14.839  0.2315 -0.4851  0.1444
 3769TIP3    H132798   3.491   2.549  14.913 -0.3376  2.6262 -0.6842
 3769TIP3    H232799   3.638   2.555  14.877 -0.2530  3.3693 -0.2201
 3770TIP3   OH232800   3.897   2.424   5.756 -0.3175  0.1440 -0.4415
 3770TIP3    H132801   3.889   2.328   5.764  0.4947  0.2425  2.2449
 3770TIP3    H232802   3.810   2.457   5.778 -0.4850  0.0276 -0.9394
 3771TIP3   OH232803   3.093   2.502  10.973 -0.2258 -0.7571  0.5494
 3771TIP3    H132804   3.073   2.589  10.939 -0.4188 -0.7138  0.7678
 3771TIP3    H232805   3.037   2.443  10.923 -2.0160 -0.4806  2.1832
 3772TIP3   OH232806   4.786   2.347  11.837 -0.0672  0.4072 -0.1369
 3772TIP3    H132807   4.833   2.264  11.837 -1.0884 -0.1890  1.6679
 3772TIP3    H232808   4.855   2.413  11.849  0.6792 -0.2038 -0.9876
 3773TIP3   OH232809   2.205   6.047  15.591 -0.4167  0.1874  0.5859
 3773TIP3    H132810   2.128   6.085  15.549 -0.8309 -0.0637  1.1257
 3773TIP3    H232811   2.215   6.095  15.673 -0.1593  0.0266  0.6515
 3774TIP3   OH232812   6.489   4.998   5.860  0.4921 -0.0703 -0.0860
 3774TIP3    H132813   6.448   4.929   5.808  2.6572  0.5026 -2.6653
 3774TIP3    H232814   6.558   4.954   5.908 -0.3729 -0.2872  0.9755
 3775TIP3   OH232815   4.740   4.495  12.643 -0.1555  0.6110  0.9020
 3775TIP3    H132816   4.800   4.550  12.591 -0.9393  2.2457  1.7090
 3775TIP3    H232817   4.798   4.442  12.697  0.6400  0.0103 -0.5140
 3776TIP3   OH232818   4.560   6.625   5.559 -0.2863  0.0462  0.0316
 3776TIP3    H132819   4.611   6.573   5.497 -0.1223  0.8449 -0.5096
 3776TIP3    H232820   4.623   6.686   5.597  0.1143 -1.9482  2.6976
 3777TIP3   OH232821   6.319   5.726   0.336 -0.9931  0.0089 -0.4139
 3777TIP3    H132822   6.376   5.801   0.353 -0.1421 -0.8371  0.4817
 3777TIP3    H232823   6.230   5.763   0.334 -0.6566  0.9092  0.8467
 3778TIP3   OH232824   1.705   3.587   0.820  0.5477 -0.3613  0.1029
 3778TIP3    H132825   1.763   3.657   0.792  1.8268 -0.8342  1.4963
 3778TIP3    H232826   1.661   3.559   0.740  1.2994  0.8514 -0.7600
 3779TIP3   OH232827   2.378   6.133   4.222 -0.1849 -0.0444  0.3333
 3779TIP3    H132828   2.360   6.155   4.314 -0.4666 -0.3977  0.3668
 3779TIP3    H232829   2.442   6.198   4.193 -1.3965  1.1390  0.2709
 3780TIP3   OH232830   4.608   0.636   2.870  0.1529  0.0358 -0.0947
 3780TIP3    H132831   4.696   0.656   2.902  0.1322 -1.5230  1.0302
 3780TIP3    H232832   4.592   0.701   2.802  2.0665  0.5110 -0.1367
 3781TIP3   OH232833   4.144   1.415  16.001 -0.3204  0.3119  0.1674
 3781TIP3    H132834   4.077   1.354  15.968 -0.5450  0.1230  0.9383
 3781TIP3    H232835   4.165   1.471  15.927 -0.3052 -0.5460 -0.4826
 3782TIP3   OH232836   0.225   4.624  11.932 -0.0185  0.3562 -0.1908
 3782TIP3    H132837   0.205   4.538  11.967 -0.3388 -0.0328 -1.3174
 3782TIP3    H232838   0.312   4.615  11.894  0.4868  0.8772  0.8117
 3783TIP3   OH232839   4.213   3.987  14.279  0.4630 -0.3166 -0.1491
 3783TIP3    H132840   4.162   4.044  14.337  0.6880 -0.7501  0.4905
 3783TIP3    H232841   4.148   3.938  14.229  0.2673  0.1968 -0.3891
 3784TIP3   OH232842   2.066   2.320   4.652 -0.0194 -0.3344 -0.2965
 3784TIP3    H132843   2.037   2.402   4.613  1.2376  0.4366  0.3545
 3784TIP3    H232844   2.018   2.313   4.734  2.5722  1.6531  1.4790
 3785TIP3   OH232845   4.104   0.422   4.947 -0.0990  0.0258 -0.2088
 3785TIP3    H132846   4.048   0.449   5.020 -0.2049  1.5227 -0.8380
 3785TIP3    H232847   4.054   0.443   4.869 -0.8120 -3.3785 -0.7246
 3786TIP3   OH232848   3.060   0.625  13.001  0.2183 -0.6254  0.0117
 3786TIP3    H132849   3.021   0.545  12.965 -0.3666 -0.1974 -0.3079
 3786TIP3    H232850   3.130   0.647  12.940 -0.3397 -0.2759 -0.5061
 3787TIP3   OH232851   1.335   6.616  15.744 -0.0477 -0.2970  0.1842
 3787TIP3    H132852   1.378   6.543  15.788 -1.1083 -0.7069  0.5667
 3787TIP3    H232853   1.373   6.694  15.784 -0.0253 -0.6589  0.8809
 3788TIP3   OH232854   0.864   2.055  12.874 -0.0629 -0.0152  0.6597
 3788TIP3    H132855   0.953   2.021  12.872 -0.6240 -1.5661  1.2116
 3788TIP3    H232856   0.843   2.073  12.782  1.1051  1.1599  0.6084
 3789TIP3   OH232857   3.047   0.068   6.491  0.0364 -0.0778  0.2359
 3789TIP3    H132858   3.126   0.061   6.437 -0.2018  0.4399 -0.1970
 3789TIP3    H232859   2.981   0.020   6.441  0.1827 -0.8834  0.8133
 3790TIP3   OH232860   5.084   0.562   3.284 -0.5124 -0.1592  0.3534
 3790TIP3    H132861   4.992   0.572   3.307 -0.5776  0.8247 -0.2969
 3790TIP3    H232862   5.083   0.545   3.190 -0.1674 -2.6510  0.7657
 3791TIP3   OH232863   5.776   6.388   5.199  0.4812 -0.1836 -0.0573
 3791TIP3    H132864   5.721   6.352   5.130  0.8645 -0.0187 -0.4459
 3791TIP3    H232865   5.714   6.419   5.265  0.1157 -0.0828 -0.4486
 3792TIP3   OH232866   2.496   3.713  13.457 -0.1609  0.4991 -0.8208
 3792TIP3    H132867   2.484   3.630  13.412  0.3108  0.8412 -1.5843
 3792TIP3    H232868   2.409   3.735  13.491  0.0581 -1.1570  0.8886
 3793TIP3   OH232869   4.041   4.080   4.558  0.2420 -0.0343  0.0117
 3793TIP3    H132870   4.090   4.001   4.536  1.1838  0.4149  0.4819
 3793TIP3    H232871   4.106   4.138   4.597 -0.5929  0.7064  0.2993
 3794TIP3   OH232872   3.229   6.799  17.228  0.0014 -0.3743 -0.4740
 3794TIP3    H132873   3.200   6.767  17.142 -0.1120  0.4144 -0.7325
 3794TIP3    H232874   3.310   6.846  17.209  0.0548 -0.3328 -0.1292
 3795TIP3   OH232875   3.993   2.998   4.272  0.0092  0.1803 -0.0054
 3795TIP3    H132876   4.016   2.971   4.183  0.9371  1.0503 -0.0474
 3795TIP3    H232877   3.977   2.916   4.319 -1.4070 -0.2398 -1.2120
 3796TIP3   OH232878   6.475   6.131  15.956  0.2162 -0.4414 -0.0920
 3796TIP3    H132879   6.474   6.068  16.028 -0.7955 -0.2331  0.0796
 3796TIP3    H232880   6.487   6.216  15.998 -1.8182 -0.1578 -0.0267
 3797TIP3   OH232881   5.387   6.153   3.757  0.9493 -0.3011 -0.5604
 3797TIP3    H132882   5.418   6.096   3.687 -1.0277 -0.2424 -1.5157
 3797TIP3    H232883   5.376   6.239   3.715  0.5095 -0.0752  0.0086
 3798TIP3   OH232884   2.842   4.786   2.609 -0.1371  0.8104  0.1861
 3798TIP3    H132885   2.755   4.763   2.576  0.8804 -0.0761 -1.9525
 3798TIP3    H232886   2.862   4.869   2.567  1.3041 -0.4818 -1.7175
 3799TIP3   OH232887   0.819   6.206   1.646  0.4718 -1.0954 -0.0209
 3799TIP3    H132888   0.806   6.120   1.607  1.4537 -0.5662 -1.5524
 3799TIP3    H232889   0.734   6.227   1.685 -0.0451 -2.3594 -0.4226
 3800TIP3   OH232890   4.395   0.650   3.449 -0.2735  0.0304  0.4162
 3800TIP3    H132891   4.467   0.644   3.511 -0.0270  1.3566  0.2615
 3800TIP3    H232892   4.405   0.573   3.393  0.8536  0.0558  0.5710
 3801TIP3   OH232893   1.808   6.564   3.157  0.2774  0.0205  0.0841
 3801TIP3    H132894   1.860   6.601   3.086 -2.2596  1.3693 -1.1352
 3801TIP3    H232895   1.722   6.607   3.149 -1.1656 -2.4390  1.7570
 3802TIP3   OH232896   3.684   0.815  15.404 -0.0930  0.1780  0.1245
 3802TIP3    H132897   3.645   0.887  15.454 -0.9844  0.9805 -1.6907
 3802TIP3    H232898   3.769   0.849  15.376 -0.0524  0.1263  0.1859
 3803TIP3   OH232899   0.238   0.926   5.568  0.1631 -0.2115 -0.1009
 3803TIP3    H132900   0.306   0.901   5.631  1.0027  0.2149 -0.8364
 3803TIP3    H232901   0.281   0.922   5.483 -0.0946  2.2738 -0.3698
 3804TIP3   OH232902   6.189   3.462  15.741  0.8272  0.5558 -0.0020
 3804TIP3    H132903   6.120   3.407  15.778 -0.0079  1.2436 -0.5019
 3804TIP3    H232904   6.204   3.529  15.808 -0.2866  1.4696 -0.6418
 3805TIP3   OH232905   1.546   3.845   0.597  0.1000 -0.0630  0.2489
 3805TIP3    H132906   1.489   3.768   0.598  0.9737 -0.7147  1.0399
 3805TIP3    H232907   1.517   3.898   0.671 -0.3652  0.2827 -0.1720
 3806TIP3   OH232908   2.367   4.189  14.059  0.2582  0.4675 -0.3678
 3806TIP3    H132909   2.378   4.102  14.097  1.6329  0.4279 -0.8307
 3806TIP3    H232910   2.385   4.178  13.966  1.7264  1.4681 -0.2243
 3807TIP3   OH232911   1.296   5.111  14.019 -0.0648 -0.3256 -0.4497
 3807TIP3    H132912   1.220   5.142  14.068 -0.1764 -0.3942 -0.5789
 3807TIP3    H232913   1.276   5.019  14.000  0.6150 -0.6978  0.6201
 3808TIP3   OH232914   5.519   0.530  15.253  0.3272 -0.0117  0.0586
 3808TIP3    H132915   5.604   0.573  15.255  0.9890 -1.2733 -0.3137
 3808TIP3    H232916   5.533   0.452  15.200 -0.8974 -0.5650  0.5353
 3809TIP3   OH232917   1.274   5.820  16.831 -0.0761  0.3682 -0.3383
 3809TIP3    H132918   1.340   5.751  16.839 -0.1784  0.3103 -0.0215
 3809TIP3    H232919   1.324   5.899  16.810  0.0248  0.1603 -0.8957
 3810TIP3   OH232920   0.693   2.372   3.579 -0.5245  0.2145  0.6661
 3810TIP3    H132921   0.734   2.316   3.513 -0.7939  0.4523  0.2948
 3810TIP3    H232922   0.611   2.328   3.601 -0.5022  0.2074  0.7348
 3811TIP3   OH232923   3.782   3.722  15.983  0.3670  0.0044  0.5184
 3811TIP3    H132924   3.760   3.762  16.067  1.5325  2.1551 -0.1842
 3811TIP3    H232925   3.710   3.747  15.925 -1.4265 -3.0583  1.2945
 3812TIP3   OH232926   5.649   4.944   3.078  0.3775  0.4691 -0.2257
 3812TIP3    H132927   5.700   4.874   3.118  0.1614 -0.4590 -1.5460
 3812TIP3    H232928   5.699   5.024   3.095  0.5233  0.0368  1.4621
 3813TIP3   OH232929   0.556   4.290   6.149  0.0866  0.3852 -0.7921
 3813TIP3    H132930   0.577   4.226   6.217  1.9468  0.1776 -1.5012
 3813TIP3    H232931   0.625   4.356   6.156 -0.9386  1.5108 -1.0798
 3814TIP3   OH232932   3.114   6.260  12.493 -0.0392 -0.4345 -0.6235
 3814TIP3    H132933   3.025   6.238  12.467 -1.1622  0.3469  2.3809
 3814TIP3    H232934   3.154   6.297  12.413 -2.8645  0.6216 -1.6178
 3815TIP3   OH232935   5.449   5.726   2.510  0.0739  0.0398 -0.7900
 3815TIP3    H132936   5.478   5.637   2.531  0.3890  0.0930 -0.9926
 3815TIP3    H232937   5.530   5.775   2.500 -0.1116  0.7049  0.8434
 3816TIP3   OH232938   3.430   5.290  12.033 -0.3568  0.3419  0.0663
 3816TIP3    H132939   3.415   5.373  11.987 -2.6860 -0.8818 -1.4660
 3816TIP3    H232940   3.448   5.227  11.964  0.3503 -0.6735  1.1529
 3817TIP3   OH232941   4.445   5.335  13.286 -0.4778 -0.3429 -0.3686
 3817TIP3    H132942   4.425   5.317  13.378  2.3796 -2.0861 -0.0244
 3817TIP3    H232943   4.516   5.400  13.290 -1.5901  0.9621 -1.4059
 3818TIP3   OH232944   1.947   1.706  11.297 -0.2581 -0.5341  0.0321
 3818TIP3    H132945   1.965   1.654  11.218  0.8784  0.8266 -0.6259
 3818TIP3    H232946   1.899   1.783  11.265 -0.7131 -0.4835  0.8180
 3819TIP3   OH232947   6.054   3.657   5.308 -0.3020 -0.5639 -0.7299
 3819TIP3    H132948   5.987   3.723   5.287  0.9973  1.1379  0.3417
 3819TIP3    H232949   6.035   3.631   5.398 -0.2826 -1.0224 -0.8563
 3820TIP3   OH232950   3.731   1.109   1.350 -0.1710  0.0944 -0.3540
 3820TIP3    H132951   3.746   1.177   1.416  0.3074 -0.6855  0.3552
 3820TIP3    H232952   3.798   1.126   1.283  1.2542 -0.8694  0.7950
 3821TIP3   OH232953   3.540   5.900  15.562  0.4185 -0.1601 -0.1107
 3821TIP3    H132954   3.599   5.973  15.581  0.2721  0.0308 -0.3854
 3821TIP3    H232955   3.452   5.939  15.569  0.3079 -0.5428  0.7411
 3822TIP3   OH232956   1.013   3.783  16.915  0.4164 -0.0176 -0.0345
 3822TIP3    H132957   0.965   3.700  16.924 -0.7537  0.6596  0.0182
 3822TIP3    H232958   0.999   3.828  16.998 -1.0315  1.3164 -0.9725
 3823TIP3   OH232959   0.777   0.265  12.350  0.2470  0.4662  0.4576
 3823TIP3    H132960   0.817   0.208  12.286 -1.8443  1.3641 -1.7495
 3823TIP3    H232961   0.760   0.209  12.426  1.4710 -0.9477 -0.3042
 3824TIP3   OH232962   2.335   0.278   5.514  0.1213  1.1058  0.2715
 3824TIP3    H132963   2.406   0.341   5.526  0.0222  1.2053  0.3384
 3824TIP3    H232964   2.291   0.275   5.599  1.3566 -0.5716  0.8899
 3825TIP3   OH232965   3.924   0.977  15.098  0.1067 -0.1983 -0.1342
 3825TIP3    H132966   3.951   0.925  15.174 -1.1865  0.4550  0.7889
 3825TIP3    H232967   3.865   1.043  15.134  0.2989  0.7671 -1.5663
 3826TIP3   OH232968   4.591   3.090  13.425  0.4488 -0.2971 -0.5949
 3826TIP3    H132969   4.510   3.138  13.440  0.1983 -0.0913 -2.5190
 3826TIP3    H232970   4.582   3.010  13.478 -1.5693 -0.8774 -1.7861
 3827TIP3   OH232971   4.656   1.153  10.579  0.0361  0.0604  1.0319
 3827TIP3    H132972   4.666   1.223  10.642  1.8513  1.5195 -0.7930
 3827TIP3    H232973   4.614   1.194  10.503  1.6305 -0.6115 -0.2731
 3828TIP3   OH232974   4.836   1.736   2.966  0.3364 -0.2574  0.0968
 3828TIP3    H132975   4.750   1.763   2.935  0.2253 -0.0477  0.5715
 3828TIP3    H232976   4.885   1.818   2.975  0.2684 -0.2803  0.7451
 3829TIP3   OH232977   2.490   0.857   4.003 -0.0127 -0.4978  0.0554
 3829TIP3    H132978   2.482   0.828   3.912  1.0457 -1.4052  0.2279
 3829TIP3    H232979   2.507   0.951   3.997  0.9291 -0.7037 -0.7367
 3830TIP3   OH232980   5.017   1.646  11.717 -0.2065 -0.4291 -0.2633
 3830TIP3    H132981   4.999   1.714  11.782 -0.4554  0.9078 -1.6827
 3830TIP3    H232982   4.999   1.564  11.762 -1.0126  0.5027  1.1523
 3831TIP3   OH232983   2.514   0.715   1.115 -1.1151  0.5648  0.2897
 3831TIP3    H132984   2.467   0.632   1.126  0.4306 -0.4297 -0.4475
 3831TIP3    H232985   2.579   0.715   1.186  1.2199 -0.5035 -1.8094
 3832TIP3   OH232986   5.955   0.384   0.163 -0.2459  0.0075  0.6923
 3832TIP3    H132987   5.936   0.436   0.086 -0.9446  1.7300  1.9977
 3832TIP3    H232988   5.977   0.297   0.129  1.2078  1.2005 -1.5323
 3833TIP3   OH232989   4.933   6.645  16.840  0.2354 -0.2411  0.5757
 3833TIP3    H132990   4.894   6.627  16.925 -1.7836  1.1427 -0.0270
 3833TIP3    H232991   5.023   6.673  16.859 -0.2717  0.2599  2.2483
 3834TIP3   OH232992   0.617   5.830   4.606  0.6872  0.4189 -0.1702
 3834TIP3    H132993   0.585   5.802   4.691 -0.6999 -1.1642 -1.1910
 3834TIP3    H232994   0.677   5.901   4.625  1.3135 -0.7203  2.2124
 3835TIP3   OH232995   3.691   0.146  13.063 -0.1163  0.3163  0.0242
 3835TIP3    H132996   3.736   0.073  13.020 -1.5388 -1.8010  1.9979
 3835TIP3    H232997   3.748   0.222  13.048  1.1233 -1.0641 -2.5437
 3836TIP3   OH232998   2.905   3.169  11.419 -0.0938 -0.0209  0.0835
 3836TIP3    H132999   2.886   3.162  11.326 -3.3691  1.2891  0.5867
 3836TIP3    H233000   2.993   3.204  11.424  0.8001 -1.7800 -2.4912
 3837TIP3   OH233001   4.020   5.971  15.371 -0.4102 -0.2056  0.1153
 3837TIP3    H133002   4.056   5.907  15.310 -0.9151  0.7806 -1.2260
 3837TIP3    H233003   3.956   5.922  15.423 -1.3022 -0.6445 -1.3706
 3838TIP3   OH233004   2.123   0.679   1.875  0.2645 -0.2919  0.2423
 3838TIP3    H133005   2.080   0.706   1.957  0.8882  0.9240  0.1780
 3838TIP3    H233006   2.215   0.674   1.897  0.5991  1.2957 -0.6929
 3839TIP3   OH233007   4.791   5.057   3.849  0.1402 -0.0661 -0.3199
 3839TIP3    H133008   4.743   4.974   3.841  0.8755 -0.4423 -0.8567
 3839TIP3    H233009   4.824   5.074   3.761  0.3605  0.5740 -0.1129
 3840TIP3   OH233010   0.616   3.947   1.136  0.0717 -0.0332  0.3954
 3840TIP3    H133011   0.595   3.975   1.225 -0.6825  0.7902 -0.0313
 3840TIP3    H233012   0.614   3.852   1.139 -3.7352 -0.0070  0.4127
 3841TIP3   OH233013   5.266   1.456   3.812 -0.4048 -0.0675 -0.2093
 3841TIP3    H133014   5.329   1.475   3.881 -0.6220 -2.6578  0.7452
 3841TIP3    H233015   5.318   1.446   3.733 -0.0204  1.4841 -0.1781
 3842TIP3   OH233016   5.467   4.907  14.790 -0.4506 -0.3473 -1.0618
 3842TIP3    H133017   5.546   4.954  14.817 -1.1282 -0.1307  0.5876
 3842TIP3    H233018   5.469   4.826  14.841 -1.2110 -0.4100 -1.1282
 3843TIP3   OH233019   1.604   6.539  13.118 -0.3787 -0.3945  0.4823
 3843TIP3    H133020   1.528   6.585  13.083  0.4559  0.0772 -0.7447
 3843TIP3    H233021   1.666   6.537  13.046  1.8806  1.6939  2.2824
 3844TIP3   OH233022   4.952   6.755   0.193 -0.0536 -0.0706  0.2098
 3844TIP3    H133023   4.937   6.842   0.227  1.6306 -0.1825  1.2968
 3844TIP3    H233024   5.006   6.769   0.115  0.2028 -0.1427  0.3748
 3845TIP3   OH233025   4.378   5.298   4.570 -0.5520 -0.4134 -0.5885
 3845TIP3    H133026   4.423   5.315   4.488 -1.7486 -0.2680 -1.2217
 3845TIP3    H233027   4.392   5.377   4.622  1.0256 -0.8893 -0.2653
 3846TIP3   OH233028   5.763   4.752   2.359  0.0146 -0.0256  0.3322
 3846TIP3    H133029   5.839   4.723   2.408  0.6141  1.2673  0.1917
 3846TIP3    H233030   5.754   4.688   2.288  0.0461 -1.0373  1.2192
 3847TIP3   OH233031   5.172   5.748  13.846 -0.0197 -0.7537  0.2173
 3847TIP3    H133032   5.238   5.817  13.837 -0.2746 -0.6955 -1.3213
 3847TIP3    H233033   5.160   5.738  13.940  1.8392 -0.4300  0.5079
 3848TIP3   OH233034   4.782   5.471  16.790  0.4967 -0.4368  0.0855
 3848TIP3    H133035   4.834   5.402  16.830  1.3643 -0.8415 -1.6647
 3848TIP3    H233036   4.845   5.521  16.738 -0.7054 -0.4065 -1.3772
 3849TIP3   OH233037   1.002   0.827   5.359  0.6525  0.1846  0.3866
 3849TIP3    H133038   1.020   0.821   5.265  0.7650  1.8914  0.2815
 3849TIP3    H233039   0.992   0.736   5.387 -0.8804 -0.2964 -1.5709
 3850TIP3   OH233040   2.769   5.340   3.561 -0.8080  0.2157 -0.6898
 3850TIP3    H133041   2.859   5.345   3.529  0.3867 -0.1229  2.4459
 3850TIP3    H233042   2.718   5.391   3.497  1.5688  0.3498 -2.5538
 3851TIP3   OH233043   4.827   3.687  15.963 -0.0591 -0.8288  0.2996
 3851TIP3    H133044   4.773   3.633  16.020  0.1581 -1.4117 -0.0418
 3851TIP3    H233045   4.917   3.671  15.993 -0.1231  0.6787  1.3316
 3852TIP3   OH233046   2.723   1.267  14.786 -0.3431  0.3949  0.6247
 3852TIP3    H133047   2.734   1.235  14.875  2.1004  0.9749  0.5745
 3852TIP3    H233048   2.723   1.362  14.794 -0.1999  0.4501  0.0164
 3853TIP3   OH233049   5.730   4.995   3.868 -0.0895 -0.5577 -0.0724
 3853TIP3    H133050   5.726   4.976   3.962  0.4862 -1.0918 -0.1554
 3853TIP3    H233051   5.789   5.071   3.862 -1.6561  0.7042  0.1709
 3854TIP3   OH233052   5.011   6.208   0.571  0.3902 -0.7551 -0.2042
 3854TIP3    H133053   5.018   6.267   0.646  1.2408  0.1655 -0.9853
 3854TIP3    H233054   4.950   6.140   0.599 -2.6985  1.8833 -0.1903
 3855TIP3   OH233055   2.064   1.393  16.331  0.3961 -0.2751  0.4577
 3855TIP3    H133056   2.033   1.311  16.292 -0.2487 -0.2483  0.9038
 3855TIP3    H233057   2.080   1.450  16.256  2.0477 -1.2082  0.0668
 3856TIP3   OH233058   4.202   1.984  11.528  0.4663  0.1066 -0.2045
 3856TIP3    H133059   4.121   2.024  11.558  0.6806  1.3392 -1.2449
 3856TIP3    H233060   4.201   1.995  11.433  2.9212  2.1804 -0.0376
 3857TIP3   OH233061   3.931   6.053   3.485  0.2067 -0.1241 -0.0277
 3857TIP3    H133062   3.950   6.127   3.427  0.3618  0.0517  0.2466
 3857TIP3    H233063   3.843   6.025   3.460 -0.1332  0.5971  0.3432
 3858TIP3   OH233064   0.504   6.539   4.724 -0.6832 -0.2684  0.1825
 3858TIP3    H133065   0.509   6.478   4.650  0.0450  0.5373 -0.4372
 3858TIP3    H233066   0.449   6.494   4.788 -0.2810 -1.5114 -0.3312
 3859TIP3   OH233067   1.366   2.587  13.572  0.2579  0.7815 -0.0772
 3859TIP3    H133068   1.396   2.675  13.597  0.9542  0.2065  1.1464
 3859TIP3    H233069   1.273   2.587  13.596 -0.5750  2.2363 -3.0040
 3860TIP3   OH233070   1.672   1.324   5.846  0.1827  0.8314  0.8322
 3860TIP3    H133071   1.650   1.313   5.939  1.1796 -1.3187  0.8427
 3860TIP3    H233072   1.740   1.258   5.830 -1.5193 -0.3217 -1.9392
 3861TIP3   OH233073   2.141   6.331   1.978 -0.4126  0.2320  0.0620
 3861TIP3    H133074   2.081   6.376   2.038 -2.7373 -0.1949 -1.8909
 3861TIP3    H233075   2.162   6.397   1.912 -0.4608 -0.2689 -0.4563
 3862TIP3   OH233076   5.059   5.517  15.891 -0.3424 -0.1653 -0.3015
 3862TIP3    H133077   4.991   5.450  15.906  1.1109 -1.3635  1.1413
 3862TIP3    H233078   5.031   5.592  15.943  0.1444 -1.1781  1.4744
 3863TIP3   OH233079   6.086   6.294   4.540  0.0047  0.1198  0.5100
 3863TIP3    H133080   6.093   6.308   4.634  0.5687 -1.2774  0.6809
 3863TIP3    H233081   5.993   6.304   4.522  0.0729  1.8423  0.9625
 3864TIP3   OH233082   0.374   4.813   5.842 -0.3666 -0.2942 -0.2761
 3864TIP3    H133083   0.373   4.856   5.757 -1.2708  0.7407  0.2513
 3864TIP3    H233084   0.284   4.784   5.856 -0.3529  0.0391  0.5609
 3865TIP3   OH233085   5.695   1.503   0.015 -0.0188  0.4361  0.4913
 3865TIP3    H133086   5.716   1.525  -0.075 -1.6026 -2.9712 -0.8112
 3865TIP3    H233087   5.630   1.568   0.042 -0.6907  0.5458 -1.3496
 3866TIP3   OH233088   6.381   6.151   1.998 -0.2879 -0.0442 -0.2632
 3866TIP3    H133089   6.448   6.105   2.047 -0.5218  0.5817  0.6541
 3866TIP3    H233090   6.427   6.224   1.956 -0.9556  2.4867  3.1869
 3867TIP3   OH233091   0.394   0.854   2.366  0.3958  0.6256 -0.0776
 3867TIP3    H133092   0.408   0.759   2.363 -0.1184  0.4546  1.9875
 3867TIP3    H233093   0.481   0.892   2.365  0.5934  0.2427 -2.5994
 3868TIP3   OH233094   0.797   1.881   1.300  0.1065 -0.1876 -0.2157
 3868TIP3    H133095   0.723   1.941   1.287 -0.8351 -1.2178  0.2655
 3868TIP3    H233096   0.783   1.844   1.388  0.9454 -0.7371 -0.3051
 3869TIP3   OH233097   1.880   4.518  14.963 -0.2660  0.2156  0.1719
 3869TIP3    H133098   1.894   4.531  15.057 -0.5819 -1.1429  0.4149
 3869TIP3    H233099   1.800   4.567  14.944  0.1228  0.9830  0.4904
 3870TIP3   OH233100   1.238   3.600  13.650  0.0905 -0.1409 -0.0179
 3870TIP3    H133101   1.198   3.514  13.654  0.7290 -0.4843 -0.8119
 3870TIP3    H233102   1.208   3.645  13.729  1.1524 -1.6830  1.2755
 3871TIP3   OH233103   0.164   1.723   1.509  0.4065  0.0007 -0.0063
 3871TIP3    H133104   0.109   1.645   1.508  1.9718 -1.1372 -1.8455
 3871TIP3    H233105   0.206   1.722   1.596 -1.1491 -0.0476  0.7544
 3872TIP3   OH233106   4.409   2.245  14.257 -0.0326 -0.3196  0.3184
 3872TIP3    H133107   4.424   2.160  14.298 -2.5453 -0.4365  1.0953
 3872TIP3    H233108   4.421   2.309  14.327  0.2335 -0.1548  0.1243
 3873TIP3   OH233109   3.154   4.508  15.598  0.1102 -0.3786  0.2053
 3873TIP3    H133110   3.180   4.442  15.533 -0.0536 -1.6995  1.4645
 3873TIP3    H233111   3.080   4.552  15.557 -0.0004 -1.2077 -0.5174
 3874TIP3   OH233112   3.993   1.270  15.231  0.1230 -0.5836  0.2427
 3874TIP3    H133113   4.087   1.289  15.224 -0.1027  1.8562  2.6803
 3874TIP3    H233114   3.951   1.352  15.205 -1.2447 -0.9613  1.2367
 3875TIP3   OH233115   2.478   3.973  12.370  0.3213  0.1695 -0.1581
 3875TIP3    H133116   2.562   4.012  12.347 -0.7855  2.2093 -0.9370
 3875TIP3    H233117   2.468   3.991  12.464  1.6672 -1.9357  0.4216
 3876TIP3   OH233118   4.932   1.326  11.143  0.3253 -0.4028  0.1824
 3876TIP3    H133119   5.017   1.368  11.136 -0.0670  0.4895  0.6819
 3876TIP3    H233120   4.869   1.396  11.125 -0.3190 -0.9350  0.3252
 3877TIP3   OH233121   4.787   2.492   5.614 -0.0265 -0.5976 -0.2765
 3877TIP3    H133122   4.734   2.470   5.538  0.7816  0.1216 -1.0516
 3877TIP3    H233123   4.758   2.430   5.682 -1.8252 -0.2282 -0.6838
 3878TIP3   OH233124   6.474   6.505  14.577 -0.2535 -0.0002  0.0131
 3878TIP3    H133125   6.549   6.453  14.605 -0.0353 -0.8940 -2.1646
 3878TIP3    H233126   6.398   6.449  14.595 -0.2804  0.2529  0.7042
 3879TIP3   OH233127   4.932   5.149  11.281 -0.3819 -0.2039 -0.1974
 3879TIP3    H133128   5.004   5.210  11.267  0.2115 -0.5939  1.0696
 3879TIP3    H233129   4.878   5.191  11.347  0.1095 -1.1072  0.7917
 3880TIP3   OH233130   0.635   2.937  13.016  0.6213 -0.2057  0.3240
 3880TIP3    H133131   0.653   2.910  12.926  1.2541  0.2557  0.3161
 3880TIP3    H233132   0.549   2.980  13.011  0.2880 -0.8832  0.0803
 3881TIP3   OH233133   1.035   2.850   3.568 -0.1381 -0.2580  0.4263
 3881TIP3    H133134   1.073   2.801   3.495 -0.0488  0.9205 -0.3320
 3881TIP3    H233135   0.941   2.855   3.548 -0.2406 -0.6356  0.8060
 3882TIP3   OH233136   0.145   6.100  15.933  0.0055  0.3387  0.2053
 3882TIP3    H133137   0.078   6.032  15.925  0.3121 -0.0305  0.7985
 3882TIP3    H233138   0.163   6.126  15.843 -0.2415 -0.2346 -0.0135
 3883TIP3   OH233139   3.358   0.921  13.983  0.5380  1.0161 -0.0740
 3883TIP3    H133140   3.325   0.855  13.922  1.2876 -0.9146  1.5472
 3883TIP3    H233141   3.398   0.988  13.927  0.4497 -0.2704 -1.7227
 3884TIP3   OH233142   2.843   0.379   3.691 -0.0887 -0.1038 -0.7746
 3884TIP3    H133143   2.917   0.418   3.737 -0.8507  2.0347 -1.3248
 3884TIP3    H233144   2.877   0.355   3.605  0.3356 -0.5559 -0.4877
 3885TIP3   OH233145   3.917   5.374  10.045 -0.7615 -0.4444 -0.0921
 3885TIP3    H133146   3.991   5.339  10.095 -1.1407 -0.8560  0.1846
 3885TIP3    H233147   3.953   5.450   9.999 -0.4212 -0.0121  0.8623
 3886TIP3   OH233148   2.089   4.149   4.506 -0.3783 -0.0368 -0.3326
 3886TIP3    H133149   2.068   4.105   4.423 -0.1217  0.1661 -0.5074
 3886TIP3    H233150   2.133   4.230   4.480 -0.0890 -0.0810  0.0062
 3887TIP3   OH233151   5.574   2.269   5.160 -0.8162 -0.2250  0.4895
 3887TIP3    H133152   5.486   2.306   5.166 -0.6361  0.1991  0.4962
 3887TIP3    H233153   5.559   2.174   5.150 -1.2826 -0.0926 -0.0978
 3888TIP3   OH233154   2.548   1.933  17.025  0.1753  0.0517  0.2152
 3888TIP3    H133155   2.622   1.936  17.085  0.0383 -2.2579  0.5629
 3888TIP3    H233156   2.587   1.930  16.938  0.5489 -1.4663  0.4081
 3889TIP3   OH233157   4.626   3.874   1.483 -0.3392 -0.0568 -0.1374
 3889TIP3    H133158   4.576   3.954   1.468  0.4030  0.3983 -0.1672
 3889TIP3    H233159   4.604   3.849   1.573  0.0015  0.5767  0.1199
 3890TIP3   OH233160   5.306   5.596   5.386  0.2735 -0.4995 -0.2982
 3890TIP3    H133161   5.398   5.622   5.386  0.1611 -0.0844  0.2734
 3890TIP3    H233162   5.305   5.510   5.344  0.8756 -0.3465 -0.6338
 3891TIP3   OH233163   0.346   6.726  11.637  0.0706 -0.2150  0.3550
 3891TIP3    H133164   0.302   6.794  11.689 -0.4422 -1.9746  2.2723
 3891TIP3    H233165   0.329   6.645  11.684 -0.6600 -1.9503 -2.7402
 3892TIP3   OH233166   0.796   3.636   2.573  0.0201 -0.1027 -0.2779
 3892TIP3    H133167   0.754   3.712   2.612  0.6499  0.7798 -1.2972
 3892TIP3    H233168   0.802   3.572   2.644 -1.4451  0.4070  0.3132
 3893TIP3   OH233169   1.532   5.420  16.079  0.4844  0.0726 -0.3792
 3893TIP3    H133170   1.625   5.414  16.102  0.2368  0.0893  0.6371
 3893TIP3    H233171   1.495   5.336  16.107  0.0445  0.3574 -0.0987
 3894TIP3   OH233172   1.946   4.301  11.766  0.0112  0.2535 -0.1037
 3894TIP3    H133173   1.939   4.304  11.671  0.0999  0.3200 -0.1083
 3894TIP3    H233174   1.987   4.216  11.784  1.1803  0.7871 -0.1996
 3895TIP3   OH233175   2.348   0.770   2.056  0.1453  0.2017  0.3528
 3895TIP3    H133176   2.441   0.781   2.036 -0.1783  2.3812 -0.1782
 3895TIP3    H233177   2.318   0.859   2.077 -1.8713 -0.4286  0.2549
 3896TIP3   OH233178   3.459   0.023   0.388 -0.8147  0.1874  0.6414
 3896TIP3    H133179   3.521  -0.050   0.386  0.2679  1.0371  2.1330
 3896TIP3    H233180   3.403   0.009   0.312  0.8489 -0.9178 -0.4162
 3897TIP3   OH233181   6.123   0.186  13.135  0.1833 -0.0818  0.4275
 3897TIP3    H133182   6.179   0.262  13.117  0.4151 -0.1687  0.7814
 3897TIP3    H233183   6.075   0.173  13.053 -0.0248  0.5842  0.4337
 3898TIP3   OH233184   5.041   4.595   2.535 -0.2843 -0.1280  0.2777
 3898TIP3    H133185   5.037   4.553   2.621  0.5443  0.9619  0.8575
 3898TIP3    H233186   5.128   4.573   2.503  0.5315  1.9479  1.0120
 3899TIP3   OH233187   5.567   1.024  16.699 -0.2192 -0.3229 -0.6661
 3899TIP3    H133188   5.635   1.039  16.633  0.3424  0.7079  0.1438
 3899TIP3    H233189   5.485   1.042  16.652  0.1788  0.4879 -1.0594
 3900TIP3   OH233190   3.930   2.153   5.069 -0.0050 -0.4611 -0.3607
 3900TIP3    H133191   3.865   2.197   5.124 -1.6988  0.9429 -3.3848
 3900TIP3    H233192   3.913   2.060   5.082  0.1191 -0.1780  2.0417
 3901TIP3   OH233193   1.547   1.573  14.204  0.2001 -0.6309  0.2869
 3901TIP3    H133194   1.491   1.609  14.273 -0.4992  0.0641 -0.6209
 3901TIP3    H233195   1.539   1.478  14.214 -0.3647 -0.5336  0.7923
 3902TIP3   OH233196   4.349   1.636   5.972 -0.1835 -0.0109 -0.0159
 3902TIP3    H133197   4.408   1.647   6.047  0.0855 -3.2529  0.3118
 3902TIP3    H233198   4.401   1.665   5.896  1.5708 -1.9826  0.3833
 3903TIP3   OH233199   5.140   6.123  16.436  0.1861  0.2002  0.7355
 3903TIP3    H133200   5.165   6.032  16.419 -2.3166 -0.3040 -0.4921
 3903TIP3    H233201   5.216   6.161  16.481  1.9065 -2.0204 -0.2139
 3904TIP3   OH233202   4.723   6.499   5.392 -0.6578 -0.2455  0.1723
 3904TIP3    H133203   4.756   6.414   5.365  0.5768  0.1278  0.4531
 3904TIP3    H233204   4.713   6.548   5.311  0.1913 -0.1197  0.1394
 3905TIP3   OH233205   4.273   4.359   0.320  0.1282 -0.0294  0.0685
 3905TIP3    H133206   4.223   4.278   0.329 -1.4717  1.0415  1.2508
 3905TIP3    H233207   4.212   4.421   0.281  1.5862  0.4062 -1.5813
 3906TIP3   OH233208   3.010   2.035  16.694  0.0375 -0.1322 -0.6055
 3906TIP3    H133209   3.046   1.961  16.743 -2.2091 -1.1604 -0.4473
 3906TIP3    H233210   3.037   2.112  16.743 -1.7222 -1.1245  2.0404
 3907TIP3   OH233211   4.735   3.511   2.638  0.1049 -0.0902  0.1152
 3907TIP3    H133212   4.701   3.506   2.728 -2.1705  1.1256 -0.6434
 3907TIP3    H233213   4.814   3.565   2.646  0.2022 -0.3908  1.4371
 3908TIP3   OH233214   2.725   4.351   5.817  0.2766 -0.0629  0.1523
 3908TIP3    H133215   2.757   4.433   5.778  0.3342 -0.9052 -1.6332
 3908TIP3    H233216   2.656   4.322   5.757 -1.0036 -0.3912  1.7542
 3909TIP3   OH233217   4.856   1.667  14.129 -0.3126  0.4638  0.1008
 3909TIP3    H133218   4.907   1.741  14.096 -1.0695  0.7808 -0.3799
 3909TIP3    H233219   4.771   1.674  14.084 -0.9343  0.1933  1.2058
 3910TIP3   OH233220   6.099   3.636  13.339 -0.0634  0.7460  0.5042
 3910TIP3    H133221   6.161   3.604  13.273 -0.5376  0.0387  0.3878
 3910TIP3    H233222   6.013   3.618  13.301 -0.3418  2.2599  0.4111
 3911TIP3   OH233223   4.363   2.808  12.228 -0.4459  0.4621  0.2875
 3911TIP3    H133224   4.302   2.768  12.290 -0.0199 -0.8095 -0.1018
 3911TIP3    H233225   4.330   2.897  12.216 -1.0385  0.4374  1.6584
 3912TIP3   OH233226   1.363   1.524   5.101 -0.0562  0.5381  0.1054
 3912TIP3    H133227   1.422   1.459   5.138 -0.2021  0.0104 -0.5869
 3912TIP3    H233228   1.284   1.476   5.079  0.6274  0.4878 -2.4325
 3913TIP3   OH233229   0.076   1.821   6.008 -0.1868  0.2499  0.8002
 3913TIP3    H133230   0.015   1.748   6.018 -0.2683  0.4062  1.5112
 3913TIP3    H233231   0.145   1.803   6.073 -1.0672  1.6685  2.1601
 3914TIP3   OH233232   5.300   5.565  14.806  0.3170 -0.2615  0.2275
 3914TIP3    H133233   5.364   5.552  14.736  0.0318  0.6156 -0.2055
 3914TIP3    H233234   5.329   5.507  14.876  0.5398 -1.2412 -0.6564
 3915TIP3   OH233235   2.699   1.363   0.696 -0.3456 -0.2059 -0.3981
 3915TIP3    H133236   2.677   1.312   0.774  3.6648  0.8955  1.6216
 3915TIP3    H233237   2.662   1.313   0.623 -0.2673 -3.7041  1.8252
 3916TIP3   OH233238   6.809   4.571   5.209 -0.3967  0.6119 -0.6096
 3916TIP3    H133239   6.809   4.521   5.290  1.2748 -0.7238 -1.4075
 3916TIP3    H233240   6.743   4.640   5.223 -0.1603  0.3803  1.8417
 3917TIP3   OH233241   3.702   1.666  11.881  0.5444  0.3874 -0.1958
 3917TIP3    H133242   3.796   1.678  11.893  1.4391 -3.5224 -2.4334
 3917TIP3    H233243   3.683   1.582  11.921 -1.5195 -0.0206 -1.9538
 3918TIP3   OH233244   4.435   3.350  13.523 -0.7313  0.7443 -0.7204
 3918TIP3    H133245   4.384   3.270  13.509  3.0139 -1.9773  0.2752
 3918TIP3    H233246   4.458   3.379  13.435  0.3850 -1.0628 -1.0637
 3919TIP3   OH233247   0.462   6.645   3.085 -0.1860 -0.0712  0.6250
 3919TIP3    H133248   0.413   6.607   3.157 -2.7583  2.3690  0.2425
 3919TIP3    H233249   0.472   6.737   3.108  0.4669  0.3692 -1.3065
 3920TIP3   OH233250   0.631   0.503   6.178 -0.1415 -0.2890 -0.1065
 3920TIP3    H133251   0.588   0.586   6.198  0.1577 -0.2646  0.4268
 3920TIP3    H233252   0.678   0.519   6.096 -0.0784  0.0691  0.0004
 3921TIP3   OH233253   4.717   1.071  13.343 -0.5500 -0.0446 -0.2069
 3921TIP3    H133254   4.670   1.093  13.263  0.4446 -0.3894 -0.8923
 3921TIP3    H233255   4.703   0.977  13.354  0.3777 -0.2467 -0.6867
 3922TIP3   OH233256   3.452   6.772   3.480 -0.5588 -0.5652 -0.8103
 3922TIP3    H133257   3.548   6.773   3.470 -0.0681  0.3071  3.1052
 3922TIP3    H233258   3.421   6.844   3.426  1.3120  1.0191  0.1732
 3923TIP3   OH233259   3.575   5.428  13.710  0.3731  0.2766  0.7787
 3923TIP3    H133260   3.493   5.446  13.757  1.4607 -0.5311  3.1089
 3923TIP3    H233261   3.643   5.461  13.768  1.6666  2.6189 -1.9737
 3924TIP3   OH233262   1.046   6.698   0.896 -0.4512 -0.3824 -0.2008
 3924TIP3    H133263   1.048   6.629   0.829 -0.5955 -1.4262  0.8427
 3924TIP3    H233264   1.124   6.751   0.877 -0.9506 -0.1504 -1.7013
 3925TIP3   OH233265   5.324   2.371  16.072 -0.2819  0.2986  0.1795
 3925TIP3    H133266   5.418   2.355  16.074 -0.3851 -0.2737  0.7046
 3925TIP3    H233267   5.295   2.333  15.989  0.0617  1.1483 -0.3386
 3926TIP3   OH233268   3.772   4.498   5.887 -0.3561 -0.4541 -0.2106
 3926TIP3    H133269   3.835   4.550   5.937 -1.3151  0.2227  0.2961
 3926TIP3    H233270   3.787   4.408   5.915 -1.4424  0.0086  1.9199
 3927TIP3   OH233271   1.449   5.879   3.157  0.5139  0.0627  0.5846
 3927TIP3    H133272   1.474   5.885   3.065  1.0370  1.3880  0.8049
 3927TIP3    H233273   1.532   5.871   3.204  0.3262  0.6685  1.0263
 3928TIP3   OH233274   0.739   4.524   6.144  0.0448 -0.5539  0.2851
 3928TIP3    H133275   0.777   4.568   6.220  0.7507  0.9946 -0.9190
 3928TIP3    H233276   0.698   4.595   6.094  2.2096 -1.0628 -2.3069
 3929TIP3   OH233277   4.414   5.234  11.059  0.1803  0.2675 -0.0661
 3929TIP3    H133278   4.358   5.176  11.007 -0.4791  1.8781 -1.1959
 3929TIP3    H233279   4.503   5.204  11.041 -0.2125 -1.0777  0.2208
 3930TIP3   OH233280   3.709   0.494   3.450  0.0484 -0.2379  0.5154
 3930TIP3    H133281   3.648   0.421   3.441  0.1968 -0.3645  0.5331
 3930TIP3    H233282   3.654   0.572   3.443  0.1085 -0.3295 -1.3656
 3931TIP3   OH233283   5.642   0.230  14.789 -0.1289 -0.2543  0.0399
 3931TIP3    H133284   5.628   0.139  14.761 -1.2704 -0.0342 -0.1508
 3931TIP3    H233285   5.726   0.254  14.751  0.1376 -1.1982  0.0081
 3932TIP3   OH233286   3.196   6.002   3.048  0.3427  0.0684 -0.2345
 3932TIP3    H133287   3.174   6.089   3.014  0.7426  0.9988  1.7666
 3932TIP3    H233288   3.220   6.018   3.140  0.5324 -2.1441  0.1323
 3933TIP3   OH233289   2.660   6.652   2.814  0.0379  0.4279  0.4845
 3933TIP3    H133290   2.568   6.678   2.801  0.4457  0.7113 -2.1180
 3933TIP3    H233291   2.661   6.558   2.802  0.4748  0.7337 -2.0256
 3934TIP3   OH233292   3.995   5.872  16.166  0.3282 -0.2542  0.6076
 3934TIP3    H133293   3.984   5.791  16.116  0.3269 -0.3130  0.7037
 3934TIP3    H233294   3.944   5.857  16.246 -0.5857  0.2704  0.1381
 3935TIP3   OH233295   1.656   6.249   1.482 -0.4553 -0.4480  0.1015
 3935TIP3    H133296   1.686   6.320   1.426  0.2636 -0.7364  0.1222
 3935TIP3    H233297   1.675   6.170   1.432  0.8673 -0.7502  1.0575
 3936TIP3   OH233298   2.241   1.550  15.900  0.6025 -0.0709 -0.0440
 3936TIP3    H133299   2.160   1.510  15.931  1.0347 -0.0933  1.0875
 3936TIP3    H233300   2.228   1.644  15.914  0.7349 -0.0650  0.0377
 3937TIP3   OH233301   2.631   5.250   5.731 -0.2137  0.1554  0.1428
 3937TIP3    H133302   2.591   5.301   5.802 -0.0923 -0.5339  0.7180
 3937TIP3    H233303   2.573   5.175   5.720 -0.6087  0.6271 -0.9791
 3938TIP3   OH233304   2.224   2.749   5.746  0.5832  0.1768 -0.2773
 3938TIP3    H133305   2.150   2.762   5.805  0.4185 -1.1837 -0.1895
 3938TIP3    H233306   2.296   2.721   5.803  0.2581 -1.7480 -0.7773
 3939TIP3   OH233307   5.918   4.299   1.288 -0.2617 -0.2396 -0.6671
 3939TIP3    H133308   5.946   4.313   1.197 -0.4613  1.0091 -0.5479
 3939TIP3    H233309   5.823   4.297   1.284 -0.2431 -1.2632 -0.6288
 3940TIP3   OH233310   5.690   0.872   4.772 -0.0259  0.3817 -0.4280
 3940TIP3    H133311   5.724   0.961   4.783  0.7073  0.0572 -0.0514
 3940TIP3    H233312   5.646   0.874   4.687 -0.6429  1.2992 -0.1025
 3941TIP3   OH233313   4.677   5.333   6.240 -0.1256  0.1912 -0.1704
 3941TIP3    H133314   4.749   5.286   6.197  0.8903  0.4114  1.2462
 3941TIP3    H233315   4.701   5.334   6.332 -1.9794  0.2524  0.3217
 3942TIP3   OH233316   1.777   3.711   5.031  0.6092 -0.0937 -0.7736
 3942TIP3    H133317   1.690   3.712   5.071  1.3357 -0.3911  0.8373
 3942TIP3    H233318   1.783   3.793   4.983 -0.5900 -0.1109 -0.9596
 3943TIP3   OH233319   2.107   6.174  14.344  0.0798 -0.1808 -0.0942
 3943TIP3    H133320   2.049   6.198  14.417 -0.8412 -0.7548 -0.6122
 3943TIP3    H233321   2.092   6.080  14.333  0.5277 -0.1751 -0.7488
 3944TIP3   OH233322   3.146   1.011   3.048  0.4722  0.1143  0.3853
 3944TIP3    H133323   3.130   0.923   3.017 -3.0078  0.6792  0.3712
 3944TIP3    H233324   3.199   1.052   2.979 -0.1223 -1.1334 -0.8311
 3945TIP3   OH233325   1.924   1.179   5.533 -0.6354 -0.7486 -0.1539
 3945TIP3    H133326   1.846   1.133   5.501 -1.1244  0.2694 -0.4425
 3945TIP3    H233327   1.998   1.127   5.501 -1.0974  0.3974 -3.2270
 3946TIP3   OH233328   6.311   4.943   1.218 -0.3700  0.6851 -0.3412
 3946TIP3    H133329   6.272   4.963   1.303  0.4625  1.9818 -0.2699
 3946TIP3    H233330   6.389   4.892   1.238 -0.3031  0.7860 -0.3472
 3947TIP3   OH233331   0.726   1.097   3.348  0.0361  0.4264 -0.1791
 3947TIP3    H133332   0.756   1.188   3.346  1.5616 -0.0595  0.0258
 3947TIP3    H233333   0.806   1.045   3.356 -0.9775 -0.8254  2.5039
 3948TIP3   OH233334   1.913   5.089  17.250 -0.0117 -0.0154  0.0996
 3948TIP3    H133335   1.966   5.019  17.212 -1.9742 -1.2062 -0.5244
 3948TIP3    H233336   1.830   5.046  17.272 -1.1662  2.0809 -0.0924
 3949TIP3   OH233337   5.059   0.631  11.482 -0.6252 -0.8931  0.0478
 3949TIP3    H133338   5.108   0.569  11.426  3.8019  2.1764  0.2172
 3949TIP3    H233339   5.082   0.605  11.571 -0.7504 -0.5498  0.1781
 3950TIP3   OH233340   4.502   4.680   6.369 -0.1663  0.2919  0.7521
 3950TIP3    H133341   4.555   4.737   6.424 -0.6056  1.5466 -0.1085
 3950TIP3    H233342   4.510   4.593   6.410  1.7323  0.6545  1.1764
 3951TIP3   OH233343   3.318   1.438   5.055  0.2703 -0.7137 -0.2488
 3951TIP3    H133344   3.289   1.453   5.145 -0.0546  0.8725 -0.5995
 3951TIP3    H233345   3.317   1.525   5.015  1.1508 -1.2938 -1.5683
 3952TIP3   OH233346   0.673   0.087  14.860  0.6308  0.2277 -0.4035
 3952TIP3    H133347   0.712   0.138  14.932 -0.3195  0.4953 -0.0678
 3952TIP3    H233348   0.579   0.100  14.870  0.2212 -3.3143  0.9707
 3953TIP3   OH233349   3.392   3.321  12.547 -0.4557  0.1676  0.4420
 3953TIP3    H133350   3.476   3.362  12.527 -0.5900  1.1184  1.7491
 3953TIP3    H233351   3.413   3.249  12.606 -0.1806 -1.9327 -2.1356
 3954TIP3   OH233352   5.924   5.180   3.914 -0.2144  0.1613 -0.2493
 3954TIP3    H133353   5.887   5.264   3.942  3.0479  1.1544  1.4319
 3954TIP3    H233354   6.016   5.200   3.897 -0.2666 -2.2907 -3.6825
 3955TIP3   OH233355   6.311   2.111  12.208  0.0027  0.5434  0.2340
 3955TIP3    H133356   6.227   2.070  12.232 -0.1008  1.9305  2.3825
 3955TIP3    H233357   6.377   2.045  12.230 -0.5088 -0.5545 -1.4646
 3956TIP3   OH233358   1.004   6.283   2.665 -0.1200 -0.7262  0.0818
 3956TIP3    H133359   0.941   6.354   2.670  1.0529  0.1823  2.8570
 3956TIP3    H233360   0.964   6.211   2.714  1.6233  0.4196  3.3347
 3957TIP3   OH233361   2.515   2.785   2.797  0.1335 -0.3301 -0.6997
 3957TIP3    H133362   2.516   2.878   2.774 -1.1743 -0.1414 -0.0402
 3957TIP3    H233363   2.454   2.779   2.870  1.3664 -1.4878  0.2747
 3958TIP3   OH233364   5.632   4.230  12.817 -0.1460  0.1102 -0.6695
 3958TIP3    H133365   5.620   4.294  12.887  0.4262 -0.9539  0.4261
 3958TIP3    H233366   5.544   4.216  12.782 -0.1160  2.4256 -1.8094
 3959TIP3   OH233367   0.383   0.594   5.737  0.1877 -0.4181  0.3724
 3959TIP3    H133368   0.410   0.639   5.817 -0.7881 -1.8167  1.5224
 3959TIP3    H233369   0.437   0.632   5.668 -0.5734  2.4540  1.3104
 3960TIP3   OH233370   2.528   0.728  16.155 -0.2734  0.1985  0.1873
 3960TIP3    H133371   2.515   0.757  16.245 -2.5183  1.3291 -0.4479
 3960TIP3    H233372   2.549   0.808  16.107 -1.1988 -0.0440 -0.6468
 3961TIP3   OH233373   3.937   1.804  14.582 -0.0053 -0.3534  0.1839
 3961TIP3    H133374   3.885   1.769  14.654 -1.2851  1.5968  0.2269
 3961TIP3    H233375   3.900   1.763  14.504 -1.1090  0.4090  0.2914
 3962TIP3   OH233376   5.624   3.245  11.896  0.0427  0.0140 -0.0858
 3962TIP3    H133377   5.631   3.332  11.855  0.4542 -0.7158 -1.6254
 3962TIP3    H233378   5.698   3.196  11.860 -0.6287 -1.2098  0.1858
 3963TIP3   OH233379   0.475   6.109   3.378 -0.0114 -0.3387 -0.0247
 3963TIP3    H133380   0.550   6.169   3.382  1.3853 -1.9921 -0.4846
 3963TIP3    H233381   0.417   6.148   3.313  1.1385  0.2501 -0.7285
 3964TIP3   OH233382   2.115   5.412  13.578 -0.2797 -0.5791  0.2640
 3964TIP3    H133383   2.079   5.485  13.628  0.8371  1.7805 -2.2545
 3964TIP3    H233384   2.039   5.373  13.535 -0.6903  0.0185  0.4348
 3965TIP3   OH233385   0.232   4.140  15.434  0.0384 -0.5413 -0.4888
 3965TIP3    H133386   0.267   4.200  15.500 -1.3298 -0.1731 -0.0736
 3965TIP3    H233387   0.257   4.179  15.351 -1.2987  0.9083 -0.2271
 3966TIP3   OH233388   5.710   3.882  17.167  0.0193  0.0418  0.3797
 3966TIP3    H133389   5.725   3.870  17.073  0.3894 -1.2562  0.5925
 3966TIP3    H233390   5.741   3.971  17.185 -1.2568  0.7741 -0.9632
 3967TIP3   OH233391   1.088   5.701  14.585  0.5943 -0.6126  0.1310
 3967TIP3    H133392   1.051   5.728  14.501  1.6367 -0.6830 -0.3501
 3967TIP3    H233393   1.025   5.732  14.650 -1.3146 -2.4119 -0.7817
 3968TIP3   OH233394   4.735   0.188   4.406  0.3289 -0.2504 -0.1352
 3968TIP3    H133395   4.664   0.130   4.432  0.1103 -0.2636 -0.7474
 3968TIP3    H233396   4.812   0.154   4.452  0.3407 -1.4236 -0.9774
 3969TIP3   OH233397   1.726   4.041  14.149  0.6302  0.3665 -0.0860
 3969TIP3    H133398   1.734   3.976  14.079 -0.1982  1.9584 -1.7051
 3969TIP3    H233399   1.648   4.013  14.198 -0.2694  0.6242 -1.3319
 3970TIP3   OH233400   6.787   5.633  13.329  0.1166 -0.0880  0.4241
 3970TIP3    H133401   6.794   5.557  13.386  1.8877  2.1553  3.3378
 3970TIP3    H233402   6.853   5.619  13.261 -0.2158 -1.5622  0.3919
 3971TIP3   OH233403   2.646   2.596   1.908 -0.5587  0.1305 -0.6779
 3971TIP3    H133404   2.679   2.566   1.824 -1.3535  0.3025 -1.0549
 3971TIP3    H233405   2.585   2.528   1.936 -2.1132  1.2040 -1.3828
 3972TIP3   OH233406   1.541   5.621   4.238  0.1803  0.1465  0.1137
 3972TIP3    H133407   1.505   5.533   4.254  1.5883 -0.3701  0.5128
 3972TIP3    H233408   1.465   5.679   4.240 -0.6658 -0.9660  0.6500
 3973TIP3   OH233409   1.063   5.904  15.704 -0.1869 -0.2214  0.3381
 3973TIP3    H133410   0.975   5.919  15.739 -0.4819 -0.7928 -0.1456
 3973TIP3    H233411   1.051   5.900  15.610  0.2889 -0.8078  0.3010
 3974TIP3   OH233412   4.698   6.044  13.033 -0.2742 -0.0336  0.3908
 3974TIP3    H133413   4.788   6.014  13.023 -0.5916 -0.8761  0.0726
 3974TIP3    H233414   4.656   5.979  13.090 -1.1972 -0.6828 -1.0072
 3975TIP3   OH233415   0.964   6.720   1.354  0.0249 -0.5328  0.4264
 3975TIP3    H133416   0.878   6.762   1.355  0.0225 -0.5387  1.2540
 3975TIP3    H233417   0.968   6.676   1.270 -0.4516  0.1454  0.0457
 3976TIP3   OH233418   2.570   6.729  14.160 -0.0632  0.1606 -0.2222
 3976TIP3    H133419   2.531   6.648  14.192  2.8063 -0.7594  1.1210
 3976TIP3    H233420   2.547   6.733  14.067 -1.7010 -1.2731  0.1133
 3977TIP3   OH233421   3.992   2.522  13.994 -0.6562  0.0148  0.3672
 3977TIP3    H133422   4.038   2.450  14.036  2.4696  1.5706 -0.2314
 3977TIP3    H233423   3.964   2.578  14.066  0.5483  0.2916  0.6290
 3978TIP3   OH233424   6.761   1.139  15.415 -0.0409 -0.3843 -0.1198
 3978TIP3    H133425   6.819   1.166  15.345 -0.1656  1.8573  0.5831
 3978TIP3    H233426   6.818   1.102  15.482  0.6551  1.9856  0.6521
 3979TIP3   OH233427   0.291   0.986  13.543  0.6013 -0.5875  0.0879
 3979TIP3    H133428   0.299   1.045  13.618 -0.1627  0.5124 -0.6739
 3979TIP3    H233429   0.372   1.000  13.493  0.1350  0.3030 -0.4285
 3980TIP3   OH233430   2.910   1.555   2.500  0.4189 -0.2394  0.5136
 3980TIP3    H133431   2.872   1.642   2.514  2.1234  0.3227  1.8680
 3980TIP3    H233432   2.940   1.528   2.587  0.8234 -1.7436 -0.0783
 3981TIP3   OH233433   4.830   4.188   0.946  0.0564 -0.4532 -0.2149
 3981TIP3    H133434   4.893   4.136   0.996 -0.0662 -1.7504 -1.3750
 3981TIP3    H233435   4.885   4.242   0.888  0.1421 -3.5443 -3.1818
 3982TIP3   OH233436   1.669   1.495  12.715 -0.5717 -0.2827 -0.1950
 3982TIP3    H133437   1.617   1.436  12.660  0.5989 -1.9654  0.4487
 3982TIP3    H233438   1.729   1.437  12.762  2.2001  1.6054 -1.2333
 3983TIP3   OH233439   6.606   0.456   6.406 -0.3862 -0.0296  0.1419
 3983TIP3    H133440   6.547   0.426   6.337 -0.5231 -0.6255  0.5195
 3983TIP3    H233441   6.647   0.535   6.370 -1.3209  0.3183 -0.1608
 3984TIP3   OH233442   1.222   6.028  12.905  0.0636  0.4534  0.3647
 3984TIP3    H133443   1.169   6.095  12.948 -1.6116  0.0101 -0.9485
 3984TIP3    H233444   1.312   6.052  12.925 -0.4486  3.6037 -0.7687
 3985TIP3   OH233445   5.667   4.647   4.649  0.4512  0.0823 -0.7699
 3985TIP3    H133446   5.662   4.697   4.730  1.2020  0.1356 -0.7504
 3985TIP3    H233447   5.625   4.702   4.584 -2.1115 -0.8962  0.0159
 3986TIP3   OH233448   4.720   6.637   0.086  0.2720  0.2249  0.1777
 3986TIP3    H133449   4.799   6.655   0.135 -0.3273  2.3582  0.4307
 3986TIP3    H233450   4.678   6.723   0.075 -3.2987 -1.1492  2.2516
 3987TIP3   OH233451   4.411   3.258   0.874  0.6676 -0.1210 -0.6464
 3987TIP3    H133452   4.503   3.283   0.883  0.5230  0.7744 -1.5849
 3987TIP3    H233453   4.385   3.231   0.962  1.2380  1.6516  0.0987
 3988TIP3   OH233454   4.630   6.160  10.827 -0.3936  0.2941  0.7095
 3988TIP3    H133455   4.550   6.158  10.879 -0.0925 -0.5693  1.1539
 3988TIP3    H233456   4.623   6.239  10.773 -2.6690 -1.0245 -1.0091
 3989TIP3   OH233457   1.716   4.510  14.021 -0.2551 -0.3271  0.2306
 3989TIP3    H133458   1.688   4.601  14.010 -3.0629 -1.0342  1.0259
 3989TIP3    H233459   1.650   4.472  14.079  0.5314 -3.0191 -0.5632
 3990TIP3   OH233460   5.105   3.165  11.744 -0.1207  0.0978 -0.6335
 3990TIP3    H133461   5.039   3.102  11.772 -0.7010  1.6106  1.5130
 3990TIP3    H233462   5.187   3.131  11.781 -0.4886  0.7571  0.8281
 3991TIP3   OH233463   0.290   4.805  12.761  0.4954 -0.1632  0.3271
 3991TIP3    H133464   0.251   4.882  12.719 -0.3854 -0.6169  0.3033
 3991TIP3    H233465   0.223   4.775  12.822  0.8068 -0.9633  0.2769
 3992TIP3   OH233466   5.793   6.280  14.881  0.1604  0.0615  0.1814
 3992TIP3    H133467   5.807   6.186  14.870 -1.3892 -0.4175  2.0554
 3992TIP3    H233468   5.698   6.290  14.873  0.5893  1.9533 -3.3365
 3993TIP3   OH233469   1.147   0.204  13.130  0.3456  0.0644  0.4277
 3993TIP3    H133470   1.233   0.239  13.153  0.2892  0.3243  0.2519
 3993TIP3    H233471   1.086   0.273  13.157  0.2187  0.0183  0.2602
 3994TIP3   OH233472   3.275   1.371   0.460  0.1324 -0.4056 -0.3244
 3994TIP3    H133473   3.225   1.410   0.387  1.4067  0.6533 -0.6596
 3994TIP3    H233474   3.363   1.359   0.424  0.9767  0.8326  1.2635
 3995TIP3   OH233475   5.392   6.611   0.993 -0.0115  0.1631  0.4816
 3995TIP3    H133476   5.392   6.516   1.002  0.5968 -0.0657 -1.6947
 3995TIP3    H233477   5.483   6.633   0.974 -0.7410  0.8017 -2.4272
 3996TIP3   OH233478   6.106   2.509   3.308 -0.4310  0.0096  0.2250
 3996TIP3    H133479   6.077   2.422   3.334  0.2262  0.3390  2.1404
 3996TIP3    H233480   6.142   2.497   3.221  0.2342 -1.7609  0.7170
 3997TIP3   OH233481   0.244   1.321   4.768 -0.0561 -0.0071 -0.1364
 3997TIP3    H133482   0.212   1.240   4.726  0.3451  0.4196 -1.2832
 3997TIP3    H233483   0.226   1.308   4.861 -2.1165 -0.4555 -0.5651
 3998TIP3   OH233484   0.346   4.172   5.160  0.4908  0.8332 -0.5890
 3998TIP3    H133485   0.323   4.094   5.108  0.3970 -0.0150  0.6959
 3998TIP3    H233486   0.265   4.223   5.163  0.5551  0.9874 -1.4505
 3999TIP3   OH233487   6.698   4.870   1.130 -0.3270 -1.0637  0.2418
 3999TIP3    H133488   6.702   4.809   1.204  0.5180  1.1527  2.0839
 3999TIP3    H233489   6.617   4.919   1.144  0.0815 -0.2996 -0.0429
 4000TIP3   OH233490   4.589   6.318  15.426  0.5394 -0.4291 -0.5581
 4000TIP3    H133491   4.600   6.235  15.474  1.3400 -0.0974 -0.1522
 4000TIP3    H233492   4.501   6.347  15.449  0.2473 -1.1715 -0.7064
 4001TIP3   OH233493   0.494   5.308  14.465 -0.0378 -0.0134  0.2712
 4001TIP3    H133494   0.520   5.394  14.431 -2.4280  0.9861  0.8466
 4001TIP3    H233495   0.430   5.276  14.401 -2.5694  0.6994  2.3512
 4002TIP3   OH233496   1.871   1.764   5.020  0.2255 -0.1830 -0.1312
 4002TIP3    H133497   1.786   1.734   4.987  0.4948 -1.2888  0.1587
 4002TIP3    H233498   1.866   1.749   5.114  0.9773 -0.8397 -0.1948
 4003TIP3   OH233499   4.154   2.198  12.634  0.4446 -0.4006  0.2034
 4003TIP3    H133500   4.093   2.223  12.564  0.8738 -1.4183 -0.5512
 4003TIP3    H233501   4.098   2.162  12.703 -0.0403  1.2366  0.6762
 4004TIP3   OH233502   3.714   1.630  12.463  0.1132 -0.1025  0.2586
 4004TIP3    H133503   3.712   1.721  12.434 -1.0741  0.3297  1.6234
 4004TIP3    H233504   3.683   1.580  12.387 -0.5897  0.7657 -0.0332
 4005TIP3   OH233505   5.820   3.653  16.598 -0.2775 -0.9565 -0.3321
 4005TIP3    H133506   5.879   3.584  16.629 -2.1869 -1.5207  2.1812
 4005TIP3    H233507   5.732   3.618  16.613 -1.2724  0.5657 -2.4331
 4006TIP3   OH233508   6.156   0.830  15.009 -0.3632  0.2885 -0.0121
 4006TIP3    H133509   6.222   0.767  15.038  1.7452  1.4888 -2.0698
 4006TIP3    H233510   6.123   0.869  15.090  2.8121  1.0193  0.9953
 4007TIP3   OH233511   3.957   0.349  15.055 -0.1984  0.0293 -0.1742
 4007TIP3    H133512   3.903   0.428  15.049 -2.4560 -1.3532  0.9825
 4007TIP3    H233513   3.967   0.321  14.964 -0.6453  0.8356 -0.4809
 4008TIP3   OH233514   0.094   6.231  16.987 -0.3965  0.0869 -0.4358
 4008TIP3    H133515   0.149   6.169  17.033  1.6311  2.9197  1.1132
 4008TIP3    H233516   0.127   6.231  16.897  0.4005 -0.1410 -0.1390
 4009TIP3   OH233517   6.796   3.823  13.590  0.4254  0.2876  0.0984
 4009TIP3    H133518   6.891   3.828  13.584  0.3674  1.9089  0.3962
 4009TIP3    H233519   6.765   3.910  13.563 -0.9285  0.0727  0.8794
 4010TIP3   OH233520   4.930   5.222   1.849 -0.1673 -0.2192  0.6008
 4010TIP3    H133521   4.925   5.274   1.929 -1.4254  1.4392 -0.5239
 4010TIP3    H233522   4.849   5.242   1.802  0.9525 -0.4562 -1.5064
 4011TIP3   OH233523   5.780   5.059   6.532  0.0121  0.1314 -0.3665
 4011TIP3    H133524   5.838   5.125   6.571  1.2628 -2.2870  2.0280
 4011TIP3    H233525   5.698   5.105   6.516  2.1045  3.2768 -2.5050
 4012TIP3   OH233526   2.622   5.674   1.774  0.1625 -0.1337 -0.4522
 4012TIP3    H133527   2.583   5.588   1.760 -1.3655  0.2672  1.1240
 4012TIP3    H233528   2.554   5.736   1.750  0.4031  0.6012  0.7014
 4013TIP3   OH233529   1.190   0.779  14.867  0.8300 -0.5427  0.1365
 4013TIP3    H133530   1.173   0.864  14.826 -1.1595 -0.5939  0.8136
 4013TIP3    H233531   1.103   0.739  14.877  1.7286 -2.6208 -0.0930
 4014TIP3   OH233532   1.355   5.428  14.243  0.3937 -0.0404  0.4792
 4014TIP3    H133533   1.423   5.362  14.228 -0.2608 -0.8715  1.1184
 4014TIP3    H233534   1.345   5.431  14.338 -0.1663  0.3807  0.4099
 4015TIP3   OH233535   2.643   5.131  11.278 -0.2775  0.1965  0.4194
 4015TIP3    H133536   2.573   5.087  11.229  1.9064 -0.6438 -2.0434
 4015TIP3    H233537   2.673   5.066  11.341  0.2204 -0.4623 -0.4894
 4016TIP3   OH233538   1.705   1.582  15.134  0.0921 -0.0948  0.3598
 4016TIP3    H133539   1.776   1.632  15.093 -0.3492 -0.8138 -1.3501
 4016TIP3    H233540   1.648   1.558  15.061  0.1776 -2.9053  1.1601
 4017TIP3   OH233541   4.732   6.257   3.429  0.5757  0.7641 -0.5402
 4017TIP3    H133542   4.694   6.179   3.469  0.5768  0.8419 -0.3855
 4017TIP3    H233543   4.695   6.260   3.341  1.4748 -0.0582 -0.9533
 4018TIP3   OH233544   6.809   5.402  11.458  0.4966 -0.1758  0.2484
 4018TIP3    H133545   6.750   5.448  11.517  1.7369  1.3506  0.3154
 4018TIP3    H233546   6.846   5.331  11.510 -1.0591 -1.0018  0.2755
 4019TIP3   OH233547   5.373   3.345  12.999 -0.3705 -0.0117 -0.5738
 4019TIP3    H133548   5.344   3.262  13.037  0.1234  0.2620  0.4140
 4019TIP3    H233549   5.331   3.412  13.052  1.6838  0.3888  0.5871
 4020TIP3   OH233550   4.594   6.628  14.276 -0.0286 -0.8729  0.3433
 4020TIP3    H133551   4.524   6.564  14.291 -1.6011  1.1893  2.3306
 4020TIP3    H233552   4.656   6.613  14.348  1.3776 -2.3731 -1.1381
 4021TIP3   OH233553   4.399   2.170  15.296  0.4311 -0.3895  0.1230
 4021TIP3    H133554   4.396   2.261  15.268 -0.9507 -0.3476  0.3847
 4021TIP3    H233555   4.370   2.172  15.387 -1.3664 -1.2920 -0.4081
 4022TIP3   OH233556   4.264   2.672  14.447  0.3954 -0.2028 -0.2165
 4022TIP3    H133557   4.205   2.740  14.415  0.5932 -0.0660 -0.2924
 4022TIP3    H233558   4.210   2.619  14.506  0.2887  0.1325 -0.0113
 4023TIP3   OH233559   4.871   2.892  15.102 -0.0752 -0.5855  0.3591
 4023TIP3    H133560   4.900   2.904  15.193 -0.6771 -2.0364  0.7440
 4023TIP3    H233561   4.952   2.876  15.053  0.2453  0.1439  0.6444
 4024TIP3   OH233562   1.545   5.159   4.690  0.5580 -0.5427  0.6604
 4024TIP3    H133563   1.474   5.141   4.751  0.8784 -0.9408  0.9256
 4024TIP3    H233564   1.588   5.237   4.725 -1.0679  1.0169 -0.7017
 4025TIP3   OH233565   0.387   3.423  17.239  0.2126  0.5474 -0.1000
 4025TIP3    H133566   0.456   3.437  17.175  1.7828  1.9321  1.8172
 4025TIP3    H233567   0.383   3.328  17.251  1.6666  0.4491 -0.3610
 4026TIP3   OH233568   1.687   2.030  16.054  0.0417 -0.2710  0.2936
 4026TIP3    H133569   1.619   1.991  16.108 -1.0309 -0.5344 -1.1912
 4026TIP3    H233570   1.767   2.023  16.105 -0.6147 -2.1135  1.0857
 4027TIP3   OH233571   1.005   1.139  11.698  0.2919  0.1237 -0.2556
 4027TIP3    H133572   1.028   1.217  11.647 -1.3694  0.6989 -0.1506
 4027TIP3    H233573   0.961   1.173  11.775  1.1754 -0.8463  0.6888
 4028TIP3   OH233574   4.498   5.798  11.016 -0.6979 -0.6630 -0.1602
 4028TIP3    H133575   4.590   5.810  11.038 -0.5821 -0.1423 -0.9341
 4028TIP3    H233576   4.496   5.792  10.921 -1.4339 -0.9446 -0.1295
 4029TIP3   OH233577   6.283   6.423   3.671  0.7547  1.0757  0.1753
 4029TIP3    H133578   6.339   6.488   3.629 -0.8328  1.4079 -1.4853
 4029TIP3    H233579   6.287   6.347   3.613 -1.8254  1.6983 -0.8648
 4030TIP3   OH233580   1.004   0.697  16.526  0.4011 -0.2799 -0.4884
 4030TIP3    H133581   0.992   0.602  16.525 -1.1115 -0.1167  0.6963
 4030TIP3    H233582   1.021   0.719  16.617  0.3959  0.6255 -0.6943
 4031TIP3   OH233583   1.450   2.540   1.385 -0.0908 -0.6164  0.1300
 4031TIP3    H133584   1.467   2.628   1.350  2.5577 -0.8582  0.6697
 4031TIP3    H233585   1.451   2.483   1.308 -1.3375 -0.2380 -0.1675
 4032TIP3   OH233586   0.497   6.266   4.199 -0.0093  0.1385  0.3058
 4032TIP3    H133587   0.551   6.326   4.249  0.6163 -0.4901  0.3978
 4032TIP3    H233588   0.559   6.221   4.141 -0.8889  1.8636 -2.0766
 4033TIP3   OH233589   3.030   1.129  16.429 -0.8022  0.0625  0.3679
 4033TIP3    H133590   3.018   1.187  16.505 -0.4128  0.7570 -0.0911
 4033TIP3    H233591   2.944   1.125  16.388 -0.6697  0.8993 -0.0038
 4034TIP3   OH233592   3.909   0.243   2.580  0.4708 -0.1321 -0.1446
 4034TIP3    H133593   3.840   0.238   2.514  3.0112 -0.8721 -2.8381
 4034TIP3    H233594   3.927   0.336   2.590  1.0621 -0.0692 -1.6215
 4035TIP3   OH233595   2.267   3.049   6.096  0.3450  0.2387  0.3981
 4035TIP3    H133596   2.335   2.981   6.094 -0.2661 -0.3606 -0.0510
 4035TIP3    H233597   2.280   3.093   6.180  0.2317 -0.9603  1.0530
 4036TIP3   OH233598   0.203   2.287  15.538 -0.0631  0.7834 -0.0434
 4036TIP3    H133599   0.166   2.339  15.467 -0.7724 -0.9620 -1.0061
 4036TIP3    H233600   0.130   2.232  15.568  0.5185  0.7271  1.3018
 4037TIP3   OH233601   1.137   0.630   4.526  0.1857  0.0910 -0.1390
 4037TIP3    H133602   1.167   0.575   4.454  0.0526 -0.0511 -0.0855
 4037TIP3    H233603   1.114   0.713   4.486 -2.5506 -0.8938 -0.6538
 4038TIP3   OH233604   4.674   3.013   3.666  0.3319  0.3556  0.2690
 4038TIP3    H133605   4.757   3.061   3.675  1.4771 -1.3406 -0.8409
 4038TIP3    H233606   4.642   3.036   3.579  0.9386 -0.8857 -0.3125
 4039TIP3   OH233607   4.221   1.289  11.419  0.2305 -0.4541 -0.2176
 4039TIP3    H133608   4.232   1.376  11.382 -0.2650  0.0915  0.8984
 4039TIP3    H233609   4.155   1.300  11.488  0.2462 -1.6796  0.0066
 4040TIP3   OH233610   0.547   0.263  17.246  0.0091 -0.0143 -0.1226
 4040TIP3    H133611   0.506   0.176  17.247  1.3357 -0.6514  1.8246
 4040TIP3    H233612   0.640   0.245  17.262  0.6304  1.6250 -1.7159
 4041TIP3   OH233613   3.919   5.038  13.823  0.7441  0.5750 -0.5028
 4041TIP3    H133614   3.849   5.055  13.759 -0.0802  0.5661  0.3869
 4041TIP3    H233615   3.875   5.038  13.907  1.6104 -0.6865 -0.0329
 4042TIP3   OH233616   5.664   3.272   5.592 -0.0170  0.0635  0.0130
 4042TIP3    H133617   5.681   3.230   5.676  1.0789 -1.4762 -0.9660
 4042TIP3    H233618   5.667   3.201   5.529  0.9733  1.4737 -1.5581
 4043TIP3   OH233619   3.236   4.515  12.410 -0.0062 -0.3743 -0.4806
 4043TIP3    H133620   3.267   4.461  12.338 -2.3154 -1.3545 -0.7831
 4043TIP3    H233621   3.309   4.517  12.472  1.3406 -1.0014 -1.9956
 4044TIP3   OH233622   3.016   5.950   1.675  0.2078  0.0082 -0.2222
 4044TIP3    H133623   2.952   5.955   1.746  2.3012  0.8429  1.6781
 4044TIP3    H233624   3.037   5.857   1.667  1.8347  0.1406  2.0444
 4045TIP3   OH233625   2.311   3.876  13.128  0.4007 -0.2521  0.6332
 4045TIP3    H133626   2.401   3.862  13.155  0.5149 -1.1223 -0.1679
 4045TIP3    H233627   2.317   3.904  13.036 -0.1465 -0.5144  0.5117
 4046TIP3   OH233628   5.418   3.271   3.791 -0.0689 -0.4166  1.1596
 4046TIP3    H133629   5.401   3.250   3.883 -0.4525 -0.0190  1.1801
 4046TIP3    H233630   5.335   3.257   3.747  0.0990 -0.5451  0.8845
 4047TIP3   OH233631   2.782   5.151   5.431  0.4744  0.1667 -0.1817
 4047TIP3    H133632   2.700   5.137   5.478  1.1725 -0.1976  0.9666
 4047TIP3    H233633   2.784   5.082   5.365  0.4496 -0.6197  0.6266
 4048TIP3   OH233634   3.179   3.645   4.233  0.1935  0.4938 -0.5001
 4048TIP3    H133635   3.141   3.628   4.319  2.2369 -0.9576  0.1732
 4048TIP3    H233636   3.160   3.565   4.183  1.3624  0.1921 -0.4902
 4049TIP3   OH233637   0.544   4.343  15.935 -0.4361 -0.0535 -0.0097
 4049TIP3    H133638   0.586   4.428  15.937 -1.6615  0.5544  0.5870
 4049TIP3    H233639   0.595   4.288  15.994  0.4249  0.2296 -0.4874
 4050TIP3   OH233640   4.044   5.641   0.584  0.2023 -0.3181  1.4415
 4050TIP3    H133641   4.014   5.553   0.564  0.8458 -0.4654  1.1059
 4050TIP3    H233642   3.975   5.679   0.638 -1.7162  0.1736 -1.2584
 4051TIP3   OH233643   1.888   2.993  11.776  0.2677  0.2672 -0.0905
 4051TIP3    H133644   1.860   2.920  11.721 -0.1119 -0.0270  0.4908
 4051TIP3    H233645   1.819   3.059  11.764  0.6594  0.5731 -0.6887
 4052TIP3   OH233646   1.969   3.808  16.889 -0.1233 -0.0567 -0.2152
 4052TIP3    H133647   1.880   3.818  16.924 -0.2236  1.4433 -0.8493
 4052TIP3    H233648   1.956   3.786  16.797  0.1687  0.2577 -0.3311
 4053TIP3   OH233649   4.310   3.270   6.361 -0.5961  0.0433 -0.2205
 4053TIP3    H133650   4.314   3.188   6.411  0.8166  1.3104  1.8572
 4053TIP3    H233651   4.398   3.279   6.325 -0.5546  0.9585  0.1074
 4054TIP3   OH233652   4.932   3.753   6.184 -0.1643 -0.7244  0.5828
 4054TIP3    H133653   4.861   3.772   6.246  0.4458  2.9554  0.2584
 4054TIP3    H233654   5.005   3.723   6.239 -0.7757 -0.9633  1.2662
 4055TIP3   OH233655   5.692   4.950  13.326 -0.0664 -0.4895  0.3519
 4055TIP3    H133656   5.725   4.915  13.409  2.4472  0.8107 -0.0455
 4055TIP3    H233657   5.691   4.875  13.267  0.6495 -0.9045  0.8539
 4056TIP3   OH233658   1.153   5.613  17.014  0.4447  0.2722 -0.0160
 4056TIP3    H133659   1.072   5.561  17.012 -0.5559  1.7445  1.1173
 4056TIP3    H233660   1.145   5.672  16.938  1.1451 -0.5806 -0.7575
 4057TIP3   OH233661   4.994   6.077   4.014  0.0757 -0.2986  0.5070
 4057TIP3    H133662   5.014   5.990   4.050  1.4773 -1.1641 -2.2102
 4057TIP3    H233663   5.079   6.112   3.986 -0.9488  0.1338 -2.2679
 4058TIP3   OH233664   1.468   6.813  15.852  0.0750 -0.0662  0.6316
 4058TIP3    H133665   1.563   6.810  15.867  0.2494  0.3258 -0.3275
 4058TIP3    H233666   1.438   6.890  15.901  0.3141  0.0106  0.6581
 4059TIP3   OH233667   0.601   3.324   5.508 -0.2386  0.2034  0.6805
 4059TIP3    H133668   0.596   3.365   5.422  1.6601  0.1147  0.5044
 4059TIP3    H233669   0.574   3.393   5.569 -0.6801  0.5571  0.0874
 4060TIP3   OH233670   2.531   4.866   1.328 -0.1348 -0.8572  0.5642
 4060TIP3    H133671   2.538   4.782   1.284 -1.3927 -0.3565 -0.6214
 4060TIP3    H233672   2.506   4.844   1.418 -1.2356 -1.7268  0.0601
 4061TIP3   OH233673   2.065   3.452  14.592 -0.0346  0.2442  0.1645
 4061TIP3    H133674   2.043   3.498  14.511  1.7130  1.3796  0.3194
 4061TIP3    H233675   2.116   3.376  14.562 -0.8553 -0.2929  0.0957
 4062TIP3   OH233676   0.683   3.529  13.159  0.3738 -0.0765  0.5535
 4062TIP3    H133677   0.734   3.504  13.082 -0.2186  0.8893 -0.1640
 4062TIP3    H233678   0.598   3.555  13.124 -0.3897 -1.0309  1.6853
 4063TIP3   OH233679   2.326   0.603  15.073  0.7032  0.6948  0.2518
 4063TIP3    H133680   2.274   0.664  15.021  0.5514  0.0867 -0.3076
 4063TIP3    H233681   2.320   0.637  15.163  1.1195  1.8448 -0.1476
 4064TIP3   OH233682   1.918   2.681   3.261  0.2823 -0.7180  0.0531
 4064TIP3    H133683   1.839   2.721   3.296  0.2620 -0.2899 -0.4746
 4064TIP3    H233684   1.888   2.628   3.187  0.3172 -1.6601  0.6985
 4065TIP3   OH233685   1.523   4.905   3.362 -0.0990  0.2453 -0.3224
 4065TIP3    H133686   1.593   4.847   3.334 -0.0218  0.8515 -1.4128
 4065TIP3    H233687   1.559   4.993   3.350 -1.3068  0.5824 -1.6591
 4066TIP3   OH233688   6.351   2.351   3.435 -0.0733 -0.1942  0.0113
 4066TIP3    H133689   6.391   2.381   3.353 -0.2182  0.4880  0.1935
 4066TIP3    H233690   6.263   2.389   3.434 -0.3301 -0.7685  0.1493
 4067TIP3   OH233691   2.694   2.062  12.228 -1.2386 -0.3903  0.1194
 4067TIP3    H133692   2.725   2.044  12.140  0.3767  0.6337  0.4594
 4067TIP3    H233693   2.600   2.081  12.217 -1.4210 -1.8880 -1.1256
 4068TIP3   OH233694   3.524   3.415  12.142  0.2341  0.1147 -0.5147
 4068TIP3    H133695   3.501   3.336  12.192  0.1789 -0.4816 -1.4602
 4068TIP3    H233696   3.609   3.394  12.103  0.7493  0.9613  0.1327
 4069TIP3   OH233697   1.064   0.134   6.102 -0.0045  0.4863 -0.4816
 4069TIP3    H133698   1.105   0.063   6.152  0.5619  1.1074 -0.0438
 4069TIP3    H233699   1.013   0.090   6.034 -3.1014 -0.5130  2.3471
 4070TIP3   OH233700   2.942   3.195  10.853 -0.5131 -0.4595  0.2000
 4070TIP3    H133701   2.981   3.249  10.785 -0.6986  0.0404  0.4886
 4070TIP3    H233702   2.848   3.194  10.833 -0.5183 -0.6232  0.2310
 4071TIP3   OH233703   5.746   4.626   1.366  0.0991 -0.3161  0.1166
 4071TIP3    H133704   5.747   4.719   1.342 -0.8513  0.1627  1.8675
 4071TIP3    H233705   5.821   4.616   1.424  1.5167 -1.1480 -1.8207
 4072TIP3   OH233706   6.344   6.386   3.979  0.1792 -0.2985  0.4032
 4072TIP3    H133707   6.312   6.446   3.912 -1.2636 -0.3760  1.0180
 4072TIP3    H233708   6.319   6.426   4.062 -0.4745 -1.5557  0.8286
 4073TIP3   OH233709   0.559   1.309   6.172  0.5626 -0.0801  0.5654
 4073TIP3    H133710   0.613   1.297   6.250  0.5824  0.9207  0.7086
 4073TIP3    H233711   0.525   1.398   6.179 -1.6482 -0.8974  0.8118
 4074TIP3   OH233712   5.077   5.419  15.330  0.1085 -0.1767 -0.4608
 4074TIP3    H133713   5.105   5.341  15.281  2.1194 -0.0040  0.4033
 4074TIP3    H233714   5.126   5.415  15.411  0.5481  2.2425 -0.5907
 4075TIP3   OH233715   4.978   4.871  12.261 -1.3188 -0.0987  0.2165
 4075TIP3    H133716   5.054   4.879  12.203 -0.3281  0.9090  1.6475
 4075TIP3    H233717   5.008   4.901  12.346 -3.3032  0.2321  0.8343
 4076TIP3   OH233718   5.898   6.483   1.826 -0.0659  0.1845 -0.5270
 4076TIP3    H133719   5.879   6.571   1.794  0.5090  0.4198 -0.2326
 4076TIP3    H233720   5.918   6.433   1.747 -0.7914  0.2143 -0.7306
 4077TIP3   OH233721   3.809   6.270  17.103  0.0791 -0.3088  0.1635
 4077TIP3    H133722   3.810   6.192  17.048  0.0865 -0.4957  0.4270
 4077TIP3    H233723   3.834   6.341  17.044 -0.5595 -0.4095 -0.2330
 4078TIP3   OH233724   1.762   4.685   5.655 -0.0184 -0.1747 -0.3586
 4078TIP3    H133725   1.762   4.662   5.748 -1.3538  1.2006 -0.0022
 4078TIP3    H233726   1.769   4.780   5.654  0.2235 -0.2038 -1.6734
 4079TIP3   OH233727   2.605   1.060  11.539  0.4170 -0.4286  0.2057
 4079TIP3    H133728   2.521   1.027  11.569  0.0088 -0.2565 -0.7461
 4079TIP3    H233729   2.605   1.152  11.565  0.3462 -0.4438  0.2599
 4080TIP3   OH233730   2.591   6.544   3.914 -0.5510  0.3689 -0.3891
 4080TIP3    H133731   2.514   6.576   3.867 -0.6001  0.9107  0.0626
 4080TIP3    H233732   2.635   6.486   3.851  0.6881  2.9643 -1.9688
 4081TIP3   OH233733   0.138   5.338   0.527  0.3272  0.4927 -0.4418
 4081TIP3    H133734   0.085   5.302   0.455  0.7533  0.5831 -0.8009
 4081TIP3    H233735   0.142   5.267   0.591 -2.6017  1.4216  0.8768
 4082TIP3   OH233736   3.514   4.737   6.558 -0.2995  0.0229  0.5644
 4082TIP3    H133737   3.557   4.785   6.487 -0.7881 -1.1641 -0.5521
 4082TIP3    H233738   3.441   4.793   6.585 -0.0233  0.5437  0.2271
 4083TIP3   OH233739   3.377   5.559  15.892  0.4796 -0.6868  0.0179
 4083TIP3    H133740   3.315   5.487  15.879  1.2178 -1.5577  1.1905
 4083TIP3    H233741   3.386   5.599  15.806 -0.6939 -1.3945 -0.4403
 4084TIP3   OH233742   2.235   4.354  13.801 -0.5655  0.0474  0.5524
 4084TIP3    H133743   2.218   4.260  13.793 -0.0631 -0.2219  2.4112
 4084TIP3    H233744   2.330   4.361  13.801 -0.6032  0.7612 -1.5527
 4085TIP3   OH233745   3.043   2.288   2.779  0.1930 -0.0387  0.0888
 4085TIP3    H133746   3.039   2.345   2.857 -0.6728 -0.9035  0.7006
 4085TIP3    H233747   3.130   2.249   2.782  0.5513  0.7555  0.0353
 4086TIP3   OH233748   1.459   6.354   5.526 -0.3984 -0.2590 -0.2566
 4086TIP3    H133749   1.450   6.429   5.467 -0.4864 -0.5439 -0.6121
 4086TIP3    H233750   1.377   6.306   5.516 -0.6345 -0.0166  0.5137
 4087TIP3   OH233751   0.479   4.186  12.284  0.1822  0.7491  0.1386
 4087TIP3    H133752   0.411   4.122  12.263  1.9279 -1.0252 -0.1945
 4087TIP3    H233753   0.444   4.269  12.252 -1.4440 -0.2752 -0.8224
 4088TIP3   OH233754   3.647   4.815   4.694  0.7106 -0.3083 -0.7852
 4088TIP3    H133755   3.581   4.852   4.636 -1.6900 -1.4706  1.1120
 4088TIP3    H233756   3.644   4.871   4.772  0.8621 -1.2989 -0.0628
 4089TIP3   OH233757   6.011   0.891  16.049 -0.3840  0.2278 -0.1792
 4089TIP3    H133758   5.923   0.901  16.014 -0.8336  0.0863  0.8910
 4089TIP3    H233759   6.020   0.797  16.065  0.9280 -0.1267 -2.7480
 4090TIP3   OH233760   5.043   6.491  17.100  0.0762 -0.1693 -0.5430
 4090TIP3    H133761   4.949   6.506  17.112 -0.1140 -0.0955 -2.0277
 4090TIP3    H233762   5.083   6.532  17.177 -1.0441  0.6060 -0.3487
 4091TIP3   OH233763   4.744   0.918   1.039 -0.1478 -1.0117 -0.5319
 4091TIP3    H133764   4.816   0.970   1.074 -1.1587  2.1954 -2.9595
 4091TIP3    H233765   4.776   0.887   0.954 -0.6751 -1.8928 -0.4206
 4092TIP3   OH233766   3.879   4.794   4.080 -0.0796 -0.4249  0.2111
 4092TIP3    H133767   3.806   4.752   4.034 -0.6463  1.9544 -1.1124
 4092TIP3    H233768   3.945   4.809   4.012 -0.3434  1.8319  0.4227
 4093TIP3   OH233769   0.476   2.688  16.279  0.3742  0.8724  0.2526
 4093TIP3    H133770   0.392   2.692  16.233 -0.2285  1.6184  1.3884
 4093TIP3    H233771   0.504   2.598  16.270 -0.8052  0.4913  0.2865
 4094TIP3   OH233772   6.097   0.650   1.421 -0.1201 -0.0816  0.5931
 4094TIP3    H133773   6.107   0.557   1.405 -1.7874 -0.1731 -0.0605
 4094TIP3    H233774   6.037   0.655   1.496  1.9731  0.4425  2.2800
 4095TIP3   OH233775   0.952   0.994  16.595  0.1867  0.1963 -0.4018
 4095TIP3    H133776   1.022   1.004  16.529  0.6266  0.5722  0.1181
 4095TIP3    H233777   0.988   1.034  16.674  0.0202 -1.0660  0.3357
 4096TIP3   OH233778   5.150   3.247  10.794 -0.1834  0.6652  1.0852
 4096TIP3    H133779   5.111   3.334  10.789 -0.7780  0.3556  0.3514
 4096TIP3    H233780   5.140   3.211  10.707  0.0363 -0.1609  1.3967
 4097TIP3   OH233781   4.406   5.701   0.152  0.0173  0.4638  0.2515
 4097TIP3    H133782   4.429   5.613   0.122  2.6558  1.0390  0.4152
 4097TIP3    H233783   4.334   5.728   0.096  1.2652 -0.6132 -1.9455
 4098TIP3   OH233784   6.783   0.871  12.763  0.5830  0.6069  0.2973
 4098TIP3    H133785   6.739   0.908  12.839  1.4381  1.6695  0.2706
 4098TIP3    H233786   6.751   0.922  12.689  1.1749  0.7912  0.1686
 4099TIP3   OH233787   0.317   4.864  17.263 -0.5043  0.1327  0.2592
 4099TIP3    H133788   0.313   4.894  17.172  0.3529  0.3927  0.3054
 4099TIP3    H233789   0.389   4.913  17.302 -0.1208 -0.8142  0.7717
 4100TIP3   OH233790   1.550   3.290  11.544 -0.4741  0.2865 -0.3174
 4100TIP3    H133791   1.484   3.357  11.562 -1.5406 -0.5537 -0.9947
 4100TIP3    H233792   1.542   3.275  11.449  0.6652  0.1376 -0.3949
 4101TIP3   OH233793   2.366   5.707   1.993 -0.0442  0.3716  0.1219
 4101TIP3    H133794   2.320   5.623   1.991 -0.1742  0.2778  3.9207
 4101TIP3    H233795   2.345   5.748   1.909 -4.2916 -1.1402  0.3329
 4102TIP3   OH233796   4.369   1.015   5.242 -0.4404  0.3500 -0.3799
 4102TIP3    H133797   4.431   1.013   5.170  0.0380  1.1525  0.0078
 4102TIP3    H233798   4.405   0.954   5.306 -2.4390 -2.7376 -2.0766
 4103TIP3   OH233799   1.931   6.531  11.127 -0.3133 -0.0241  0.4140
 4103TIP3    H133800   2.025   6.523  11.108 -0.5637 -0.2100 -0.7673
 4103TIP3    H233801   1.888   6.508  11.045 -1.3744  1.0564  0.6580
 4104TIP3   OH233802   1.793   4.402  15.858 -0.0820 -0.1127 -0.2517
 4104TIP3    H133803   1.805   4.318  15.813 -3.5013 -0.9037  0.1593
 4104TIP3    H233804   1.782   4.465  15.787 -3.3361 -1.0177 -0.6437
 4105TIP3   OH233805   5.061   5.329  16.564  0.0787  0.1806  0.4661
 4105TIP3    H133806   5.014   5.247  16.583 -0.8031  0.4462 -0.5108
 4105TIP3    H233807   5.023   5.393  16.624 -1.8475  0.7291 -1.2668
 4106TIP3   OH233808   6.215   6.728   2.650  0.4248  0.2893  0.0672
 4106TIP3    H133809   6.164   6.675   2.710  1.9573 -0.4365  0.7638
 4106TIP3    H233810   6.215   6.679   2.568  1.6711 -0.7063  0.6531
 4107TIP3   OH233811   6.453   2.578  15.999 -1.2842 -0.0316  0.6267
 4107TIP3    H133812   6.519   2.529  16.047 -1.7962  0.0652  1.4437
 4107TIP3    H233813   6.388   2.513  15.974 -0.1241 -0.3879 -1.5211
 4108TIP3   OH233814   6.809   2.326  12.215  0.1708  0.1980 -0.3530
 4108TIP3    H133815   6.861   2.326  12.295 -1.5497  0.9300  0.7944
 4108TIP3    H233816   6.828   2.241  12.174  1.5299  0.0694  0.5026
 4109TIP3   OH233817   1.881   2.792   6.148  0.8429 -0.6425  0.2431
 4109TIP3    H133818   1.922   2.804   6.234 -1.1876  0.2806  1.1194
 4109TIP3    H233819   1.811   2.729   6.164 -0.9252  1.1682 -0.2530
 4110TIP3   OH233820   3.960   1.028  14.100  0.0441  0.7122  0.8830
 4110TIP3    H133821   3.988   1.098  14.040 -0.2248 -0.9479 -1.2569
 4110TIP3    H233822   4.042   0.991  14.133  0.2932 -0.0124 -0.4726
 4111TIP3   OH233823   5.013   6.754  13.336 -0.1923  0.2541  0.2374
 4111TIP3    H133824   4.985   6.718  13.252  1.5093 -1.2807  0.3067
 4111TIP3    H233825   5.010   6.849  13.324 -0.5907  0.0508 -1.3417
 4112TIP3   OH233826   1.020   2.622  12.210 -0.0778  0.5002 -0.0157
 4112TIP3    H133827   0.928   2.643  12.194 -0.7522 -1.2726  1.3258
 4112TIP3    H233828   1.030   2.532  12.180  1.1344  0.5740  0.1370
 4113TIP3   OH233829   2.354   3.662  17.262 -0.0375 -0.5801 -0.6069
 4113TIP3    H133830   2.394   3.706  17.187  1.0983  0.1951  0.4483
 4113TIP3    H233831   2.270   3.630  17.228  0.4300 -0.1883 -2.1906
 4114TIP3   OH233832   4.167   6.035  12.664 -0.4001 -0.2421  0.6720
 4114TIP3    H133833   4.214   6.098  12.718 -0.5477  0.0696  0.4397
 4114TIP3    H233834   4.077   6.037  12.696 -0.7070  0.6432 -0.1877
 4115TIP3   OH233835   0.890   0.459   5.659 -0.4056 -0.5606 -0.6105
 4115TIP3    H133836   0.923   0.460   5.569  0.5533 -0.2407 -0.2616
 4115TIP3    H233837   0.847   0.544   5.669  0.7406 -0.0063 -0.3154
 4116TIP3   OH233838   0.453   0.997  11.495  0.2772  0.5722  0.4527
 4116TIP3    H133839   0.444   0.902  11.485  3.7318  0.3270 -1.1482
 4116TIP3    H233840   0.398   1.034  11.426 -1.0708 -0.2558  1.0734
 4117TIP3   OH233841   0.781   4.463   2.457  0.1070  0.6439  0.4814
 4117TIP3    H133842   0.761   4.547   2.497 -1.6423 -0.2721  1.5808
 4117TIP3    H233843   0.776   4.400   2.530 -2.2247 -0.9150 -0.9631
 4118TIP3   OH233844   6.672   2.680   4.023 -0.4967  0.4823 -0.5087
 4118TIP3    H133845   6.675   2.586   4.004 -1.9897  0.6545 -1.6855
 4118TIP3    H233846   6.585   2.708   3.994 -0.2573  2.1317  0.3064
 4119TIP3   OH233847   5.210   1.462   5.182 -0.0233 -0.6259 -0.3326
 4119TIP3    H133848   5.166   1.481   5.264  2.4373 -0.1794  0.9502
 4119TIP3    H233849   5.262   1.384   5.200 -0.7542 -1.5235 -1.9865
 4120TIP3   OH233850   5.023   2.959   1.050  0.0159 -0.1829 -0.7307
 4120TIP3    H133851   5.114   2.941   1.029 -0.2130 -1.5820 -0.5439
 4120TIP3    H233852   4.998   3.028   0.987  2.0660  2.5086  1.2797
 4121TIP3   OH233853   3.792   0.361  15.766  0.4470  0.2218 -0.2027
 4121TIP3    H133854   3.700   0.369  15.741  0.4110  1.0782  0.2152
 4121TIP3    H233855   3.832   0.312  15.694  0.1023  1.6868 -1.4055
 4122TIP3   OH233856   2.857   2.911   4.244  0.2509 -0.6470  0.2792
 4122TIP3    H133857   2.904   2.945   4.320  0.0238  2.4480 -0.8769
 4122TIP3    H233858   2.766   2.907   4.272  0.2130  0.1686  0.2752
 4123TIP3   OH233859   2.675   0.475  12.726  0.2323  0.0034  0.1731
 4123TIP3    H133860   2.588   0.440  12.710  0.5924 -1.5197  1.4819
 4123TIP3    H233861   2.725   0.402  12.762  1.0240  1.8046  2.8778
 4124TIP3   OH233862   5.059   2.627   2.017 -0.1507 -0.1714 -0.0251
 4124TIP3    H133863   4.987   2.566   2.002 -0.1684  0.3069 -2.0503
 4124TIP3    H233864   5.016   2.711   2.036 -0.1247 -0.2195  0.2497
 4125TIP3   OH233865   2.463   2.885   6.015 -0.6269 -0.6178  0.3666
 4125TIP3    H133866   2.543   2.867   6.063 -0.5178  0.1430  0.4760
 4125TIP3    H233867   2.481   2.858   5.926  0.0736  0.4235  0.1899
 4126TIP3   OH233868   5.844   4.810  16.775 -0.4328  0.0167  0.2876
 4126TIP3    H133869   5.936   4.799  16.752 -0.1286  2.7647 -0.0235
 4126TIP3    H233870   5.796   4.758  16.711  0.8507 -0.3267 -0.3977
 4127TIP3   OH233871   2.617   4.918   4.271 -0.0242 -0.3602 -0.7730
 4127TIP3    H133872   2.697   4.872   4.297 -0.0269  1.0268  1.8790
 4127TIP3    H233873   2.546   4.857   4.292  0.0684  0.2224  1.3297
 4128TIP3   OH233874   2.046   5.946  11.189 -0.0611  0.3336  0.3169
 4128TIP3    H133875   2.033   6.039  11.206 -1.0862  0.0545  1.1616
 4128TIP3    H233876   2.022   5.903  11.272 -0.6913 -0.7577 -0.4156
 4129TIP3   OH233877   2.068   4.905   2.581 -0.4314 -0.2414  0.5721
 4129TIP3    H133878   2.108   4.838   2.636  0.4960 -0.3080 -0.1850
 4129TIP3    H233879   2.086   4.877   2.491 -1.3024  0.2530  0.2366
 4130TIP3   OH233880   2.510   6.626   0.345  0.2196 -0.0416  0.0444
 4130TIP3    H133881   2.454   6.605   0.420  0.9565  0.6269  0.8020
 4130TIP3    H233882   2.465   6.697   0.300  0.2940  0.2792  0.4688
 4131TIP3   OH233883   2.190   0.845  11.301  0.6484 -0.1087  0.2036
 4131TIP3    H133884   2.282   0.867  11.289  0.3965 -0.2356 -2.2897
 4131TIP3    H233885   2.170   0.785  11.229 -0.4908 -2.9397  2.7581
 4132TIP3   OH233886   6.544   0.149   4.875 -0.0695 -0.0116 -0.0375
 4132TIP3    H133887   6.525   0.187   4.961  0.8813  1.9096 -0.6290
 4132TIP3    H233888   6.476   0.183   4.818 -0.5204 -1.0371 -0.1144
 4133TIP3   OH233889   4.639   2.414  15.947  0.3019 -0.2531 -0.6348
 4133TIP3    H133890   4.580   2.399  16.021  2.2420  1.2793  1.2623
 4133TIP3    H233891   4.675   2.327  15.929 -0.0640 -0.6179  0.3116
 4134TIP3   OH233892   1.228   1.439  13.176  0.1912  0.2036  0.4784
 4134TIP3    H133893   1.176   1.407  13.250  0.8871  0.7540  1.2093
 4134TIP3    H233894   1.173   1.508  13.137 -1.0809 -1.4700 -0.7907
 4135TIP3   OH233895   4.173   6.383   5.198  0.0896  0.4614  0.2159
 4135TIP3    H133896   4.153   6.474   5.177  0.5753  0.0343 -2.1801
 4135TIP3    H233897   4.268   6.378   5.199  0.0674  0.0210  0.6222
 4136TIP3   OH233898   2.367   6.695   2.136 -0.2408  0.2450  0.7310
 4136TIP3    H133899   2.389   6.604   2.117  0.3885  0.3783  0.7890
 4136TIP3    H233900   2.452   6.736   2.153 -0.3796  1.2163 -0.8713
 4137TIP3   OH233901   1.490   1.934   3.747 -0.2572  0.2708  0.0378
 4137TIP3    H133902   1.457   1.852   3.783 -2.0196  0.0378 -1.9969
 4137TIP3    H233903   1.477   1.998   3.817  1.1021 -1.1579  1.6277
 4138TIP3   OH233904   2.465   1.380   5.503  0.0553 -0.1794 -0.2360
 4138TIP3    H133905   2.535   1.320   5.480  0.3520 -0.3062  0.9511
 4138TIP3    H233906   2.384   1.330   5.490  0.1685  0.0583 -1.8674
 4139TIP3   OH233907   6.408   1.948   2.621  0.1921  0.8488  0.0699
 4139TIP3    H133908   6.442   2.029   2.661  1.5400  1.4246 -2.1811
 4139TIP3    H233909   6.483   1.889   2.620  0.4264  1.1405 -2.3496
 4140TIP3   OH233910   3.258   2.060  14.495 -0.3558  0.5920 -0.0827
 4140TIP3    H133911   3.226   1.973  14.475  0.4500  0.2745 -0.0270
 4140TIP3    H233912   3.259   2.064  14.591 -0.4340  0.6772 -0.0846
 4141TIP3   OH233913   1.447   1.859  10.932 -0.0908 -0.3055 -0.0098
 4141TIP3    H133914   1.360   1.900  10.933  0.2957  0.5912 -1.8808
 4141TIP3    H233915   1.508   1.932  10.947  0.3835 -0.8182  0.5863
 4142TIP3   OH233916   1.047   0.553   6.404  0.5079  0.6652  0.1939
 4142TIP3    H133917   1.092   0.476   6.439 -0.5578 -0.1391 -0.1912
 4142TIP3    H233918   0.972   0.566   6.461  1.7773  2.6547  1.4748
 4143TIP3   OH233919   1.790   0.566   2.325 -0.0304 -0.0319 -0.4031
 4143TIP3    H133920   1.851   0.632   2.290  0.0632 -0.1595 -0.4824
 4143TIP3    H233921   1.704   0.605   2.315 -0.3616 -1.4754 -4.1075
 4144TIP3   OH233922   2.960   5.451  12.004  0.1090 -0.3936  0.3781
 4144TIP3    H133923   2.988   5.419  12.090  2.7272 -0.4684 -0.4371
 4144TIP3    H233924   2.986   5.381  11.943  1.7589  1.2636 -0.8847
 4145TIP3   OH233925   2.129   2.047  14.449  0.3521  0.1618  0.1063
 4145TIP3    H133926   2.091   2.129  14.483 -1.1374 -0.9013  1.0438
 4145TIP3    H233927   2.054   2.000  14.412  0.3522 -2.7327  3.4965
 4146TIP3   OH233928   1.486   1.662  10.397 -0.2206  0.1018 -0.2526
 4146TIP3    H133929   1.463   1.696  10.484  1.1861 -1.8011  0.9207
 4146TIP3    H233930   1.403   1.634  10.359 -0.7884  0.4520  0.6988
 4147TIP3   OH233931   5.069   5.115   3.332 -0.4008  0.1799  0.0385
 4147TIP3    H133932   5.073   5.029   3.373 -2.1651  0.8452  1.7239
 4147TIP3    H233933   5.072   5.097   3.238  2.3068 -1.4883  0.4027
 4148TIP3   OH233934   2.272   1.810  13.341 -0.1404  0.4524  0.2132
 4148TIP3    H133935   2.290   1.835  13.431  0.8071 -3.8780  1.3564
 4148TIP3    H233936   2.176   1.807  13.336 -0.1966  0.4050  1.1974
 4149TIP3   OH233937   5.666   4.303  14.157 -0.5136  0.1191 -0.3182
 4149TIP3    H133938   5.633   4.238  14.095 -1.4574  1.1000 -0.8640
 4149TIP3    H233939   5.716   4.364  14.102  0.9606 -0.5184  0.2873
 4150TIP3   OH233940   4.832   5.466   5.363 -0.6388 -0.0258  0.2879
 4150TIP3    H133941   4.831   5.453   5.458 -1.9933 -0.7902  0.1911
 4150TIP3    H233942   4.907   5.414   5.332  0.6387  1.3234  1.0588
 4151TIP3   OH233943   0.042   2.450  14.270 -0.3290  0.1328  0.3575
 4151TIP3    H133944   0.054   2.430  14.363 -1.2040  0.5205  0.5601
 4151TIP3    H233945   0.131   2.454  14.234  0.1407  2.3830  1.6844
 4152TIP3   OH233946   5.929   0.187  12.301 -0.2195  0.4143 -0.6004
 4152TIP3    H133947   6.008   0.242  12.306 -0.0365  0.3914 -3.0568
 4152TIP3    H233948   5.960   0.099  12.319  0.0084  0.6392  0.1625
 4153TIP3   OH233949   2.085   1.222  13.339  0.0297 -0.2520  0.5245
 4153TIP3    H133950   2.077   1.249  13.248 -2.1590  0.3459  0.8733
 4153TIP3    H233951   2.117   1.132  13.335 -0.1712 -0.2697 -0.8322
 4154TIP3   OH233952   5.042   4.629   5.241  0.0445  0.2096  0.1699
 4154TIP3    H133953   4.948   4.640   5.227  0.6487  1.7931 -3.0842
 4154TIP3    H233954   5.064   4.546   5.199  0.3788  0.6453 -0.5188
 4155TIP3   OH233955   5.472   5.736  13.196 -0.4287 -0.7314 -1.0529
 4155TIP3    H133956   5.479   5.672  13.266  0.4230 -0.1882 -0.6234
 4155TIP3    H233957   5.378   5.743  13.179 -0.6158 -1.1755 -0.2558
 4156TIP3   OH233958   2.559   6.123   0.419  0.3514 -0.2837  0.1952
 4156TIP3    H133959   2.496   6.196   0.425 -0.5497 -0.9645 -0.8281
 4156TIP3    H233960   2.644   6.165   0.413 -0.2513  0.7152 -1.5637
 4157TIP3   OH233961   5.426   3.010  13.991 -0.2006  0.1836  0.0454
 4157TIP3    H133962   5.492   2.941  13.979  0.9525  1.1101  0.9870
 4157TIP3    H233963   5.354   2.983  13.934  0.6240 -1.3042 -0.3395
 4158TIP3   OH233964   0.321   6.389   4.020  0.2861  0.0859 -0.5514
 4158TIP3    H133965   0.341   6.467   3.968  1.3405 -0.3112 -0.7500
 4158TIP3    H233966   0.402   6.371   4.069 -0.5985  0.3007  1.0404
 4159TIP3   OH233967   0.264   2.368   2.278  0.2746 -0.4830  0.7038
 4159TIP3    H133968   0.354   2.400   2.282  0.4857 -0.4538 -2.6802
 4159TIP3    H233969   0.223   2.400   2.358  2.5959  1.6804  1.0743
 4160TIP3   OH233970   4.053   0.529   5.523  0.1799 -0.2423  0.4780
 4160TIP3    H133971   4.090   0.556   5.439 -2.9821  0.5393 -0.7230
 4160TIP3    H233972   4.062   0.434   5.524  1.4460 -0.1431 -0.1200
 4161TIP3   OH233973   3.660   5.582   0.253 -0.0218 -0.5839  0.2067
 4161TIP3    H133974   3.677   5.592   0.347  2.0092  1.8803 -0.3698
 4161TIP3    H233975   3.680   5.490   0.235  4.0467 -0.0061  1.3707
 4162TIP3   OH233976   0.292   5.578   0.763  0.4229 -0.2203 -0.0191
 4162TIP3    H133977   0.314   5.657   0.813  1.0619  0.4227 -1.2702
 4162TIP3    H233978   0.198   5.585   0.747  0.4260  0.1548  0.1116
 4163TIP3   OH233979   3.913   0.343   1.845  0.2299  0.5085  0.2921
 4163TIP3    H133980   3.818   0.349   1.855 -0.0082  1.1550 -2.0359
 4163TIP3    H233981   3.928   0.253   1.814  0.3869  0.3479  0.8419
 4164TIP3   OH233982   1.803   1.440  16.143  0.5483 -0.1209  0.2210
 4164TIP3    H133983   1.745   1.512  16.169  2.3060  0.8519  1.5583
 4164TIP3    H233984   1.784   1.370  16.207 -1.2245 -0.9238 -1.1342
 4165TIP3   OH233985   5.555   1.803  14.818  0.0682 -0.2640  0.2494
 4165TIP3    H133986   5.582   1.880  14.768  0.8234 -1.2897 -0.9621
 4165TIP3    H233987   5.575   1.825  14.909  0.4497  0.8945 -0.1091
 4166TIP3   OH233988   1.012   3.817  14.780 -0.2133  0.1862  0.5547
 4166TIP3    H133989   0.971   3.731  14.796  0.9385 -0.5366 -0.3179
 4166TIP3    H233990   1.102   3.806  14.810  0.5950  0.3525 -1.7684
 4167TIP3   OH233991   0.327   5.682   2.182  0.5460  0.1688  0.1443
 4167TIP3    H133992   0.282   5.765   2.197 -0.4483 -0.6923  2.2213
 4167TIP3    H233993   0.317   5.634   2.265  2.7836 -1.2340 -0.3437
 4168TIP3   OH233994   6.036   5.098  11.756 -0.1860 -0.3396 -0.0952
 4168TIP3    H133995   5.981   5.020  11.763 -0.1247 -0.1648  3.2881
 4168TIP3    H233996   6.019   5.147  11.837  1.6118  1.9436 -1.0306
 4169TIP3   OH233997   1.743   1.360  15.859 -0.4056  0.1214 -0.2669
 4169TIP3    H133998   1.656   1.329  15.885  0.0934 -0.2288  1.0282
 4169TIP3    H233999   1.761   1.433  15.918  0.5733 -0.4186  0.1091
 4170TIP3   OH234000   3.055   1.613   4.447 -0.1274 -0.3309 -0.6384
 4170TIP3    H134001   2.988   1.672   4.483  1.2891  0.6847  0.3486
 4170TIP3    H234002   3.005   1.550   4.395 -2.0732 -0.8982  1.8421
 4171TIP3   OH234003   5.153   1.944   4.058  0.6101 -0.1469  0.3091
 4171TIP3    H134004   5.209   1.867   4.054  0.0427 -0.5671  0.4033
 4171TIP3    H234005   5.200   2.011   4.008  1.5925 -0.2365  1.1077
 4172TIP3   OH234006   2.745   5.194  12.917  0.4818 -0.2393 -0.0505
 4172TIP3    H134007   2.840   5.187  12.918  0.5197  0.3589  1.4208
 4172TIP3    H234008   2.727   5.280  12.954 -0.6238 -0.1198 -0.8271
 4173TIP3   OH234009   4.698   5.262  11.421 -0.1806  0.2549  0.0941
 4173TIP3    H134010   4.718   5.314  11.499  2.8165  0.0892 -0.5124
 4173TIP3    H234011   4.677   5.175  11.455 -1.1726  0.7783  0.8429
 4174TIP3   OH234012   3.869   1.320   0.382  0.3174 -0.4573  0.0214
 4174TIP3    H134013   3.893   1.271   0.303 -0.8765  0.9300 -1.2487
 4174TIP3    H234014   3.785   1.360   0.360  0.5188  0.8760  1.6000
 4175TIP3   OH234015   3.317   0.980  15.893  0.4701  0.3243 -0.2918
 4175TIP3    H134016   3.396   0.927  15.885  0.4805  0.3975 -0.7154
 4175TIP3    H234017   3.337   1.045  15.960  0.8243  0.4437 -0.5139
 4176TIP3   OH234018   2.036   4.492   2.900  0.5585 -0.4845  0.3444
 4176TIP3    H134019   2.126   4.468   2.921  0.7254  1.9409  2.7587
 4176TIP3    H234020   2.026   4.580   2.938 -2.3915 -0.1516 -1.0990
 4177TIP3   OH234021   4.126   1.276   4.322 -0.5143  0.5655  0.0056
 4177TIP3    H134022   4.149   1.319   4.240 -0.7682 -1.1405 -0.9669
 4177TIP3    H234023   4.044   1.231   4.304 -0.2301 -0.3760  0.9962
 4178TIP3   OH234024   0.968   5.812   2.269 -0.0106  0.2340 -0.5314
 4178TIP3    H134025   1.052   5.857   2.277 -1.3231  2.6920 -0.1823
 4178TIP3    H234026   0.910   5.877   2.230 -2.3786 -0.6566  1.4596
 4179TIP3   OH234027   4.066   1.398  13.727  0.2222 -0.3471 -0.2099
 4179TIP3    H134028   4.145   1.347  13.710 -0.0813 -0.4112 -1.4406
 4179TIP3    H234029   4.085   1.485  13.692 -0.3955 -0.4704 -0.8579
 4180TIP3   OH234030   5.500   0.613   0.069 -0.2143  0.4883 -0.0655
 4180TIP3    H134031   5.518   0.700   0.106 -1.4773  0.4915  0.5703
 4180TIP3    H234032   5.541   0.616  -0.018 -0.5886  1.8694 -0.2182
 4181TIP3   OH234033   3.567   1.528  14.474 -0.4691  0.0033 -0.0338
 4181TIP3    H134034   3.542   1.577  14.552  1.0935  0.8586 -0.0501
 4181TIP3    H234035   3.507   1.558  14.406 -0.0727  1.2581  0.1736
 4182TIP3   OH234036   4.449   3.333  16.123  0.6458 -0.3329 -0.4541
 4182TIP3    H134037   4.434   3.248  16.165  1.0311 -0.0355  0.3038
 4182TIP3    H234038   4.475   3.390  16.195 -0.9351  0.7820 -0.7489
 4183TIP3   OH234039   6.290   5.939   1.148  0.8364  0.6692  0.1154
 4183TIP3    H134040   6.363   5.998   1.167  0.8168  0.9236 -0.5934
 4183TIP3    H234041   6.332   5.856   1.126  1.1930  2.0268 -4.9690
 4184TIP3   OH234042   3.754   5.481   6.347 -0.0089  0.0372  0.3347
 4184TIP3    H134043   3.667   5.446   6.367  0.0990 -0.1588  0.4611
 4184TIP3    H234044   3.814   5.428   6.400  0.0281  1.3977  1.6806
 4185TIP3   OH234045   4.037   5.379  17.220 -0.1263  0.2729  0.3866
 4185TIP3    H134046   4.019   5.299  17.171  0.8997  0.5516 -0.4593
 4185TIP3    H234047   4.101   5.426  17.167  0.0276  1.1833  1.3615
 4186TIP3   OH234048   3.607   2.765  16.368 -0.0220 -0.1904 -0.0648
 4186TIP3    H134049   3.638   2.820  16.296  0.6803  0.0157  0.3848
 4186TIP3    H234050   3.552   2.824  16.421 -0.8669 -0.4500 -0.6463
 4187TIP3   OH234051   6.788   1.504   3.306  0.3042  0.3973  0.3452
 4187TIP3    H134052   6.773   1.598   3.318 -0.5975  0.0637  1.9122
 4187TIP3    H234053   6.701   1.468   3.289  0.8952  0.1019 -2.1436
 4188TIP3   OH234054   1.156   4.097   1.896 -0.0392 -0.3052  0.4420
 4188TIP3    H134055   1.189   4.133   1.978 -0.2205 -0.3476  0.5359
 4188TIP3    H234056   1.197   4.011   1.889  1.3877  0.4269 -0.4251
 4189TIP3   OH234057   5.724   3.790   3.523  0.1579 -0.2543 -0.0432
 4189TIP3    H134058   5.670   3.832   3.590  1.3010 -0.0798  0.8000
 4189TIP3    H234059   5.721   3.850   3.449  1.7660  1.3566  1.1469
 4190TIP3   OH234060   3.047   0.776  11.272  0.0159  0.1722  0.1093
 4190TIP3    H134061   3.045   0.846  11.207  1.8491  0.4519  0.3103
 4190TIP3    H234062   2.986   0.804  11.340  2.1554  2.5438  1.1305
 4191TIP3   OH234063   3.358   6.145   4.093  1.0114 -0.7411  0.2159
 4191TIP3    H134064   3.336   6.160   4.185  1.6543 -0.4149  0.3241
 4191TIP3    H234065   3.454   6.154   4.090  0.9702 -0.5236 -0.5231
 4192TIP3   OH234066   6.168   0.787   5.911 -0.6642 -0.3368 -0.2788
 4192TIP3    H134067   6.231   0.858   5.913 -1.2062  0.2242 -1.8773
 4192TIP3    H234068   6.083   0.830   5.917 -1.0560 -0.6992 -2.7069
 4193TIP3   OH234069   1.991   1.836   0.078 -0.2715  0.2670  1.1956
 4193TIP3    H134070   2.044   1.897   0.130 -0.6854  1.6749  0.0248
 4193TIP3    H234071   2.021   1.850  -0.012  0.2514 -1.9373  1.0103
 4194TIP3   OH234072   3.125   3.945   0.745 -0.8470  0.0928 -0.3972
 4194TIP3    H134073   3.054   3.911   0.691  0.3179  0.0888 -1.9829
 4194TIP3    H234074   3.205   3.921   0.697  0.1346  1.9208  0.2670
 4195TIP3   OH234075   5.324   1.505   0.604  0.3198  1.1732  0.3744
 4195TIP3    H134076   5.378   1.531   0.529  0.0950  0.8763  0.1101
 4195TIP3    H234077   5.386   1.462   0.663  0.0010 -1.0990 -0.8779
 4196TIP3   OH234078   5.102   4.895   3.501  0.3424 -0.4889  0.0885
 4196TIP3    H134079   5.026   4.877   3.556  0.3160  1.3851  0.7030
 4196TIP3    H234080   5.155   4.816   3.507 -0.5132 -0.9859  1.3847
 4197TIP3   OH234081   6.486   3.504  16.483 -0.4034 -0.7059 -0.1658
 4197TIP3    H134082   6.494   3.452  16.562 -2.7279  0.6957  1.0685
 4197TIP3    H234083   6.435   3.450  16.423 -0.1517 -1.0605 -0.0622
 4198TIP3   OH234084   4.211   3.206  13.169  0.4148  0.0282  0.5980
 4198TIP3    H134085   4.269   3.279  13.147  0.9542 -1.0228 -1.6114
 4198TIP3    H234086   4.123   3.243  13.167  0.5170  0.2615 -2.3983
 4199TIP3   OH234087   1.455   0.219  11.865  0.0769 -0.0738  0.1648
 4199TIP3    H134088   1.522   0.212  11.934  1.1647  1.3953 -0.7328
 4199TIP3    H234089   1.455   0.132  11.825  0.9414 -0.3100  0.6360
 4200TIP3   OH234090   5.919   4.753   2.962 -0.1849  0.2047  0.6183
 4200TIP3    H134091   5.903   4.831   2.909 -0.9418 -1.0041 -0.9702
 4200TIP3    H234092   5.997   4.774   3.013  2.5137  0.2426 -3.3111
 4201TIP3   OH234093   4.484   2.345   2.238 -0.3804  0.0681 -0.5542
 4201TIP3    H134094   4.495   2.272   2.299 -0.6882 -0.9885 -1.7370
 4201TIP3    H234095   4.408   2.321   2.185 -1.4007  1.9525  0.0193
 4202TIP3   OH234096   4.911   3.988  11.592 -0.2808  0.4422 -0.7198
 4202TIP3    H134097   4.995   3.969  11.550 -0.2346  2.4351 -1.6125
 4202TIP3    H234098   4.925   3.970  11.685  1.5414  2.0209 -0.6688
 4203TIP3   OH234099   3.951   4.488   6.116 -0.6940 -0.0916  0.1474
 4203TIP3    H134100   3.926   4.405   6.159 -0.2349  1.0925  2.7996
 4203TIP3    H234101   4.040   4.472   6.085 -0.7938 -0.7687  0.1817
 4204TIP3   OH234102   4.770   0.973  15.730  0.3023 -0.0465 -0.5399
 4204TIP3    H134103   4.757   1.056  15.776 -2.5430 -0.7503  0.0360
 4204TIP3    H234104   4.777   0.908  15.800 -0.4177 -0.6576 -1.0297
 4205TIP3   OH234105   6.614   6.455   6.021  0.4443 -0.2110 -0.0630
 4205TIP3    H134106   6.585   6.528   5.966  2.8183  1.0715  0.2839
 4205TIP3    H234107   6.544   6.443   6.084 -1.3464 -0.2533 -1.9999
 4206TIP3   OH234108   4.102   4.006   1.499  0.1934 -0.0653 -0.1914
 4206TIP3    H134109   4.194   4.004   1.473  0.2510  0.4749 -0.0299
 4206TIP3    H234110   4.094   3.934   1.562  0.4719 -0.1943 -0.3012
 4207TIP3   OH234111   3.797   5.365   1.637  0.5635  0.5260 -0.1978
 4207TIP3    H134112   3.848   5.415   1.573  0.8073  0.6902  0.1262
 4207TIP3    H234113   3.845   5.283   1.646 -0.3289 -0.1453 -1.4165
 4208TIP3   OH234114   5.985   0.812  12.839 -0.0904  0.0487  0.3930
 4208TIP3    H134115   5.983   0.900  12.801 -0.9595 -0.3103 -0.4014
 4208TIP3    H234116   5.976   0.753  12.764  0.4828 -0.7211  0.9217
 4209TIP3   OH234117   4.744   2.709  15.796  0.2286 -0.3124  0.4029
 4209TIP3    H134118   4.663   2.740  15.756  0.8824  1.4643  0.3910
 4209TIP3    H234119   4.806   2.781  15.782  1.4477 -1.1328  1.4973
 4210TIP3   OH234120   4.638   1.306   5.794  0.3132  0.1089  0.2260
 4210TIP3    H134121   4.700   1.344   5.857 -1.2491 -3.1231  3.8670
 4210TIP3    H234122   4.675   1.220   5.773 -0.8964 -0.2010 -0.6787
 4211TIP3   OH234123   2.399   2.940   4.832 -0.3743  0.1166 -0.9299
 4211TIP3    H134124   2.454   2.888   4.892 -0.1115  1.3606 -0.0734
 4211TIP3    H234125   2.390   2.885   4.755  2.1042 -0.1197 -1.0962
 4212TIP3   OH234126   0.804   3.020  13.799  0.2939  0.4026  0.0583
 4212TIP3    H134127   0.818   3.045  13.708  0.0345  0.3048 -0.0082
 4212TIP3    H234128   0.723   3.064  13.824 -0.3284 -0.6052 -0.1472
 4213TIP3   OH234129   6.171   6.305  17.178  0.7135  0.4413  0.2185
 4213TIP3    H134130   6.231   6.237  17.211  0.1460  1.0502  2.6415
 4213TIP3    H234131   6.214   6.387  17.202  0.5376  0.9196 -1.1026
 4214TIP3   OH234132   2.352   0.156   4.289  0.0799  0.5280  0.0472
 4214TIP3    H134133   2.294   0.231   4.303 -2.8302 -1.6828  0.2599
 4214TIP3    H234134   2.349   0.141   4.194  0.3336  0.4099  0.0575
 4215TIP3   OH234135   5.540   0.445   2.198  0.2212 -0.2358 -0.3438
 4215TIP3    H134136   5.543   0.455   2.103 -2.8842  1.5659 -0.3028
 4215TIP3    H234137   5.597   0.514   2.231  0.4883 -0.2018 -0.8655
 4216TIP3   OH234138   6.141   5.086   4.663 -0.2220  0.3011 -0.1385
 4216TIP3    H134139   6.047   5.074   4.672 -0.3436  1.3943  0.0972
 4216TIP3    H234140   6.155   5.180   4.677  0.9965  0.0149  0.6618
 4217TIP3   OH234141   2.245   0.468  14.650 -0.4251 -0.4207  0.1974
 4217TIP3    H134142   2.269   0.396  14.708 -0.3571 -0.0340  0.6606
 4217TIP3    H234143   2.256   0.434  14.562  0.6957 -0.6207  0.4107
 4218TIP3   OH234144   6.218   1.442   1.485  0.3419 -0.4853  0.1916
 4218TIP3    H134145   6.129   1.409   1.501  0.3080  0.1578  1.3919
 4218TIP3    H234146   6.225   1.447   1.390 -0.2301 -2.3825  0.0338
 4219TIP3   OH234147   4.915   6.639   2.117  0.4158 -0.3540 -0.2266
 4219TIP3    H134148   4.939   6.630   2.209  1.2593  0.1036 -0.3984
 4219TIP3    H234149   4.997   6.630   2.070 -0.1091 -1.2655 -0.9866
 4220TIP3   OH234150   6.377   5.345  13.340  0.1416  0.8883  0.6402
 4220TIP3    H134151   6.333   5.318  13.260  2.1098 -0.6657  0.0518
 4220TIP3    H234152   6.470   5.343  13.319  0.6475  1.5894  2.6316
 4221TIP3   OH234153   0.690   1.587  14.581 -0.2809  0.5127  0.2129
 4221TIP3    H134154   0.736   1.555  14.502 -1.6217 -1.6007  0.2642
 4221TIP3    H234155   0.618   1.640  14.547  0.0830  0.9101  0.0572
 4222TIP3   OH234156   6.346   2.290  13.410 -0.2471 -0.7591 -0.6338
 4222TIP3    H134157   6.325   2.282  13.317 -2.5253  0.3232 -0.2384
 4222TIP3    H234158   6.280   2.237  13.455  0.7969 -1.2202  0.3830
 4223TIP3   OH234159   3.801   0.313  11.577  0.2054  0.7336 -0.3843
 4223TIP3    H134160   3.892   0.286  11.567  0.6574  1.7728  0.7653
 4223TIP3    H234161   3.792   0.388  11.518  0.5528  1.6288  0.6770
 4224TIP3   OH234162   3.662   1.329   3.710  0.6314 -0.2752 -0.5717
 4224TIP3    H134163   3.661   1.293   3.622  2.3831 -0.7348 -0.4135
 4224TIP3    H234164   3.598   1.401   3.707  1.7760  0.7028 -2.6309
 4225TIP3   OH234165   3.438   1.872  11.079  0.3190 -0.2413 -0.2350
 4225TIP3    H134166   3.532   1.873  11.064  0.5958  1.2205  1.4755
 4225TIP3    H234167   3.428   1.828  11.164 -0.4636  0.6373  0.1309
 4226TIP3   OH234168   4.248   2.042   1.810  0.1145 -0.1120  0.7569
 4226TIP3    H134169   4.239   2.103   1.884 -1.7222 -0.1556  0.6058
 4226TIP3    H234170   4.223   1.957   1.846  1.7673 -0.6228  0.7305
 4227TIP3   OH234171   3.011   3.534  11.936  0.0122  0.2891 -0.3254
 4227TIP3    H134172   3.002   3.485  12.017  1.0238 -1.1779 -1.0838
 4227TIP3    H234173   2.926   3.525  11.892  0.3029 -1.0796 -0.6185
 4228TIP3   OH234174   2.433   0.525   5.363 -0.8911 -0.7177 -0.3114
 4228TIP3    H134175   2.446   0.540   5.457  1.1897  0.9876 -0.8333
 4228TIP3    H234176   2.419   0.612   5.326  0.6352 -1.1201 -1.8924
 4229TIP3   OH234177   1.041   4.508   2.298  0.0790 -0.0277  0.2469
 4229TIP3    H134178   0.961   4.560   2.290 -0.2020 -0.3023  1.1827
 4229TIP3    H234179   1.112   4.571   2.288 -0.2369  0.0546 -1.6970
 4230TIP3   OH234180   1.323   1.268  16.654 -0.7963  0.0196 -0.3051
 4230TIP3    H134181   1.374   1.349  16.651 -0.0815 -0.4411 -0.6298
 4230TIP3    H234182   1.244   1.287  16.603 -0.3104  0.2852 -0.9481
 4231TIP3   OH234183   4.434   0.967  13.356 -0.8026  0.0146 -0.5594
 4231TIP3    H134184   4.469   0.950  13.268 -0.2845 -0.6235 -0.2309
 4231TIP3    H234185   4.419   0.881  13.393  0.0635  0.2837  0.4145
 4232TIP3   OH234186   0.578   4.024   3.562 -0.5751 -0.0087 -0.2223
 4232TIP3    H134187   0.671   4.045   3.551 -0.5934  0.7337  1.0642
 4232TIP3    H234188   0.578   3.935   3.598 -0.4265 -0.8094 -2.1154
 4233TIP3   OH234189   4.759   6.347  12.648 -0.1898 -0.3318  0.1259
 4233TIP3    H134190   4.807   6.345  12.565 -0.0650  2.2189  0.0889
 4233TIP3    H234191   4.799   6.419  12.697 -1.6577 -0.4428  1.5292
 4234TIP3   OH234192   3.363   5.167   1.501  0.1873 -0.2703 -0.0500
 4234TIP3    H134193   3.326   5.206   1.580  0.4264  0.8447 -0.4704
 4234TIP3    H234194   3.291   5.117   1.462 -0.2024 -0.0469  0.3788
 4235TIP3   OH234195   5.229   6.343   6.605  0.1764  0.0463  0.5771
 4235TIP3    H134196   5.146   6.294   6.601 -0.1231  0.6607 -0.8819
 4235TIP3    H234197   5.254   6.355   6.514  0.6456  1.9672  0.9523
 4236TIP3   OH234198   2.236   3.630  13.968  0.2064 -0.0788  0.5573
 4236TIP3    H134199   2.272   3.542  13.977 -0.6670 -0.6947 -1.6042
 4236TIP3    H234200   2.150   3.616  13.926  0.1883  1.8080 -0.0679
 4237TIP3   OH234201   0.688   1.859   3.550 -0.4062  0.1669  0.1965
 4237TIP3    H134202   0.750   1.929   3.574 -0.1209  0.3739 -1.1257
 4237TIP3    H234203   0.679   1.808   3.630 -0.0776  1.3110  0.9890
 4238TIP3   OH234204   6.092   4.813   0.966 -0.6421 -0.7823 -0.2612
 4238TIP3    H134205   6.000   4.837   0.972 -0.0187  1.5270  0.7064
 4238TIP3    H234206   6.119   4.843   0.880  0.0474  1.8257  0.8110
 4239TIP3   OH234207   1.086   1.176  15.069  0.4976 -0.6163  0.2031
 4239TIP3    H134208   1.010   1.129  15.105  0.2835 -0.3274  0.1272
 4239TIP3    H234209   1.068   1.268  15.086  0.8894 -0.5528  0.2907
 4240TIP3   OH234210   6.146   1.991   5.197  0.1772 -0.2486  0.7396
 4240TIP3    H134211   6.127   1.897   5.201  1.3968 -0.5727 -0.5532
 4240TIP3    H234212   6.063   2.031   5.170  0.8147 -1.4798 -3.4120
 4241TIP3   OH234213   4.111   2.252  14.385 -0.3807 -1.0101 -0.0283
 4241TIP3    H134214   4.205   2.236  14.388 -0.1472  0.0132 -1.2649
 4241TIP3    H234215   4.075   2.201  14.457  1.5952  1.8942  3.1755
 4242TIP3   OH234216   5.419   1.076   5.965 -0.1312  0.2057  0.5184
 4242TIP3    H134217   5.373   1.031   5.894 -0.2181  0.8211  0.1883
 4242TIP3    H234218   5.360   1.146   5.991 -0.4293 -0.4670  1.6981
 4243TIP3   OH234219   0.992   6.320   5.258  0.6928  0.0928  0.0181
 4243TIP3    H134220   1.006   6.227   5.281  0.8697  0.2798  0.6878
 4243TIP3    H234221   0.900   6.325   5.235  0.8510 -0.4053 -0.7771
 4244TIP3   OH234222   3.608   2.904   0.160 -0.1453 -0.1277  0.0729
 4244TIP3    H134223   3.636   2.984   0.203 -0.6507  0.0628  0.0502
 4244TIP3    H234224   3.645   2.909   0.072  0.1577 -0.1082  0.2027
 4245TIP3   OH234225   4.728   5.608   6.223 -0.6881  0.2260  1.1542
 4245TIP3    H134226   4.709   5.524   6.180  1.0382  1.0631 -1.3499
 4245TIP3    H234227   4.652   5.623   6.279 -1.4598 -2.5586  0.9552
 4246TIP3   OH234228   4.735   3.261  12.718  0.1116 -0.0086 -0.4638
 4246TIP3    H134229   4.756   3.178  12.761  0.5585 -1.1816 -2.8744
 4246TIP3    H234230   4.818   3.294  12.686 -0.1087  1.2469  0.2190
 4247TIP3   OH234231   1.608   5.055   2.266 -0.7163 -0.6481  0.2276
 4247TIP3    H134232   1.680   4.995   2.283 -0.4465  0.4926  3.5532
 4247TIP3    H234233   1.641   5.141   2.291 -2.4215  0.2863 -0.5763
 4248TIP3   OH234234   2.728   1.581   0.345  0.0561 -0.1504 -0.3874
 4248TIP3    H134235   2.653   1.550   0.293 -1.5584  2.7610  0.0994
 4248TIP3    H234236   2.756   1.661   0.301  1.8345 -0.3324  0.3975
 4249TIP3   OH234237   2.978   2.918  11.693 -0.8550 -0.7790  0.1694
 4249TIP3    H134238   2.966   3.013  11.688  0.2368 -0.4128  3.0899
 4249TIP3    H234239   3.073   2.907  11.699 -1.0578 -1.8875  1.7857
 4250TIP3   OH234240   0.921   0.839  14.229 -0.9347 -0.0164 -0.0127
 4250TIP3    H134241   0.903   0.850  14.322 -1.4116 -0.5801 -0.0369
 4250TIP3    H234242   0.909   0.926  14.192  1.1891  0.6399  0.7611
 4251TIP3   OH234243   4.634   5.701   1.472  0.5118  0.8812  0.5944
 4251TIP3    H134244   4.691   5.638   1.516 -0.6813 -0.6495 -0.0617
 4251TIP3    H234245   4.659   5.696   1.380 -0.1043  0.8188  0.4292
 4252TIP3   OH234246   4.333   5.396  17.066 -0.0247 -0.0743 -0.1555
 4252TIP3    H134247   4.279   5.328  17.026 -0.4345 -0.8826  1.7078
 4252TIP3    H234248   4.293   5.479  17.038 -0.5995 -0.6196 -0.9682
 4253TIP3   OH234249   5.826   3.948  11.083  0.4484  0.6892  0.1448
 4253TIP3    H134250   5.758   3.881  11.080 -1.5125  2.5805  1.3225
 4253TIP3    H234251   5.906   3.901  11.061 -1.3943 -1.3286 -2.5828
 4254TIP3   OH234252   1.146   3.066   2.368  0.3219  0.9716  0.0191
 4254TIP3    H134253   1.185   3.152   2.380  0.8248  0.7427  0.0589
 4254TIP3    H234254   1.109   3.044   2.453  4.5913 -0.9945  1.5575
 4255TIP3   OH234255   1.759   5.298   1.949 -0.2008  0.6301  0.6717
 4255TIP3    H134256   1.698   5.353   1.997  1.8706  2.0715  1.7127
 4255TIP3    H234257   1.802   5.357   1.888 -1.5873 -0.8573 -1.8138
 4256TIP3   OH234258   6.528   2.908   3.204  0.4246 -0.4403  0.3906
 4256TIP3    H134259   6.588   2.914   3.278 -0.6689 -0.3352  1.2827
 4256TIP3    H234260   6.446   2.874   3.241 -0.2743  0.0289 -0.6702
 4257TIP3   OH234261   3.896   4.913   4.334  1.2716 -0.0218 -0.2900
 4257TIP3    H134262   3.987   4.895   4.358  0.9744 -0.1597  0.7770
 4257TIP3    H234263   3.886   4.873   4.248  2.0512 -0.5363 -0.1520
 4258TIP3   OH234264   4.757   2.585   1.976  0.0143  0.1428 -0.0074
 4258TIP3    H134265   4.708   2.667   1.972  0.4264  0.4229  0.5762
 4258TIP3    H234266   4.751   2.558   2.068 -0.8087 -0.9071 -0.3575
 4259TIP3   OH234267   6.080   3.636  16.879  0.3463  0.2567  0.0785
 4259TIP3    H134268   6.113   3.660  16.965  1.2848  0.1449 -0.2353
 4259TIP3    H234269   6.158   3.635  16.823 -0.0210 -1.1244 -0.4380
 4260TIP3   OH234270   0.661   2.888  17.229 -0.6911 -0.1750 -0.4436
 4260TIP3    H134271   0.620   2.915  17.146 -0.5205  1.0354 -0.1316
 4260TIP3    H234272   0.587   2.867  17.286 -0.8465  0.9264 -0.2466
 4261TIP3   OH234273   3.574   1.266  15.912  0.0820 -0.2300  0.0423
 4261TIP3    H134274   3.554   1.328  15.982 -1.6755  0.8940 -1.3914
 4261TIP3    H234275   3.572   1.180  15.954 -0.8409  0.4441  1.4024
 4262TIP3   OH234276   6.467   2.536  16.296 -0.3807 -0.4900  0.3776
 4262TIP3    H134277   6.438   2.445  16.295 -0.6895 -0.4136  1.2788
 4262TIP3    H234278   6.388   2.586  16.276  0.0797 -0.4795 -1.4295
 4263TIP3   OH234279   2.174   5.499  16.568  0.6546  0.4490  0.2915
 4263TIP3    H134280   2.185   5.588  16.602  0.5211  0.3236  0.6643
 4263TIP3    H234281   2.258   5.479  16.527 -0.0289  1.5550 -1.7152
 4264TIP3   OH234282   0.526   2.118  11.573 -0.0000 -0.2844 -0.3581
 4264TIP3    H134283   0.580   2.162  11.507  2.6621  0.1135  2.0012
 4264TIP3    H234284   0.465   2.185  11.603  0.7424  0.3867 -0.3304
 4265TIP3   OH234285   2.635   3.749  14.811 -0.3999 -0.2521  0.1831
 4265TIP3    H134286   2.649   3.784  14.899 -0.2391 -2.2580  0.9888
 4265TIP3    H234287   2.665   3.818  14.753  1.6665  0.1957  1.7283
 4266TIP3   OH234288   2.730   2.961   0.296 -0.0735  0.9684 -0.4228
 4266TIP3    H134289   2.745   3.054   0.317  0.8207  0.5115  1.0540
 4266TIP3    H234290   2.679   2.928   0.371 -0.7100  0.3475 -1.1236
 4267TIP3   OH234291   4.620   5.207  15.633 -0.1369  0.3112 -0.1740
 4267TIP3    H134292   4.676   5.215  15.710  2.4584  1.0795 -2.0694
 4267TIP3    H234293   4.580   5.293  15.624 -1.0473 -0.0101  0.7491
 4268TIP3   OH234294   3.909   4.716  15.781 -0.3937  0.0312  0.1558
 4268TIP3    H134295   3.922   4.810  15.796  0.0399  0.0970 -0.6457
 4268TIP3    H234296   3.851   4.712  15.705 -2.0815 -0.3230  1.4093
 4269TIP3   OH234297   6.171   3.330  16.089 -0.3249 -0.3155 -0.3255
 4269TIP3    H134298   6.260   3.324  16.053 -0.4227 -0.0569 -0.6132
 4269TIP3    H234299   6.171   3.269  16.163  0.6343  1.0023  0.7962
 4270TIP3   OH234300   5.821   3.638  12.705  0.0716  0.0623  0.4746
 4270TIP3    H134301   5.861   3.556  12.677 -1.6356 -0.4683 -0.4353
 4270TIP3    H234302   5.769   3.615  12.782 -0.8812  0.1584 -0.1283
 4271TIP3   OH234303   5.363   1.542   3.306 -0.0789  0.2530 -0.1512
 4271TIP3    H134304   5.319   1.460   3.285  0.4448 -0.1795  0.4068
 4271TIP3    H234305   5.407   1.568   3.225 -0.2236 -0.0354 -0.3226
 4272TIP3   OH234306   6.550   2.968  13.856 -0.0779  0.3628  0.3100
 4272TIP3    H134307   6.484   2.899  13.843 -1.4806  1.7888 -0.2249
 4272TIP3    H234308   6.501   3.043  13.888  1.2562  1.5359 -0.3274
 4273TIP3   OH234309   5.504   6.049   1.507  0.4374  0.0947 -0.4885
 4273TIP3    H134310   5.562   6.026   1.435 -0.5795 -0.7180 -1.0570
 4273TIP3    H234311   5.509   5.973   1.566  3.0147  1.6810  1.4542
 4274TIP3   OH234312   1.286   1.397   1.118 -0.5116  0.1840  0.0348
 4274TIP3    H134313   1.375   1.378   1.089 -0.9882  0.7752 -1.8474
 4274TIP3    H234314   1.292   1.484   1.158 -0.2910  0.3520 -0.3604
 4275TIP3   OH234315   4.933   4.662   5.609 -0.2268 -0.9007  0.1022
 4275TIP3    H134316   4.929   4.735   5.548  2.4644 -0.1831  0.6812
 4275TIP3    H234317   5.019   4.622   5.593 -1.6596 -3.9794 -0.2260
 4276TIP3   OH234318   2.949   3.089  12.865  0.5433 -0.0857 -0.3825
 4276TIP3    H134319   2.900   3.157  12.910 -0.1853 -1.0668  0.3368
 4276TIP3    H234320   2.882   3.031  12.827  1.1173 -1.5015  0.7093
 4277TIP3   OH234321   4.185   2.313  14.120  0.3558  0.2805  0.1081
 4277TIP3    H134322   4.276   2.288  14.141  0.0811  0.2711  1.2878
 4277TIP3    H234323   4.132   2.245  14.161 -0.3645  2.2636  2.5626
 4278TIP3   OH234324   2.273   1.483  15.160  0.4557 -0.1403  0.2089
 4278TIP3    H134325   2.295   1.460  15.070  1.8713  0.6579  0.3391
 4278TIP3    H234326   2.181   1.457  15.169  0.4146 -0.6092 -1.3272
 4279TIP3   OH234327   3.676   6.079   4.334 -0.1731 -0.2405 -0.3332
 4279TIP3    H134328   3.653   6.065   4.426 -3.6506 -0.8668 -1.2457
 4279TIP3    H234329   3.699   5.992   4.302 -1.0362 -0.3722 -0.5957
 4280TIP3   OH234330   3.779   2.265  15.179 -0.9429  0.4593 -0.5809
 4280TIP3    H134331   3.872   2.282  15.166 -0.8390 -0.6293 -1.3492
 4280TIP3    H234332   3.776   2.186  15.233 -1.4238  1.1138  0.3713
 4281TIP3   OH234333   2.063   0.260  13.668  1.0906 -0.1477  0.4631
 4281TIP3    H134334   1.975   0.255  13.706  0.8350 -2.0051 -0.3245
 4281TIP3    H234335   2.056   0.213  13.585  2.6446  0.3661  0.0219
 4282TIP3   OH234336   2.354   6.162  11.143 -0.1369 -0.4793 -0.2345
 4282TIP3    H134337   2.379   6.123  11.059 -0.4558 -0.5912 -0.2765
 4282TIP3    H234338   2.300   6.237  11.120 -1.0955 -1.1158 -0.1078
 4283TIP3   OH234339   0.608   4.239  12.918  0.7926 -0.6032  0.4669
 4283TIP3    H134340   0.617   4.302  12.847 -3.2073 -1.5532 -0.9895
 4283TIP3    H234341   0.580   4.291  12.994 -0.2224 -0.3262 -0.1014
 4284TIP3   OH234342   6.700   4.234  11.184  0.2059  0.4177 -0.1234
 4284TIP3    H134343   6.680   4.148  11.221  1.2111  0.9550  1.7324
 4284TIP3    H234344   6.651   4.237  11.102 -0.2635 -1.7144  0.0536
 4285TIP3   OH234345   3.661   2.052  14.580 -1.0463 -0.1319 -0.4041
 4285TIP3    H134346   3.595   2.085  14.641  0.8496  0.6877  1.2564
 4285TIP3    H234347   3.692   1.971  14.620 -0.9183 -0.4122 -1.0721
 4286TIP3   OH234348   4.485   2.463   5.794  0.6159 -0.1559 -0.3756
 4286TIP3    H134349   4.494   2.494   5.703 -0.1552  1.6775  0.1485
 4286TIP3    H234350   4.393   2.437   5.801  0.8000 -0.7650 -0.2752
 4287TIP3   OH234351   4.066   1.434  14.461 -0.4485 -0.3000 -0.2209
 4287TIP3    H134352   4.053   1.390  14.378 -1.3067 -1.1007  0.3399
 4287TIP3    H234353   3.978   1.455  14.492 -0.2080 -1.3238  1.1931
 4288TIP3   OH234354   6.494   2.658   3.043 -0.9346 -0.3765  0.4534
 4288TIP3    H134355   6.559   2.599   3.079  0.1451 -0.7006 -1.9528
 4288TIP3    H234356   6.518   2.744   3.077  1.2505 -0.3668 -1.0349
 4289TIP3   OH234357   5.663   1.996  14.668  0.2199  0.0768 -0.3334
 4289TIP3    H134358   5.723   1.966  14.599  1.2380 -0.6651  0.8711
 4289TIP3    H234359   5.705   2.075  14.703  0.7407 -0.7168  0.8396
 4290TIP3   OH234360   1.588   3.816  13.470  0.4644  0.0228  0.1045
 4290TIP3    H134361   1.512   3.773  13.508  1.3954 -0.4356  1.4875
 4290TIP3    H234362   1.553   3.866  13.396 -0.8462 -1.8947 -0.6028
 4291TIP3   OH234363   5.474   2.711  12.393 -0.5245 -0.3352  0.1531
 4291TIP3    H134364   5.522   2.793  12.397  0.2539 -0.7678 -0.1083
 4291TIP3    H234365   5.531   2.652  12.343  0.1892 -1.8686  2.6499
 4292TIP3   OH234366   4.952   3.284  14.970 -0.1627  0.4934  0.8830
 4292TIP3    H134367   5.008   3.236  15.031  0.5992  0.3259  0.0631
 4292TIP3    H234368   4.867   3.287  15.013 -0.4473 -2.3055  0.6101
 4293TIP3   OH234369   6.678   0.248  12.169 -0.5123  0.1173 -0.3412
 4293TIP3    H134370   6.652   0.292  12.088 -3.1593 -1.2447 -0.2860
 4293TIP3    H234371   6.726   0.315  12.218  1.2933  0.9096 -3.0694
 4294TIP3   OH234372   3.474   0.629   3.694 -0.0704 -0.2723 -0.4799
 4294TIP3    H134373   3.485   0.685   3.617 -0.9908  1.0735  0.3424
 4294TIP3    H234374   3.394   0.581   3.678 -0.9433  0.9329  0.1728
 4295TIP3   OH234375   2.197   0.152  15.557  0.0339 -0.0007  0.2070
 4295TIP3    H134376   2.274   0.164  15.611  1.2514 -0.7400 -1.3139
 4295TIP3    H234377   2.193   0.230  15.502  0.1266 -0.3022 -0.2319
 4296TIP3   OH234378   2.082   0.953  13.808 -0.4924  0.2409 -0.3590
 4296TIP3    H134379   2.113   0.927  13.721 -0.9709 -2.7357  0.2903
 4296TIP3    H234380   2.155   1.001  13.846  0.7978 -0.8832 -1.3585
 4297TIP3   OH234381   1.426   2.714  15.490 -0.1197 -0.2072  0.4905
 4297TIP3    H134382   1.405   2.704  15.397 -0.9937 -3.3713  0.9524
 4297TIP3    H234383   1.495   2.650  15.505  0.6589  0.9354  1.8446
 4298TIP3   OH234384   5.817   4.441   2.335  0.0383 -0.0200 -0.6339
 4298TIP3    H134385   5.908   4.447   2.307  0.5307 -2.2229  0.3444
 4298TIP3    H234386   5.766   4.446   2.254  1.0993  0.0691 -1.3022
 4299TIP3   OH234387   0.419   5.857  16.151  0.2560  0.5566 -0.0109
 4299TIP3    H134388   0.418   5.780  16.208 -0.7326  0.8913  0.4309
 4299TIP3    H234389   0.511   5.868  16.128  0.5531 -0.0929  0.8306
 4300TIP3   OH234390   5.158   3.850  15.136 -0.1454  0.1464 -0.5228
 4300TIP3    H134391   5.236   3.905  15.133  0.0027  0.0149  0.4905
 4300TIP3    H234392   5.164   3.804  15.220  0.1071 -1.9841 -1.6610
 4301TIP3   OH234393   4.292   1.476  17.099 -0.2530 -0.0916 -0.5431
 4301TIP3    H134394   4.239   1.486  17.020 -0.1022  0.2605 -0.5988
 4301TIP3    H234395   4.228   1.467  17.170 -0.3872 -0.2679 -0.6874
 4302TIP3   OH234396   2.625   4.307  14.354 -0.6522  0.0364  0.2044
 4302TIP3    H134397   2.537   4.325  14.322 -1.2168 -0.8437  1.2387
 4302TIP3    H234398   2.680   4.374  14.313 -1.8967  0.9624  0.0395
 4303TIP3   OH234399   2.659   4.037  11.699  0.1478  0.0059 -0.3164
 4303TIP3    H134400   2.716   4.045  11.623 -0.5694  1.8334 -0.6924
 4303TIP3    H234401   2.597   3.968  11.676  1.5097 -1.2361 -0.3374
 4304TIP3   OH234402   2.459   5.243  13.129  0.4266 -0.0155  0.4396
 4304TIP3    H134403   2.519   5.315  13.150  1.2994 -0.4057 -0.6864
 4304TIP3    H234404   2.407   5.232  13.208 -2.3279  4.3624 -0.5725
 4305TIP3   OH234405   0.174   4.895  16.659 -0.4686  0.0145  0.2388
 4305TIP3    H134406   0.127   4.897  16.575 -1.7422  2.0542  0.9428
 4305TIP3    H234407   0.171   4.804  16.687 -0.5133 -0.5841 -1.6621
 4306TIP3   OH234408   5.764   4.359   1.708  0.3717  0.4255 -0.4426
 4306TIP3    H134409   5.745   4.421   1.637  0.5495  0.7158 -0.2353
 4306TIP3    H234410   5.793   4.414   1.781  2.4836 -0.0323 -0.8992
 4307TIP3   OH234411   5.488   0.082  11.510 -0.2568 -0.1037  0.1293
 4307TIP3    H134412   5.458  -0.009  11.517 -0.4378  0.1081  2.4676
 4307TIP3    H234413   5.409   0.135  11.523  0.3725  0.4062  2.0187
 4308TIP3   OH234414   3.995   5.311   1.301 -0.0384  0.6499 -0.1858
 4308TIP3    H134415   3.936   5.386   1.309 -0.3440  0.2972  0.9097
 4308TIP3    H234416   3.940   5.235   1.317  0.2003  0.1600 -1.6453
 4309TIP3   OH234417   5.655   3.229   5.225 -0.0582  0.0126 -0.2112
 4309TIP3    H134418   5.668   3.196   5.314  1.0098 -2.3996 -1.2168
 4309TIP3    H234419   5.561   3.243   5.218 -0.1041  0.6009  1.4219
 4310TIP3   OH234420   5.513   3.877  14.725 -0.1388 -0.4865  0.5073
 4310TIP3    H134421   5.558   3.795  14.747  3.0633  0.8885 -0.5589
 4310TIP3    H234422   5.512   3.927  14.806  0.0316 -0.6195  0.5921
 4311TIP3   OH234423   4.033   2.006   3.737 -0.1486  0.0967 -0.4023
 4311TIP3    H134424   4.039   1.911   3.739  0.1603  0.1430  1.1255
 4311TIP3    H234425   4.123   2.036   3.744  0.0337  0.4918 -3.6983
 4312TIP3   OH234426   0.344   3.851  17.244 -0.1184 -0.4172  0.2648
 4312TIP3    H134427   0.319   3.768  17.283 -0.1719 -1.2878 -1.5877
 4312TIP3    H234428   0.263   3.884  17.204  0.4020 -0.5986 -0.9763
 4313TIP3   OH234429   4.895   6.002  16.007  0.7391 -0.1118 -0.1091
 4313TIP3    H134430   4.814   5.984  16.056  0.5735 -0.8255 -0.6444
 4313TIP3    H234431   4.869   6.069  15.943  0.5174 -0.4898 -0.4176
 4314TIP3   OH234432   2.005   3.404  16.782  0.2085 -0.2063 -0.3982
 4314TIP3    H134433   2.054   3.438  16.857  0.4279 -2.2981  0.4263
 4314TIP3    H234434   1.925   3.457  16.780  0.9553  0.9863  0.2594
 4315TIP3   OH234435   4.395   4.417  16.902 -0.6940 -0.3825 -0.1671
 4315TIP3    H134436   4.374   4.479  16.832  0.8786 -0.4167 -0.6894
 4315TIP3    H234437   4.363   4.459  16.982  1.2752  1.5837 -0.3803
 4316TIP3   OH234438   6.472   0.165  17.079 -0.7071 -0.4905 -0.1220
 4316TIP3    H134439   6.405   0.231  17.060  0.1253  0.2140 -0.6939
 4316TIP3    H234440   6.480   0.114  16.999  1.1497  0.9952 -0.9421
 4317TIP3   OH234441   2.445   2.776   1.857 -0.1057 -0.0007  0.0390
 4317TIP3    H134442   2.454   2.799   1.764 -0.2297 -1.3471 -0.3133
 4317TIP3    H234443   2.516   2.714   1.873 -0.2829 -0.0150  0.7768
 4318TIP3   OH234444   6.024   2.577   2.486 -0.4897 -0.2368  0.4853
 4318TIP3    H134445   5.985   2.607   2.568  1.1553  0.0339  1.1864
 4318TIP3    H234446   6.102   2.631   2.475 -1.0855  0.2594 -1.6708
 4319TIP3   OH234447   6.757   1.949  12.516 -0.0583  0.2950  0.4846
 4319TIP3    H134448   6.721   2.009  12.582 -1.4538 -0.8928  0.8361
 4319TIP3    H234449   6.732   1.989  12.432 -1.6141 -0.1342  0.7195
 4320TIP3   OH234450   4.325   2.546   0.197 -0.2938 -0.1137 -0.8136
 4320TIP3    H134451   4.408   2.569   0.238 -0.8346  0.1118  0.1770
 4320TIP3    H234452   4.283   2.487   0.261 -0.7118 -0.5535 -1.4908
 4321TIP3   OH234453   0.323   2.458  14.227  0.7268 -0.3544  0.4442
 4321TIP3    H134454   0.386   2.416  14.285  2.2056 -2.6113 -2.6354
 4321TIP3    H234455   0.373   2.528  14.185 -0.3316  1.2684  1.8482
 4322TIP3   OH234456   5.918   0.002   3.200 -0.1485  0.1247 -0.3227
 4322TIP3    H134457   5.841   0.038   3.243 -0.4595  0.4963 -1.1826
 4322TIP3    H234458   5.889  -0.082   3.163  0.1321 -0.2205  0.2261
 4323TIP3   OH234459   0.527   0.937   5.660  0.3465  0.0960 -0.5582
 4323TIP3    H134460   0.594   0.939   5.591  0.6697  3.0591 -0.2598
 4323TIP3    H234461   0.572   0.974   5.736 -1.2916  1.0455 -0.0405
 4324TIP3   OH234462   3.985   1.544  14.907 -0.2309 -0.2902  0.6129
 4324TIP3    H134463   4.074   1.513  14.925 -0.4453 -1.7706 -0.7764
 4324TIP3    H234464   3.998   1.626  14.860  0.4081 -0.6073  0.2220
 4325TIP3   OH234465   6.518   3.439  15.599 -0.5517  0.6151 -0.0989
 4325TIP3    H134466   6.504   3.373  15.667 -0.5721 -0.3549 -1.0230
 4325TIP3    H234467   6.431   3.476  15.582 -0.5107  1.0194  0.5495
 4326TIP3   OH234468   2.390   0.452  12.688  0.2320  0.2278  0.3628
 4326TIP3    H134469   2.387   0.502  12.606  0.6920 -0.3724 -0.0234
 4326TIP3    H234470   2.321   0.490  12.742  0.4678  1.1712  0.0046
 4327TIP3   OH234471   2.423   0.027   5.369  0.1352  0.0506 -0.2065
 4327TIP3    H134472   2.426   0.122   5.379 -0.8882  0.1800 -1.1109
 4327TIP3    H234473   2.409  -0.006   5.458  0.0883  0.7680  0.0524
 4328TIP3   OH234474   6.527   3.671   1.364 -0.2249 -0.1451 -0.1434
 4328TIP3    H134475   6.593   3.602   1.356 -0.5796 -0.4585 -0.3670
 4328TIP3    H234476   6.533   3.720   1.282 -1.4555 -1.2287 -0.9010
 4329TIP3   OH234477   4.365   0.562   3.822 -0.2096  0.8175  0.1347
 4329TIP3    H134478   4.443   0.507   3.833  0.3259  1.1375 -1.8466
 4329TIP3    H234479   4.399   0.643   3.783 -1.1507  2.0911  1.9174
 4330TIP3   OH234480   5.698   6.123   4.200 -0.0955 -0.2054  0.5225
 4330TIP3    H134481   5.639   6.137   4.125  1.6470  2.2433 -0.4665
 4330TIP3    H234482   5.736   6.037   4.184 -1.0231 -0.4500 -0.5003
 4331TIP3   OH234483   0.383   6.244   5.343 -0.7611 -0.3802 -0.3658
 4331TIP3    H134484   0.378   6.314   5.408 -0.1935 -0.1587 -0.5598
 4331TIP3    H234485   0.298   6.248   5.298 -1.8370 -1.6545  1.4812
 4332TIP3   OH234486   2.777   4.812  16.698 -0.2735 -0.6386 -0.3474
 4332TIP3    H134487   2.758   4.847  16.785 -0.5869  0.0992 -0.7118
 4332TIP3    H234488   2.742   4.878  16.637 -1.7361 -2.0376 -1.0476
 4333TIP3   OH234489   5.015   0.172  13.977 -0.5935  0.4340 -0.3326
 4333TIP3    H134490   5.023   0.157  13.883  1.2480  0.6952 -0.2350
 4333TIP3    H234491   5.058   0.097  14.018 -0.1333  1.0238  0.2848
 4334TIP3   OH234492   6.455   5.850  14.554 -0.5073  0.3550  0.1582
 4334TIP3    H134493   6.540   5.822  14.520 -1.9047 -1.4709 -2.0188
 4334TIP3    H234494   6.447   5.806  14.639  1.4048  1.9010  1.1777
 4335TIP3   OH234495   5.158   6.802  16.964  0.2644 -0.5217 -0.5850
 4335TIP3    H134496   5.174   6.828  17.055  1.4943  0.1864 -0.9776
 4335TIP3    H234497   5.212   6.724  16.952  1.2060  0.1849 -1.0837
 4336TIP3   OH234498   6.007   4.918  13.087 -0.5787 -0.1790 -0.1533
 4336TIP3    H134499   6.065   4.844  13.106 -0.4745 -0.7754 -2.6210
 4336TIP3    H234500   5.925   4.878  13.057 -1.3298  0.6890  0.7029
 4337TIP3   OH234501   3.405   5.787  12.243 -0.3551  0.0388  0.3248
 4337TIP3    H134502   3.487   5.816  12.282  0.1162 -0.8594  0.0188
 4337TIP3    H234503   3.427   5.764  12.153 -1.5454  2.5668 -0.6634
 4338TIP3   OH234504   5.337   0.907  17.242  0.4775 -0.7396 -0.0647
 4338TIP3    H134505   5.339   1.002  17.243  0.7763 -0.7015 -2.0776
 4338TIP3    H234506   5.361   0.881  17.331 -0.3888  1.0601  0.7126
 4339TIP3   OH234507   0.408   4.528   6.163  0.1107 -0.3184 -1.1437
 4339TIP3    H134508   0.408   4.567   6.076  2.5000 -0.8351 -1.4103
 4339TIP3    H234509   0.465   4.452   6.156  1.1344  0.1819  1.0782
 4340TIP3   OH234510   3.871   4.690  12.596 -0.2090  0.4582  0.4625
 4340TIP3    H134511   3.965   4.672  12.606  0.0455  1.3788 -0.1698
 4340TIP3    H234512   3.835   4.609  12.561  0.7637  0.8571 -1.5269
 4341TIP3   OH234513   2.981   4.916  13.017  0.0456  0.0805 -0.2014
 4341TIP3    H134514   3.010   4.863  13.091 -1.3587 -1.4582 -0.7493
 4341TIP3    H234515   2.937   4.855  12.958 -0.3425  1.5906 -1.5248
 4342TIP3   OH234516   5.666   1.379   0.865  0.4160 -0.1875  0.1106
 4342TIP3    H134517   5.750   1.422   0.850  0.0281  0.9263  1.0679
 4342TIP3    H234518   5.687   1.304   0.921  0.8616 -0.2723 -0.1705
 4343TIP3   OH234519   1.288   1.502   6.265 -0.6751  0.2935  0.0150
 4343TIP3    H134520   1.227   1.563   6.223  0.6311 -0.0431 -2.4249
 4343TIP3    H234521   1.343   1.470   6.194 -0.4059 -2.6711  1.4755
 4344TIP3   OH234522   4.202   0.325  16.062 -0.2572 -0.4986  0.5441
 4344TIP3    H134523   4.289   0.304  16.028 -0.9623 -0.6636 -1.2102
 4344TIP3    H234524   4.219   0.378  16.140  1.4129 -0.2719  0.0495
 4345TIP3   OH234525   1.539   6.616   0.798  0.3100  0.0387 -0.1922
 4345TIP3    H134526   1.549   6.547   0.733  2.2026 -1.0893  1.2226
 4345TIP3    H234527   1.507   6.571   0.876 -0.4115  1.1049  0.1297
 4346TIP3   OH234528   3.674   2.920  12.302 -0.9312  0.3301 -0.2202
 4346TIP3    H134529   3.678   2.826  12.320 -1.2304  0.1830 -0.9315
 4346TIP3    H234530   3.665   2.960  12.389  1.9808 -0.1252  0.3680
 4347TIP3   OH234531   0.994   2.660  14.001  0.1936  0.0282 -0.3924
 4347TIP3    H134532   0.961   2.574  13.978 -0.0206  0.4706 -1.7573
 4347TIP3    H234533   0.917   2.707  14.034  0.3708 -0.3901  0.6408
 4348TIP3   OH234534   3.514   5.267  14.119 -0.1685  0.0640 -0.4147
 4348TIP3    H134535   3.463   5.225  14.050 -0.2220 -2.5172  1.1128
 4348TIP3    H234536   3.601   5.229  14.112  0.0830  0.4842  0.3218
 4349TIP3   OH234537   4.383   4.190   2.322 -0.1951 -0.0638 -0.1534
 4349TIP3    H134538   4.478   4.202   2.326 -0.3719  1.2311  0.2860
 4349TIP3    H234539   4.347   4.268   2.364 -1.4642 -0.3466 -0.6999
 4350TIP3   OH234540   0.944   1.081  14.120  0.2321 -0.2719  0.5899
 4350TIP3    H134541   0.890   1.124  14.054  0.8768 -0.8130 -0.2984
 4350TIP3    H234542   0.916   1.120  14.203 -3.1449 -2.1678  0.4437
 4351TIP3   OH234543   3.017   5.010  16.584  0.0946 -0.4753 -0.2607
 4351TIP3    H134544   3.028   5.059  16.503 -2.7854 -1.5318 -1.3538
 4351TIP3    H234545   2.953   5.061  16.634 -1.9651 -2.3421 -0.8710
 4352TIP3   OH234546   0.695   2.829   2.461  0.2518 -0.0676  0.1344
 4352TIP3    H134547   0.708   2.762   2.394  0.9415 -1.0803  1.2618
 4352TIP3    H234548   0.628   2.792   2.519  0.2824  0.4321  0.4969
 4353TIP3   OH234549   6.382   4.692  14.447 -0.2688 -0.0110 -0.2478
 4353TIP3    H134550   6.329   4.772  14.449 -0.9537 -0.4504 -0.6456
 4353TIP3    H234551   6.335   4.631  14.503  0.2920 -0.1235  0.1090
 4354TIP3   OH234552   3.777   5.212   2.542 -0.1449 -0.6968 -0.1654
 4354TIP3    H134553   3.832   5.284   2.512  0.0076 -1.2557 -1.2621
 4354TIP3    H234554   3.782   5.216   2.637 -0.6597  1.1211 -0.2092
 4355TIP3   OH234555   1.786   0.203  15.102 -0.1963 -0.0370 -0.3174
 4355TIP3    H134556   1.836   0.262  15.046  0.5016 -0.2365  0.0883
 4355TIP3    H234557   1.851   0.141  15.135 -0.2416  1.2650  2.2930
 4356TIP3   OH234558   6.231   4.872  10.711 -0.1726 -0.1330  0.7878
 4356TIP3    H134559   6.247   4.839  10.623 -2.1479 -0.4877  0.5379
 4356TIP3    H234560   6.177   4.950  10.698  1.1817  0.9635  1.5890
 4357TIP3   OH234561   3.332   2.267  11.841  0.7064 -0.0862  0.0966
 4357TIP3    H134562   3.391   2.195  11.821  0.4998 -0.0949 -0.4852
 4357TIP3    H234563   3.314   2.308  11.756 -2.3878 -1.8401 -0.1630
 4358TIP3   OH234564   6.766   0.440  16.431 -0.9230 -0.1494  0.0254
 4358TIP3    H134565   6.788   0.399  16.348 -2.0701 -1.8199  0.5119
 4358TIP3    H234566   6.678   0.407  16.452 -1.9658  2.6802  0.3802
 4359TIP3   OH234567   6.289   1.148  16.471  0.7064  0.0518  0.0227
 4359TIP3    H134568   6.248   1.200  16.401 -1.6779 -0.3572  1.0496
 4359TIP3    H234569   6.317   1.213  16.536 -0.6354  0.2024  0.4717
 4360TIP3   OH234570   2.246   6.546  16.164  0.3411 -0.0953 -0.2721
 4360TIP3    H134571   2.256   6.641  16.155 -0.4380 -0.0950 -1.1565
 4360TIP3    H234572   2.231   6.515  16.075 -1.4692 -0.8009  0.2621
 4361TIP3   OH234573   0.292   1.389  15.862 -0.4576 -0.3563  0.0243
 4361TIP3    H134574   0.333   1.459  15.812  0.8006 -0.6102  0.6810
 4361TIP3    H234575   0.284   1.317  15.800  0.6610 -0.5100  0.0532
 4362TIP3   OH234576   6.180   5.023   3.127  0.3682  0.3439 -0.1863
 4362TIP3    H134577   6.217   5.074   3.199  0.9060  0.4384 -0.5257
 4362TIP3    H234578   6.233   5.047   3.051 -0.2225  0.2750 -0.6196
 4363TIP3   OH234579   6.544   2.189   1.244  0.1313  0.5446 -0.0361
 4363TIP3    H134580   6.572   2.278   1.266  0.1217  0.4163  0.5029
 4363TIP3    H234581   6.587   2.134   1.309 -0.5703  0.2431  0.1741
 4364TIP3   OH234582   1.721   2.678   2.134 -0.1224 -0.2908  0.6789
 4364TIP3    H134583   1.666   2.694   2.211  1.2472  2.4713  1.1676
 4364TIP3    H234584   1.673   2.719   2.062 -0.9148 -1.9828  0.2265
 4365TIP3   OH234585   4.389   4.392  14.575 -0.5001 -0.1055  0.3814
 4365TIP3    H134586   4.454   4.385  14.505  1.0766 -1.1624  1.9225
 4365TIP3    H234587   4.405   4.479  14.613 -1.4110  0.5031 -0.5965
 4366TIP3   OH234588   3.617   2.136   3.199  0.1695 -0.4574 -0.1437
 4366TIP3    H134589   3.616   2.076   3.125 -0.4173  0.2286 -0.7061
 4366TIP3    H234590   3.677   2.206   3.173 -2.5001  1.4663 -1.3759
 4367TIP3   OH234591   1.662   2.766   3.338  0.1877 -0.3645  0.3964
 4367TIP3    H134592   1.593   2.706   3.367 -0.4000 -0.0593 -0.3694
 4367TIP3    H234593   1.634   2.852   3.369  0.5641 -0.3397  0.6720
 4368TIP3   OH234594   2.587   6.565   5.457  0.4077 -0.3657  0.2429
 4368TIP3    H134595   2.631   6.603   5.381  0.4157 -1.7427 -0.4549
 4368TIP3    H234596   2.495   6.586   5.444  0.2661 -1.5707 -0.7329
 4369TIP3   OH234597   1.355   6.425  11.883  0.4075 -0.0173 -0.2580
 4369TIP3    H134598   1.412   6.419  11.959  2.2880  2.4278 -1.4348
 4369TIP3    H234599   1.266   6.428  11.920  1.2819  0.9526  1.8250
 4370TIP3   OH234600   5.058   1.120   0.907 -0.1805 -0.1276  0.6048
 4370TIP3    H134601   5.076   1.066   0.831  1.0920 -1.3474  1.7350
 4370TIP3    H234602   4.976   1.164   0.888 -0.1292 -0.8250 -1.2363
 4371TIP3   OH234603   0.012   1.658   1.210  0.3232  0.1932 -0.3647
 4371TIP3    H134604  -0.063   1.626   1.259 -0.3743  0.5651 -1.1886
 4371TIP3    H234605   0.083   1.598   1.235 -0.4822 -0.7863 -0.3767
 4372TIP3   OH234606   4.410   3.702  12.544  0.7220 -0.1930 -0.1353
 4372TIP3    H134607   4.472   3.743  12.604 -0.2914  0.3395  0.5641
 4372TIP3    H234608   4.357   3.646  12.599  0.3988 -0.4343 -0.6855
 4373TIP3   OH234609   6.106   3.644  15.962  0.2369 -0.1726  0.4342
 4373TIP3    H134610   6.187   3.674  16.003  0.8182  1.8141 -2.0156
 4373TIP3    H234611   6.036   3.682  16.014  0.9079  0.2465  1.0358
 4374TIP3   OH234612   1.839   3.304   2.728  0.4940 -0.3788  0.4900
 4374TIP3    H134613   1.800   3.390   2.715 -0.1538 -0.4082  2.0685
 4374TIP3    H234614   1.894   3.290   2.651  0.7683  1.5372  0.3174
 4375TIP3   OH234615   5.343   0.247   5.393  0.0148 -0.3393  0.1842
 4375TIP3    H134616   5.308   0.326   5.434 -0.2083 -0.2330 -0.2101
 4375TIP3    H234617   5.432   0.271   5.367 -0.1797 -0.1002 -0.2667
 4376TIP3   OH234618   2.684   3.699   1.271 -0.3675 -0.2256 -0.1587
 4376TIP3    H134619   2.659   3.789   1.253 -1.3479 -0.4170  0.2311
 4376TIP3    H234620   2.773   3.705   1.306 -0.7670  0.6816  0.7302
 4377TIP3   OH234621   1.698   5.057   0.946  0.3156  0.3098  0.4648
 4377TIP3    H134622   1.719   5.148   0.969 -0.3665  0.1031  2.0138
 4377TIP3    H234623   1.678   5.016   1.030 -0.6173 -0.9568 -0.3601
 4378TIP3   OH234624   5.704   2.950  17.019 -0.2508  0.0504 -0.0288
 4378TIP3    H134625   5.645   2.952  17.095 -0.0007  3.1028  0.1626
 4378TIP3    H234626   5.671   2.879  16.965 -2.1555 -0.3726  1.6120
 4379TIP3   OH234627   1.502   1.861  15.142 -0.3993  0.1477  0.1100
 4379TIP3    H134628   1.508   1.775  15.184 -0.4592 -0.2610 -0.7009
 4379TIP3    H234629   1.592   1.883  15.119 -0.4465  0.0419 -0.1841
 4380TIP3   OH234630   6.050   0.543  12.994  0.1889 -0.3876 -0.1125
 4380TIP3    H134631   6.120   0.485  12.966  1.3228  0.4612  0.9415
 4380TIP3    H234632   6.061   0.621  12.939  0.8336  0.2345  0.8755
 4381TIP3   OH234633   0.419   5.072  14.838  0.5952 -0.0917 -0.1602
 4381TIP3    H134634   0.388   4.985  14.866 -1.0815  1.0181  1.5170
 4381TIP3    H234635   0.346   5.109  14.789  0.9576  0.7777 -0.0500
 4382TIP3   OH234636   0.727   1.480   1.868  0.2434  0.4549 -0.1991
 4382TIP3    H134637   0.634   1.476   1.849  0.6052 -0.6652 -1.8311
 4382TIP3    H234638   0.740   1.422   1.942 -0.2822  0.2430 -0.2777
 4383TIP3   OH234639   0.217   3.613   0.025 -0.2036  0.4549 -0.0785
 4383TIP3    H134640   0.154   3.629  -0.045 -0.8333 -0.8605  0.1815
 4383TIP3    H234641   0.267   3.538  -0.006 -0.2781  0.0699  0.7497
 4384TIP3   OH234642   6.595   5.015  16.657 -0.0859 -0.4144  0.0375
 4384TIP3    H134643   6.581   4.999  16.750  2.9634  0.4306  0.7102
 4384TIP3    H234644   6.588   4.928  16.617  0.6440 -1.1096  1.3632
 4385TIP3   OH234645   4.504   3.835  14.717 -0.4955 -0.6301  0.0288
 4385TIP3    H134646   4.514   3.846  14.622  2.0950 -3.1041 -0.0583
 4385TIP3    H234647   4.420   3.791  14.728 -1.5864  1.1664 -0.9840
 4386TIP3   OH234648   3.846   0.439   5.696  0.3153 -0.2574 -0.2537
 4386TIP3    H134649   3.940   0.456   5.686  0.3964 -0.2182  0.5477
 4386TIP3    H234650   3.831   0.441   5.790 -0.9396  2.1062 -0.4844
 4387TIP3   OH234651   0.916   6.253  13.843  0.5543  0.2556  0.4088
 4387TIP3    H134652   1.002   6.294  13.832  1.2598 -1.1973  0.3790
 4387TIP3    H234653   0.882   6.244  13.754  0.9426 -0.3375  0.3137
 4388TIP3   OH234654   3.719   4.325   1.589 -0.2105 -0.2188  0.3664
 4388TIP3    H134655   3.653   4.362   1.647 -1.0328  0.4919 -0.9845
 4388TIP3    H234656   3.705   4.230   1.595  0.6789 -0.2391  2.4147
 4389TIP3   OH234657   3.215   1.325  12.595 -0.2550  0.4764  0.4587
 4389TIP3    H134658   3.307   1.307  12.574 -0.4778  1.0976 -1.1201
 4389TIP3    H234659   3.192   1.260  12.661  1.3402  0.3572  0.9075
 4390TIP3   OH234660   3.501   0.327   3.355 -0.2555  0.0904 -0.0235
 4390TIP3    H134661   3.507   0.240   3.316 -0.2529 -0.3013  0.8361
 4390TIP3    H234662   3.509   0.311   3.449 -1.5436  0.8966  0.2231
 4391TIP3   OH234663   2.437   0.035  13.937  0.4918 -0.0215 -0.7164
 4391TIP3    H134664   2.345   0.009  13.932 -0.3827  2.4957  1.2060
 4391TIP3    H234665   2.454   0.080  13.855 -0.5539  1.0908 -0.3499
 4392TIP3   OH234666   0.531   0.019  16.956 -0.0948  0.2046  0.0623
 4392TIP3    H134667   0.544  -0.072  16.985  1.1344  0.4938  0.4868
 4392TIP3    H234668   0.564   0.020  16.866 -1.3773 -0.0750 -0.4185
 4393TIP3   OH234669   4.563   3.099   5.089  0.1551 -0.0609  0.7594
 4393TIP3    H134670   4.563   3.185   5.131  0.7157 -0.1819  1.0061
 4393TIP3    H234671   4.655   3.074   5.085  0.3529  1.0246 -2.8419
 4394TIP3   OH234672   4.934   0.904   4.586  0.3103  0.3555  0.4627
 4394TIP3    H134673   4.952   0.821   4.543 -1.1391 -1.3933  3.0833
 4394TIP3    H234674   4.936   0.969   4.516  0.0446 -2.0745 -1.8582
 4395TIP3   OH234675   4.702   1.111  11.861 -0.9560  0.0646 -0.2318
 4395TIP3    H134676   4.728   1.153  11.942 -1.2759  0.7735 -0.4919
 4395TIP3    H234677   4.622   1.157  11.834 -0.5069  0.2605 -1.2712
 4396TIP3   OH234678   5.001   4.785   5.896 -0.1586  0.0741  0.0490
 4396TIP3    H134679   4.928   4.733   5.861 -1.1893  0.6989  1.2260
 4396TIP3    H234680   5.066   4.720   5.921  0.5281 -0.4024 -2.7974
 4397TIP3   OH234681   5.371   2.301  15.805  0.7423  0.0717  0.0698
 4397TIP3    H134682   5.438   2.369  15.806 -0.9721  1.8166  0.5753
 4397TIP3    H234683   5.413   2.226  15.764  1.9699  2.1966 -2.7694
 4398TIP3   OH234684   3.712   1.365   2.767  0.4262 -0.1054  0.5875
 4398TIP3    H134685   3.791   1.355   2.713 -0.7871 -0.1658 -1.2228
 4398TIP3    H234686   3.734   1.321   2.849  2.0870 -0.6070 -0.0940
 4399TIP3   OH234687   1.152   0.940  16.391 -0.5491 -0.0743  0.3367
 4399TIP3    H134688   1.232   0.934  16.339 -1.0718  0.4332 -0.5214
 4399TIP3    H234689   1.129   0.849  16.410  0.3676 -0.2173  0.7988
 4400TIP3   OH234690   2.039   4.300  13.573  0.1587  0.3644 -0.5278
 4400TIP3    H134691   2.097   4.343  13.635  1.5715 -1.0138 -0.8411
 4400TIP3    H234692   2.060   4.340  13.488 -0.0676  0.5566 -0.4957
 4401TIP3   OH234693   5.611   5.929  14.633 -0.0921  0.2688  0.1385
 4401TIP3    H134694   5.646   5.975  14.557 -1.2318  1.4751  0.3170
 4401TIP3    H234695   5.646   5.976  14.708  0.5533 -0.5580  0.3632
 4402TIP3   OH234696   2.215   1.067   2.636 -0.1734 -0.1652 -0.1455
 4402TIP3    H134697   2.177   1.114   2.561  1.1062 -1.3687 -1.5644
 4402TIP3    H234698   2.164   0.986   2.642 -0.7388  0.2469  0.7476
 4403TIP3   OH234699   1.842   5.975   2.371  0.7179  0.4160  0.2102
 4403TIP3    H134700   1.831   6.067   2.348 -1.4437  0.0835 -0.2160
 4403TIP3    H234701   1.858   5.931   2.287  4.3161  0.6823  0.6619
 4404TIP3   OH234702   3.043   3.975   5.328  0.0488  0.2557 -0.9428
 4404TIP3    H134703   3.014   4.065   5.341  1.2513  0.8283 -2.0724
 4404TIP3    H234704   3.112   3.962   5.393 -1.7079 -0.6363  0.7850
 4405TIP3   OH234705   2.456   4.528  10.788  0.2805 -0.2023  0.4017
 4405TIP3    H134706   2.395   4.598  10.767  0.3750 -0.4327 -0.6862
 4405TIP3    H234707   2.485   4.495  10.702 -0.3600 -2.0781  0.8771
 4406TIP3   OH234708   6.299   1.951   4.473 -0.2391 -0.1129  0.3628
 4406TIP3    H134709   6.284   1.867   4.430  0.7892  0.5931 -1.4591
 4406TIP3    H234710   6.353   1.930   4.549 -1.5035 -1.3080  0.9323
 4407TIP3   OH234711   5.018   0.735  13.766  0.0933  0.2091  0.0540
 4407TIP3    H134712   5.067   0.783  13.832  0.6483  2.4522 -1.9181
 4407TIP3    H234713   4.970   0.802  13.718 -0.7042 -1.4122 -1.4948
 4408TIP3   OH234714   2.885   1.903  16.247 -0.0634  0.2675 -0.5624
 4408TIP3    H134715   2.912   1.912  16.339  2.0868 -0.6928 -1.0597
 4408TIP3    H234716   2.861   1.992  16.220  2.0727  1.0852  0.1161
 4409TIP3   OH234717   4.512   2.694   1.153 -0.5539  0.2250  0.2420
 4409TIP3    H134718   4.483   2.605   1.132  2.3520 -0.7437  0.1892
 4409TIP3    H234719   4.495   2.704   1.247 -0.1815 -0.6456  0.4010
 4410TIP3   OH234720   0.913   4.228  12.329  0.3490 -0.9641 -0.4104
 4410TIP3    H134721   0.937   4.226  12.422  2.3347  1.6966 -0.8047
 4410TIP3    H234722   0.856   4.152  12.317  0.3691 -1.5647  2.8925
 4411TIP3   OH234723   4.652   4.001  11.847 -0.0300 -0.0013  0.6455
 4411TIP3    H134724   4.571   3.957  11.820  0.6383 -0.8972  0.1048
 4411TIP3    H234725   4.650   4.085  11.801 -0.2996 -0.3205  0.0662
 4412TIP3   OH234726   2.592   2.667   3.459  0.0920  0.1202 -0.3810
 4412TIP3    H134727   2.590   2.682   3.364 -0.8642  0.0884 -0.3681
 4412TIP3    H234728   2.580   2.572   3.468 -0.8740  0.2526 -0.1946
 4413TIP3   OH234729   0.097   6.345  11.736 -0.0963  0.4038  0.3563
 4413TIP3    H134730   0.186   6.344  11.770  0.2650  0.9476 -0.5738
 4413TIP3    H234731   0.061   6.430  11.765  0.3169  1.0088 -0.8640
 4414TIP3   OH234732   2.051   2.851   5.950  0.1495 -0.5250 -0.7201
 4414TIP3    H134733   2.122   2.870   6.012 -0.4836  0.2674 -0.2253
 4414TIP3    H234734   1.973   2.844   6.005 -0.4152  0.1815 -1.4177
 4415TIP3   OH234735   4.194   0.153   0.501  0.4642  0.2627 -0.2028
 4415TIP3    H134736   4.198   0.062   0.471  0.4135 -0.2526  1.3413
 4415TIP3    H234737   4.282   0.187   0.484  0.6617 -0.2469 -0.2081
 4416TIP3   OH234738   0.286   0.086  13.835 -0.8769  0.2650  0.4613
 4416TIP3    H134739   0.190   0.088  13.831 -0.8996  0.1275  0.9697
 4416TIP3    H234740   0.306   0.076  13.928 -0.3325  3.2706  0.7166
 4417TIP3   OH234741   6.087   5.189  10.956  0.4033 -0.1422  0.7384
 4417TIP3    H134742   6.025   5.242  10.906  0.7472  0.6574  1.1459
 4417TIP3    H234743   6.032   5.134  11.012 -0.0204 -1.7129 -1.1389
 4418TIP3   OH234744   0.794   6.114   4.697  0.2748 -0.7861 -0.4838
 4418TIP3    H134745   0.760   6.132   4.609 -0.5861  1.3989  0.2697
 4418TIP3    H234746   0.718   6.088   4.748  0.2632  0.7728  0.3302
 4419TIP3   OH234747   5.898   6.036   6.747  0.8514  0.4177  0.5791
 4419TIP3    H134748   5.965   5.972   6.725  1.1017  0.8811  0.0080
 4419TIP3    H234749   5.822   5.982   6.772  1.2186 -0.1003  0.5978
 4420TIP3   OH234750   5.446   1.140  12.579 -0.4857 -0.0691 -0.5339
 4420TIP3    H134751   5.515   1.203  12.602 -1.4207  0.6090  0.4410
 4420TIP3    H234752   5.406   1.117  12.662  0.4341 -2.6935 -0.7772
 4421TIP3   OH234753   2.210   6.571  14.639 -0.1425 -0.1781 -0.5001
 4421TIP3    H134754   2.298   6.538  14.623  0.2465 -0.1762  1.4946
 4421TIP3    H234755   2.184   6.613  14.557  1.6430 -0.3077 -1.1368
 4422TIP3   OH234756   3.482   1.349   0.729 -0.3440 -0.2422 -0.3073
 4422TIP3    H134757   3.548   1.417   0.740  0.0669 -0.9652  1.7647
 4422TIP3    H234758   3.399   1.398   0.724  0.0167  0.4654  0.4648
 4423TIP3   OH234759   0.817   6.033   5.341 -0.2785 -0.3597 -0.1324
 4423TIP3    H134760   0.828   6.028   5.436  0.8202  2.7919 -0.0336
 4423TIP3    H234761   0.852   5.951   5.309 -2.5790 -2.4025  2.3015
 4424TIP3   OH234762   1.312   4.198  12.141 -0.3840  0.3020  0.7017
 4424TIP3    H134763   1.253   4.188  12.215 -1.1689  0.2269  0.0708
 4424TIP3    H234764   1.288   4.282  12.102  0.2449  0.4949  0.7234
 4425TIP3   OH234765   6.015   2.756   4.993 -0.0475  0.5411 -0.1307
 4425TIP3    H134766   5.986   2.820   5.058  0.8863  0.7426  0.1042
 4425TIP3    H234767   6.111   2.762   4.995  0.0389 -0.6105 -0.3622
 4426TIP3   OH234768   1.535   2.503  12.335 -0.2179  0.2702 -0.4944
 4426TIP3    H134769   1.457   2.460  12.369 -1.5102  0.9420 -2.5574
 4426TIP3    H234770   1.507   2.592  12.317  1.0431  0.5222 -1.2159
 4427TIP3   OH234771   1.168   1.427  13.988 -0.1614 -0.1252  0.3739
 4427TIP3    H134772   1.220   1.484  13.931 -0.5604 -0.2133 -0.0790
 4427TIP3    H234773   1.230   1.363  14.022 -0.1613 -0.8124 -0.9161
 4428TIP3   OH234774   6.026   5.653   5.747  0.4567  0.0680  0.2862
 4428TIP3    H134775   5.974   5.607   5.681 -0.4768  1.1174  0.2746
 4428TIP3    H234776   6.067   5.725   5.699 -0.8026  1.2652  0.9771
 4429TIP3   OH234777   2.518   1.904  12.638 -0.1519  0.0552  0.0022
 4429TIP3    H134778   2.568   1.878  12.561 -1.0156  0.5436 -0.7332
 4429TIP3    H234779   2.429   1.873  12.621  0.0328 -1.4526  1.6254
 4430TIP3   OH234780   2.488   5.795  16.650 -0.0837 -0.1092 -0.0727
 4430TIP3    H134781   2.502   5.804  16.556  0.6190  0.1413  0.0528
 4430TIP3    H234782   2.394   5.776  16.659 -0.5963  1.9692 -0.6841
 4431TIP3   OH234783   1.908   4.748   2.993 -0.0294  0.1575 -0.2189
 4431TIP3    H134784   1.966   4.730   3.067 -1.2087 -1.5958  0.3310
 4431TIP3    H234785   1.837   4.800   3.030 -0.9704 -1.2884  0.0773
 4432TIP3   OH234786   3.227   0.438  11.296  0.6022 -0.1046  0.7242
 4432TIP3    H134787   3.229   0.347  11.328  0.0291 -1.6894 -3.3749
 4432TIP3    H234788   3.299   0.442  11.233  1.4503  2.7433  1.8140
 4433TIP3   OH234789   6.499   1.817   0.315  0.1214  0.2838 -0.5653
 4433TIP3    H134790   6.503   1.900   0.268 -0.7348  0.7368  0.1294
 4433TIP3    H234791   6.557   1.829   0.390 -0.8531  0.6723  0.1442
 4434TIP3   OH234792   2.837   3.597   0.128 -0.7838 -0.5066 -0.3264
 4434TIP3    H134793   2.786   3.614   0.048 -1.3673  1.8659  0.5187
 4434TIP3    H234794   2.813   3.508   0.153 -3.5233  0.1175 -0.6601
 4435TIP3   OH234795   0.681   4.134  11.775  0.7475 -0.1248  0.2681
 4435TIP3    H134796   0.756   4.086  11.811 -1.9373 -2.2573  3.2564
 4435TIP3    H234797   0.660   4.088  11.694  1.1294 -1.1241  0.7224
 4436TIP3   OH234798   1.135   0.136   2.360 -0.2151  0.1816  0.0809
 4436TIP3    H134799   1.104   0.131   2.270 -0.2678  0.5628  0.0768
 4436TIP3    H234800   1.224   0.169   2.354 -1.5359  4.0318  0.3833
 4437TIP3   OH234801   6.377   6.125   3.123 -0.2653 -0.0861 -0.1894
 4437TIP3    H134802   6.434   6.163   3.056 -0.9274 -0.8850 -1.2290
 4437TIP3    H234803   6.377   6.031   3.103  0.0049 -0.4053  1.3000
 4438TIP3   OH234804   6.154   3.618  13.598 -0.0996  1.5600  0.0031
 4438TIP3    H134805   6.161   3.642  13.506  0.2022  0.8896 -0.1545
 4438TIP3    H234806   6.094   3.543  13.598 -0.2314  1.6628  0.3728
 4439TIP3   OH234807   5.752   3.308  11.102  0.2193  0.4078  0.0498
 4439TIP3    H134808   5.703   3.389  11.117  1.1472  0.9925 -0.0341
 4439TIP3    H234809   5.710   3.243  11.159 -1.2985  0.6421 -0.8112
 4440TIP3   OH234810   3.833   3.207   2.119  0.6412  0.3309 -0.4234
 4440TIP3    H134811   3.796   3.158   2.192  0.7524 -0.3333 -0.8059
 4440TIP3    H234812   3.918   3.166   2.102  0.5301  0.3545 -1.0525
 4441TIP3   OH234813   5.093   4.202   4.721  0.3021 -0.2073 -0.1981
 4441TIP3    H134814   5.075   4.182   4.630 -0.7848 -0.5005  0.0803
 4441TIP3    H234815   5.188   4.193   4.729  0.3410 -0.7027 -1.1686
 4442TIP3   OH234816   6.387   3.991   0.319 -0.4626  0.2908 -0.0961
 4442TIP3    H134817   6.302   4.000   0.277 -0.5034 -0.7441 -0.2624
 4442TIP3    H234818   6.430   3.919   0.271  0.9381  1.5127 -0.7334
 4443TIP3   OH234819   1.853   5.621   2.393 -0.6348  0.2317  0.2262
 4443TIP3    H134820   1.889   5.687   2.452 -1.4982  1.1480 -0.2684
 4443TIP3    H234821   1.763   5.609   2.423 -0.9308  0.3590 -0.6127
 4444TIP3   OH234822   3.166   5.978   2.326 -0.0109  0.0085  0.6889
 4444TIP3    H134823   3.234   6.040   2.299 -0.7379 -0.3056 -1.9707
 4444TIP3    H234824   3.099   6.034   2.367  0.7219  0.6043  1.0944
 4445TIP3   OH234825   6.421   4.796   3.628 -0.7011 -0.1694 -0.8214
 4445TIP3    H134826   6.333   4.770   3.655 -1.2146  1.3139 -1.0068
 4445TIP3    H234827   6.407   4.866   3.564  0.6363  1.5703  0.7356
 4446TIP3   OH234828   6.045   0.112  14.967  0.1654  0.1619 -0.5944
 4446TIP3    H134829   6.092   0.175  14.911  1.4948  0.1021  0.4279
 4446TIP3    H234830   6.110   0.043  14.985 -0.1816  0.2736  1.1678
 4447TIP3   OH234831   0.841   6.134  15.143 -0.4336 -0.3943 -0.3431
 4447TIP3    H134832   0.921   6.102  15.187 -1.7447 -2.4226  0.6412
 4447TIP3    H234833   0.817   6.213  15.191  0.0327 -0.7271  0.4438
 4448TIP3   OH234834   4.396   6.725  16.426  0.1596  0.2824  0.6027
 4448TIP3    H134835   4.403   6.695  16.335 -1.3777  0.6468  0.3479
 4448TIP3    H234836   4.306   6.756  16.434  0.2507  0.1574  2.2883
 4449TIP3   OH234837   4.829   6.239  10.253  0.7585  0.1551  0.2619
 4449TIP3    H134838   4.904   6.225  10.195  1.1099 -0.1815  0.7941
 4449TIP3    H234839   4.810   6.332  10.245 -0.0481 -0.1314 -1.4246
 4450TIP3   OH234840   3.269   4.777  13.661 -0.3350 -1.1439 -0.1838
 4450TIP3    H134841   3.286   4.683  13.662  0.8746 -0.9208  0.4593
 4450TIP3    H234842   3.354   4.817  13.644 -0.6776 -0.1245  0.4516
 4451TIP3   OH234843   3.106   5.455   1.465  0.8454  0.0204  0.1263
 4451TIP3    H134844   3.086   5.363   1.487  0.7515  0.3967  1.7022
 4451TIP3    H234845   3.201   5.458   1.461  0.8043 -0.5830 -1.9945
 4452TIP3   OH234846   6.338   4.916   4.764 -0.2381 -0.0276 -0.2018
 4452TIP3    H134847   6.338   4.854   4.691 -0.3752 -0.9279  0.5549
 4452TIP3    H234848   6.291   4.993   4.731 -0.7072 -0.6144 -0.8979
 4453TIP3   OH234849   4.789   6.258   5.294  0.1945  0.1833 -0.3759
 4453TIP3    H134850   4.812   6.179   5.342 -0.5713  1.1080  1.5696
 4453TIP3    H234851   4.698   6.244   5.267 -0.0732  0.5451  0.3156
 4454TIP3   OH234852   3.584   5.875  11.612  0.1024 -0.8187 -0.1346
 4454TIP3    H134853   3.569   5.815  11.540 -1.0037 -0.3479 -0.3115
 4454TIP3    H234854   3.497   5.905  11.637  0.3882 -1.6840  2.0111
 4455TIP3   OH234855   2.061   3.476   1.115 -0.3718  0.6209 -0.5035
 4455TIP3    H134856   2.063   3.382   1.101  0.6838  0.3852  1.0103
 4455TIP3    H234857   2.140   3.509   1.071 -0.9695  0.8684 -1.4070
 4456TIP3   OH234858   5.136   1.352  17.219  0.2752  0.1951 -0.0691
 4456TIP3    H134859   5.205   1.360  17.285 -0.2755 -0.0973  0.5517
 4456TIP3    H234860   5.115   1.258  17.218  1.4153 -0.0611 -1.8488
 4457TIP3   OH234861   6.444   1.580   1.006 -0.2992 -0.4052 -0.4399
 4457TIP3    H134862   6.430   1.500   0.954  1.2038 -0.6424 -0.5015
 4457TIP3    H234863   6.530   1.568   1.046 -0.1496  1.1008 -0.2864
 4458TIP3   OH234864   5.684   3.422   0.486 -0.3157 -0.3350 -0.2634
 4458TIP3    H134865   5.610   3.368   0.459 -0.3234 -0.2224 -0.4693
 4458TIP3    H234866   5.710   3.469   0.407  1.6583 -2.3673 -0.8702
 4459TIP3   OH234867   4.017   6.687   5.897  0.4629  0.4666  0.4907
 4459TIP3    H134868   4.057   6.636   5.967  0.7406  0.1342  0.0930
 4459TIP3    H234869   3.935   6.719   5.935  0.3058 -0.2395  0.7618
 4460TIP3   OH234870   1.711   6.204  14.589  0.1188 -0.5861  0.3500
 4460TIP3    H134871   1.697   6.212  14.683 -0.5370 -1.4686  0.3358
 4460TIP3    H234872   1.802   6.178  14.580 -0.6912 -3.7987  0.9247
 4461TIP3   OH234873   5.144   0.049   0.381  0.4787 -0.2897  0.1220
 4461TIP3    H134874   5.087   0.050   0.458 -0.5972  0.4973 -0.6629
 4461TIP3    H234875   5.136   0.137   0.345  0.6358 -0.7920 -1.1384
 4462TIP3   OH234876   1.707   4.431   1.840 -0.7304 -0.2336  0.4793
 4462TIP3    H134877   1.634   4.376   1.813  0.0654 -1.6024  1.0893
 4462TIP3    H234878   1.667   4.496   1.898 -1.3190 -1.5787  1.6117
 4463TIP3   OH234879   6.548   5.093   1.265 -0.0430 -0.3063 -0.1941
 4463TIP3    H134880   6.582   5.179   1.291  3.1709 -2.0413  1.6219
 4463TIP3    H234881   6.550   5.041   1.346 -0.2502 -2.6053 -1.6286
 4464TIP3   OH234882   3.979   2.708  15.339 -0.0876 -0.4729  0.1492
 4464TIP3    H134883   3.946   2.642  15.400 -0.6371  0.5413  0.9768
 4464TIP3    H234884   3.902   2.737  15.290  0.4418 -1.6716 -1.4377
 4465TIP3   OH234885   1.395   3.526  12.272  0.0629 -0.2105  0.4284
 4465TIP3    H134886   1.408   3.432  12.285  0.2467 -0.1646  0.5678
 4465TIP3    H234887   1.375   3.534  12.178 -2.7643 -0.7241  0.9146
 4466TIP3   OH234888   2.981   2.673   4.065 -0.2275 -0.6344 -0.3864
 4466TIP3    H134889   3.037   2.743   4.031 -0.4818 -0.8345 -1.2472
 4466TIP3    H234890   3.030   2.592   4.045 -0.7223 -0.7970 -0.9480
 4467TIP3   OH234891   3.297   5.991  15.842  0.3486 -0.4419 -0.1308
 4467TIP3    H134892   3.233   5.933  15.884  0.5618  0.1998  1.0893
 4467TIP3    H234893   3.292   5.968  15.749  0.3289 -2.3245  0.3123
 4468TIP3   OH234894   0.152   0.134  14.690 -0.4735 -0.3945 -0.1401
 4468TIP3    H134895   0.094   0.190  14.742  0.6047 -0.0944  0.7586
 4468TIP3    H234896   0.125   0.149  14.599 -1.6519 -0.0932  0.2524
 4469TIP3   OH234897   6.369   3.341  14.269 -0.6325 -0.2421  0.3850
 4469TIP3    H134898   6.364   3.313  14.360 -2.0867 -1.1689  0.0333
 4469TIP3    H234899   6.298   3.404  14.259 -0.6173 -0.3094 -0.1678
 4470TIP3   OH234900   0.464   3.983  15.384  0.2038 -0.3711 -0.4599
 4470TIP3    H134901   0.423   3.906  15.423  1.3824  0.1128  1.8089
 4470TIP3    H234902   0.401   4.054  15.399 -0.6428 -0.7556 -2.0793
 4471TIP3   OH234903   2.299   3.464   0.981 -0.1342 -0.1414 -0.5799
 4471TIP3    H134904   2.316   3.372   1.003 -0.4624  0.3982  2.0333
 4471TIP3    H234905   2.386   3.504   0.978 -0.1996  0.3152  2.3303
 4472TIP3   OH234906   1.715   0.934   3.791  0.1343 -0.0775 -0.0129
 4472TIP3    H134907   1.810   0.937   3.797  0.1898 -0.3366 -0.7189
 4472TIP3    H234908   1.697   0.897   3.704 -0.6105  0.6424 -0.1770
 4473TIP3   OH234909   0.977   2.128  13.885 -0.1404 -0.0729 -0.2955
 4473TIP3    H134910   0.968   2.135  13.790  1.2440 -2.5264 -0.6251
 4473TIP3    H234911   1.046   2.064  13.899 -0.5142  0.0389  2.3818
 4474TIP3   OH234912   5.982   1.047   5.162 -0.6652  0.1785 -0.2739
 4474TIP3    H134913   6.002   1.068   5.253 -0.0587 -0.2636 -0.3007
 4474TIP3    H234914   5.887   1.036   5.160 -0.7572  0.8539  0.1659
 4475TIP3   OH234915   4.663   5.245  12.276 -0.0197 -0.4714 -0.3259
 4475TIP3    H134916   4.624   5.333  12.280  0.4071 -0.3204  0.5697
 4475TIP3    H234917   4.729   5.245  12.345  0.3449 -1.3283 -0.6700
 4476TIP3   OH234918   4.931   3.775  14.154 -0.2484 -0.8615  0.3640
 4476TIP3    H134919   4.953   3.842  14.218  0.8770 -0.3697 -0.5229
 4476TIP3    H234920   4.927   3.822  14.070 -1.7689 -1.4823  0.0637
 4477TIP3   OH234921   2.493   0.799   3.435 -0.1339  0.2297 -0.1152
 4477TIP3    H134922   2.433   0.743   3.386 -0.4327  0.6336 -0.2160
 4477TIP3    H234923   2.526   0.862   3.370 -0.0604  0.3834  0.0689
 4478TIP3   OH234924   1.003   5.988  11.680  0.5209  0.1330  0.2226
 4478TIP3    H134925   0.981   5.925  11.610 -0.9902  0.6069  0.2549
 4478TIP3    H234926   1.026   5.933  11.755 -0.2333 -0.4001  0.0766
 4479TIP3   OH234927   1.273   1.277  14.644 -0.3470  0.5875  0.4336
 4479TIP3    H134928   1.239   1.314  14.562 -1.3985  1.4525  1.2496
 4479TIP3    H234929   1.217   1.314  14.712 -0.1924 -1.0186  1.4566
 4480TIP3   OH234930   6.719   0.239   3.222  0.2375  0.1707  0.1743
 4480TIP3    H134931   6.638   0.202   3.256  1.3323  0.9290  3.8074
 4480TIP3    H234932   6.741   0.183   3.148 -2.5993 -1.1866  0.2577
 4481TIP3   OH234933   2.339   0.251  12.081 -0.1872  0.2662  0.1004
 4481TIP3    H134934   2.334   0.218  12.171  2.0176 -0.4696 -0.0132
 4481TIP3    H234935   2.381   0.337  12.090 -0.0872  0.2489 -0.2093
 4482TIP3   OH234936   2.380   1.025   1.853 -0.5224  0.4755  0.1156
 4482TIP3    H134937   2.365   0.932   1.836  1.4584  0.0334  0.6548
 4482TIP3    H234938   2.318   1.047   1.922 -1.0729 -0.4100 -0.0858
 4483TIP3   OH234939   0.233   4.306  13.210 -0.9207 -0.3003 -0.2893
 4483TIP3    H134940   0.268   4.226  13.171  2.8773  1.7730 -1.4022
 4483TIP3    H234941   0.203   4.358  13.136 -0.3375  0.6819  0.1573
 4484TIP3   OH234942   5.236   4.083   2.142 -0.0243  0.1047 -0.0500
 4484TIP3    H134943   5.237   4.140   2.219  0.0814 -0.9452  0.7396
 4484TIP3    H234944   5.143   4.068   2.124 -0.0379 -0.4579  0.4856
 4485TIP3   OH234945   6.726   6.330   1.920 -0.4125  0.0228 -0.1707
 4485TIP3    H134946   6.634   6.356   1.924 -0.3110  0.7601 -2.1754
 4485TIP3    H234947   6.750   6.315   2.012 -3.1371 -2.4655  0.2206
 4486TIP3   OH234948   0.824   4.034   1.393 -0.1674 -0.1452 -0.1761
 4486TIP3    H134949   0.729   4.026   1.389 -0.4413  0.3967  3.4327
 4486TIP3    H234950   0.840   4.128   1.401  0.5743 -0.3321  0.6519
 4487TIP3   OH234951   4.364   4.350  16.359  0.3093 -0.3102  0.4009
 4487TIP3    H134952   4.335   4.259  16.356  0.1978 -0.2509 -0.6668
 4487TIP3    H234953   4.442   4.349  16.413  0.6925 -1.1566 -0.1594
 4488TIP3   OH234954   2.945   5.877   5.632  0.5034  0.2646 -0.1504
 4488TIP3    H134955   2.942   5.970   5.610 -1.4156  0.2938  0.1530
 4488TIP3    H234956   2.871   5.838   5.585  1.7200 -1.2622 -0.8688
 4489TIP3   OH234957   0.421   1.195   1.713  0.2072 -0.0764 -0.2951
 4489TIP3    H134958   0.510   1.164   1.700 -0.3262 -1.6137 -0.4033
 4489TIP3    H234959   0.374   1.119   1.749 -0.4991  1.3977  2.0232
 4490TIP3   OH234960   0.710   4.425  12.742  0.8526 -0.1985  0.0043
 4490TIP3    H134961   0.652   4.500  12.742  1.5767  0.3810 -0.8486
 4490TIP3    H234962   0.790   4.456  12.698  1.9340 -0.8707  1.4517
 4491TIP3   OH234963   6.368   1.189  11.855 -0.2742 -0.4042 -0.4945
 4491TIP3    H134964   6.443   1.247  11.847 -0.6713  0.0074 -1.3079
 4491TIP3    H234965   6.404   1.101  11.846  0.2796 -0.2676  0.3843
 4492TIP3   OH234966   1.239   5.428  13.086 -0.2647 -0.2341 -0.3120
 4492TIP3    H134967   1.305   5.391  13.027 -0.7129 -2.0015  0.2454
 4492TIP3    H234968   1.183   5.353  13.108 -1.3168  0.8440  0.7220
 4493TIP3   OH234969   2.936   3.921   6.346 -0.0360  0.1191 -0.4203
 4493TIP3    H134970   2.874   3.985   6.313 -0.1628 -0.4552 -1.3158
 4493TIP3    H234971   3.020   3.967   6.348  0.2683 -0.2594 -2.9837
 4494TIP3   OH234972   2.444   3.096   3.600  0.6307  0.2750  0.5168
 4494TIP3    H134973   2.448   3.008   3.638 -0.7694  0.1946  0.4998
 4494TIP3    H234974   2.532   3.112   3.567  0.4862 -1.8024 -0.9712
 4495TIP3   OH234975   4.400   0.909  11.847  0.3042 -0.0571  0.3667
 4495TIP3    H134976   4.389   0.974  11.916  0.8230 -1.9025  2.2404
 4495TIP3    H234977   4.485   0.930  11.808  1.2597 -0.6309  2.0987
 4496TIP3   OH234978   5.201   0.339  12.050  0.0538 -0.0803  0.0400
 4496TIP3    H134979   5.293   0.319  12.028 -0.0020  0.6618 -0.8869
 4496TIP3    H234980   5.164   0.374  11.969 -0.8967  0.1739  0.5784
 4497TIP3   OH234981   6.455   3.251  13.307 -0.0787 -0.0112 -0.0384
 4497TIP3    H134982   6.472   3.325  13.249  1.7431 -0.5290 -0.2204
 4497TIP3    H234983   6.536   3.243  13.359 -0.8891 -0.8363  1.1155
 4498TIP3   OH234984   0.501   6.583   5.072  0.1472  0.3015  0.1257
 4498TIP3    H134985   0.577   6.629   5.038 -0.2970  3.1585  2.7905
 4498TIP3    H234986   0.535   6.499   5.105  1.5663  0.2017 -1.5605
 4499TIP3   OH234987   5.449   5.544   1.151  0.0770 -0.1576 -0.0276
 4499TIP3    H134988   5.508   5.577   1.219  1.7901 -2.5435 -0.2540
 4499TIP3    H234989   5.361   5.565   1.182  0.8936 -0.0142  2.2764
 4500TIP3   OH234990   1.441   1.479  13.012  0.2754 -1.0913 -0.2049
 4500TIP3    H134991   1.353   1.467  13.048 -0.0211  0.7236 -0.2630
 4500TIP3    H234992   1.460   1.571  13.029  2.2689 -1.5353  0.0311
 4501TIP3   OH234993   4.829   2.917  14.664  0.6869 -0.5015 -0.0598
 4501TIP3    H134994   4.922   2.940  14.669  1.0894 -1.9916 -0.4023
 4501TIP3    H234995   4.815   2.893  14.572 -0.2876  0.6772 -0.2374
 4502TIP3   OH234996   0.198   3.358   3.576  0.2129  0.5134 -0.7451
 4502TIP3    H134997   0.210   3.319   3.489 -0.6644 -0.3609 -0.4786
 4502TIP3    H234998   0.132   3.426   3.564 -0.1849  0.1394 -0.6948
 4503TIP3   OH234999   4.851   3.735   5.381  0.0422 -0.1268 -0.4094
 4503TIP3    H135000   4.820   3.652   5.418 -0.1460 -0.0717 -0.4442
 4503TIP3    H235001   4.793   3.801   5.417  1.9201  0.3413  1.8101
 4504TIP3   OH235002   1.826   4.578  13.067  0.3708 -0.4003  0.6519
 4504TIP3    H135003   1.848   4.485  13.060  0.1202 -0.4113 -0.0368
 4504TIP3    H235004   1.772   4.585  13.145  1.5270 -0.6189  1.4774
 4505TIP3   OH235005   4.274   2.007  12.904  0.3507 -0.1714 -0.3508
 4505TIP3    H135006   4.196   2.058  12.881  0.1233 -1.3621 -2.3700
 4505TIP3    H235007   4.259   1.921  12.865  3.1985 -0.0588 -1.8509
 4506TIP3   OH235008   1.471   5.323   1.938  0.9085  0.1152  0.3408
 4506TIP3    H135009   1.495   5.408   1.977  0.0417  0.6522 -0.2743
 4506TIP3    H235010   1.462   5.342   1.845 -0.7747 -0.3164  0.4021
 4507TIP3   OH235011   2.266   5.558   4.396 -0.7011  0.6030 -0.0486
 4507TIP3    H135012   2.347   5.553   4.345 -2.0748 -0.2543 -2.2207
 4507TIP3    H235013   2.256   5.470   4.434 -0.2944  0.8966  0.7537
 4508TIP3   OH235014   5.775   3.395  17.170  0.4036  0.1608 -0.5400
 4508TIP3    H135015   5.769   3.473  17.225  1.8962  0.0484 -0.2041
 4508TIP3    H235016   5.741   3.423  17.085 -0.1177  0.8586 -0.1104
 4509TIP3   OH235017   5.391   4.486  15.971 -0.9279  0.1694 -0.2966
 4509TIP3    H135018   5.423   4.461  16.058 -1.7199 -0.1466 -0.0956
 4509TIP3    H235019   5.470   4.512  15.923 -0.4165 -0.2253  0.3248
 4510TIP3   OH235020   2.697   3.272   2.201  0.6859  0.7704 -0.2276
 4510TIP3    H135021   2.640   3.284   2.276  1.6273  0.6591  0.5159
 4510TIP3    H235022   2.649   3.211   2.144 -0.4318  1.5696 -0.1577
 4511TIP3   OH235023   0.867   3.648  15.865  0.0318  0.3136 -0.1281
 4511TIP3    H135024   0.897   3.716  15.925  0.6526  0.0513 -0.1401
 4511TIP3    H235025   0.914   3.569  15.892 -0.4020 -0.0249 -0.3548
 4512TIP3   OH235026   5.187   1.419   1.563 -0.3065  0.2518 -0.4709
 4512TIP3    H135027   5.193   1.326   1.542  0.6705  0.0230  0.7844
 4512TIP3    H235028   5.149   1.458   1.485  2.7769 -0.6520 -2.5492
 4513TIP3   OH235029   3.825   6.691   4.571 -0.6033  0.1099 -0.5885
 4513TIP3    H135030   3.825   6.764   4.510 -0.3721 -0.8686 -1.7692
 4513TIP3    H235031   3.918   6.669   4.582 -0.7434 -0.7059 -1.0723
 4514TIP3   OH235032   3.527   5.508   0.846  0.5903 -0.1710 -0.0348
 4514TIP3    H135033   3.525   5.458   0.764 -2.3908  0.3307 -0.3278
 4514TIP3    H235034   3.436   5.510   0.875  1.0159  2.8913  1.3010
 4515TIP3   OH235035   4.864   1.273  14.548 -0.0273 -0.4572  0.2674
 4515TIP3    H135036   4.876   1.178  14.553 -0.0702 -0.4941 -0.3453
 4515TIP3    H235037   4.952   1.309  14.561  0.0867 -0.5984 -0.1110
 4516TIP3   OH235038   2.969   6.068   0.560 -0.5735 -0.7019 -0.2748
 4516TIP3    H135039   3.056   6.104   0.544 -1.1242  0.3086 -1.1050
 4516TIP3    H235040   2.981   6.003   0.629  0.4580  1.1721  1.3656
 4517TIP3   OH235041   2.662   0.768  12.159  0.1872 -0.0550 -0.0387
 4517TIP3    H135042   2.695   0.852  12.191 -1.2279  0.8583 -0.9297
 4517TIP3    H235043   2.576   0.788  12.122  0.3992 -1.6663 -1.4651
 4518TIP3   OH235044   1.687   0.636  14.081  0.0074 -0.4805 -0.5617
 4518TIP3    H135045   1.594   0.662  14.078  0.0950 -0.0132  0.4273
 4518TIP3    H235046   1.687   0.546  14.050 -0.6751 -0.2220 -1.3560
 4519TIP3   OH235047   1.298   0.791  11.556 -0.2925  0.3493  0.1395
 4519TIP3    H135048   1.354   0.714  11.559  0.1717  0.6177 -1.2571
 4519TIP3    H235049   1.250   0.783  11.473 -2.8828 -0.2536  1.6283
 4520TIP3   OH235050   5.292   5.142  11.537 -0.1603  0.4712  0.4636
 4520TIP3    H135051   5.319   5.108  11.622 -0.0186 -2.2527 -0.6204
 4520TIP3    H235052   5.197   5.138  11.539 -0.1493  0.1170  0.4104
 4521TIP3   OH235053   6.764   6.264   2.444 -0.1073  0.2776  0.8263
 4521TIP3    H135054   6.708   6.342   2.446 -0.8870 -0.3059  1.8352
 4521TIP3    H235055   6.716   6.198   2.493  1.3407 -0.3201  1.4782
 4522TIP3   OH235056   4.666   3.538  16.932  0.6435  0.4705 -0.0252
 4522TIP3    H135057   4.710   3.483  16.997  0.2021 -0.6052 -0.6187
 4522TIP3    H235058   4.680   3.493  16.849  0.6952  1.5247 -0.5952
 4523TIP3   OH235059   3.483   0.097   0.004  0.4435  0.2927 -0.3078
 4523TIP3    H135060   3.515   0.048  -0.072 -1.1751 -1.6298  0.1833
 4523TIP3    H235061   3.473   0.030   0.072  0.7791  1.7971  1.2434
 4524TIP3   OH235062   3.491   3.960   5.418 -0.0965  0.1311 -0.2794
 4524TIP3    H135063   3.578   3.934   5.449 -1.1611 -2.4582  0.6387
 4524TIP3    H235064   3.493   3.942   5.324 -0.5676 -2.7419  0.2127
 4525TIP3   OH235065   0.394   3.581  13.401 -0.7406 -0.4364  0.0500
 4525TIP3    H135066   0.409   3.644  13.331  0.4292  0.9675  1.5281
 4525TIP3    H235067   0.372   3.499  13.356  1.0757  0.1583 -1.9639
 4526TIP3   OH235068   0.627   5.941   1.307  0.5584 -0.1970  0.0895
 4526TIP3    H135069   0.667   5.929   1.393 -2.3566  0.1795  1.5447
 4526TIP3    H235070   0.642   5.859   1.261 -0.8028 -1.6719  2.2165
 4527TIP3   OH235071   5.670   2.039   0.093  0.1230  0.0860 -0.0232
 4527TIP3    H135072   5.577   2.018   0.094  0.0097  0.5721 -0.4455
 4527TIP3    H235073   5.714   1.955   0.078 -0.1877 -0.3205  1.2356
 4528TIP3   OH235074   2.037   1.824   1.201  0.2586  0.3196 -0.0351
 4528TIP3    H135075   2.061   1.781   1.119 -0.1705  0.1594 -0.0776
 4528TIP3    H235076   2.000   1.908   1.174 -0.4382  0.0162 -0.0415
 4529TIP3   OH235077   5.955   0.394   0.642  1.0720  0.3075  0.2688
 4529TIP3    H135078   5.878   0.448   0.658  0.5073 -0.5642  0.5052
 4529TIP3    H235079   6.028   0.446   0.677  0.7817  1.7135 -1.1322
 4530TIP3   OH235080   4.302   4.843  13.401 -0.3691  0.3932 -0.0257
 4530TIP3    H135081   4.270   4.780  13.336  1.6878 -0.1736 -0.5377
 4530TIP3    H235082   4.250   4.825  13.479 -1.5054 -0.2744 -0.9184
 4531TIP3   OH235083   4.372   3.260   3.999  0.2097 -0.0401  0.2696
 4531TIP3    H135084   4.460   3.271   4.036 -0.6667  3.6416  1.5402
 4531TIP3    H235085   4.316   3.245   4.075 -0.8627  2.3069  0.0022
 4532TIP3   OH235086   4.163   2.231   5.637  0.2939  0.1923  0.1365
 4532TIP3    H135087   4.069   2.235   5.620  0.2288  3.6495  0.7635
 4532TIP3    H235088   4.204   2.238   5.551 -0.0634  1.9421  0.0817
 4533TIP3   OH235089   5.219   0.478   5.459  0.9812  0.0153  0.1093
 4533TIP3    H135090   5.149   0.537   5.488  0.8291  0.4478 -1.1452
 4533TIP3    H235091   5.297   0.533   5.456  0.8901  0.0899 -0.8173
 4534TIP3   OH235092   4.214   3.145  13.966 -0.8040 -0.4569 -0.9495
 4534TIP3    H135093   4.280   3.092  14.011 -0.9095 -1.1201 -1.5510
 4534TIP3    H235094   4.167   3.082  13.910 -2.1143 -0.0470 -0.3447
 4535TIP3   OH235095   5.520   3.258   0.306 -0.3147 -0.0246  0.8133
 4535TIP3    H135096   5.550   3.272   0.216 -0.3183 -1.2838  0.6082
 4535TIP3    H235097   5.430   3.292   0.306 -0.8529 -1.3816 -0.0740
 4536TIP3   OH235098   1.867   2.755  14.861  0.0137 -0.1577  0.1234
 4536TIP3    H135099   1.835   2.710  14.783  1.1881  1.8612 -1.5964
 4536TIP3    H235100   1.820   2.838  14.861  0.3074  0.0159  1.3429
 4537TIP3   OH235101   2.373   3.829  11.957 -0.4615 -0.6333 -0.5233
 4537TIP3    H135102   2.347   3.855  11.868 -0.3968 -0.8183 -0.5977
 4537TIP3    H235103   2.437   3.759  11.943  0.4892  0.1812 -0.3529
 4538TIP3   OH235104   1.807   3.749   6.413  0.4126 -0.0879 -0.4027
 4538TIP3    H135105   1.789   3.797   6.494  1.3375  0.6968 -0.6652
 4538TIP3    H235106   1.848   3.667   6.443  0.9420  0.2888 -0.0901
 4539TIP3   OH235107   6.328   2.633   5.454  0.4647 -0.5837  0.2984
 4539TIP3    H135108   6.385   2.669   5.522  1.3507 -3.1056  0.9680
 4539TIP3    H235109   6.351   2.682   5.375  1.5812  0.3310  1.1757
 4540TIP3   OH235110   2.030   2.507   5.691 -0.6148 -0.4037  0.1271
 4540TIP3    H135111   1.953   2.562   5.704 -0.8565 -0.6811 -0.1179
 4540TIP3    H235112   2.089   2.529   5.763 -1.2078 -0.6774  0.6963
 4541TIP3   OH235113   2.184   1.810   2.890  0.2558  0.4407 -0.6588
 4541TIP3    H135114   2.171   1.881   2.827 -1.8525 -0.9654 -1.8801
 4541TIP3    H235115   2.139   1.840   2.969  0.2879  0.9219 -0.8197
 4542TIP3   OH235116   4.749   1.802  10.949  0.4035 -0.0369 -0.3544
 4542TIP3    H135117   4.800   1.750  11.010  0.8693 -1.3332 -1.8271
 4542TIP3    H235118   4.734   1.744  10.874 -2.1346  0.7298 -0.4957
 4543TIP3   OH235119   0.199   3.582  15.080  0.1409 -0.9631  0.5263
 4543TIP3    H135120   0.168   3.506  15.129  0.7284 -1.7407 -0.3139
 4543TIP3    H235121   0.206   3.552  14.990  1.8488 -0.3629  0.4474
 4544TIP3   OH235122   2.135   1.143  11.663 -0.1196  0.0778 -0.6301
 4544TIP3    H135123   2.138   1.152  11.568  0.2819  0.7012 -0.5643
 4544TIP3    H235124   2.081   1.218  11.692  1.9266  1.4030 -0.1754
 4545TIP3   OH235125   4.957   3.505  16.281  0.2255 -0.5177  0.2231
 4545TIP3    H135126   4.878   3.557  16.269  0.7604 -0.2231 -2.4490
 4545TIP3    H235127   5.025   3.568  16.306  0.2374 -0.3432 -0.2422
 4546TIP3   OH235128   1.954   0.367  15.797 -0.3018 -0.8728 -0.6246
 4546TIP3    H135129   1.966   0.444  15.853  0.0445 -1.2255 -0.2076
 4546TIP3    H235130   1.860   0.358  15.788 -0.3710 -0.9330  0.0822
 4547TIP3   OH235131   2.666   5.543   6.028 -0.4850 -1.1148 -0.4489
 4547TIP3    H135132   2.758   5.570   6.022 -0.2181 -1.8621  0.1388
 4547TIP3    H235133   2.618   5.624   6.046  0.2786 -0.9905  1.1374
 4548TIP3   OH235134   2.042   5.505   6.292  0.6714 -0.0881 -0.3047
 4548TIP3    H135135   2.136   5.489   6.290  0.6481 -0.5871  1.7901
 4548TIP3    H235136   2.003   5.419   6.304 -0.1177 -0.0026 -2.1261
 4549TIP3   OH235137   4.791   3.488   5.478  0.0715  0.0027 -0.2814
 4549TIP3    H135138   4.886   3.481   5.470  0.4528  1.1782  2.4081
 4549TIP3    H235139   4.764   3.404   5.513  0.3989  0.3431  0.8149
 4550TIP3   OH235140   2.156   2.912  12.755  1.0366 -0.8983  0.5418
 4550TIP3    H135141   2.217   2.912  12.682  0.2285 -1.0680 -0.1428
 4550TIP3    H235142   2.211   2.904  12.833  2.0611  1.5192  0.1024
 4551TIP3   OH235143   4.056   5.601   9.960  0.2631  0.4219 -0.5727
 4551TIP3    H135144   4.149   5.593   9.939  0.1730 -1.9393 -0.1926
 4551TIP3    H235145   4.055   5.629  10.051  0.5906  0.8725 -0.7031
 4552TIP3   OH235146   6.636   6.155   1.707 -0.8953  0.2969  0.1245
 4552TIP3    H135147   6.659   6.218   1.775 -0.7381 -0.2432  0.5694
 4552TIP3    H235148   6.700   6.085   1.716 -1.3336 -0.1316 -0.0949
 4553TIP3   OH235149   0.333   4.100  14.485 -0.4186  0.4613 -0.0514
 4553TIP3    H135150   0.418   4.127  14.518 -0.7168  0.7541  0.4744
 4553TIP3    H235151   0.349   4.077  14.393  0.2621  0.3217  0.1046
 4554TIP3   OH235152   5.658   4.154   4.241  0.0578 -0.0325  0.2345
 4554TIP3    H135153   5.692   4.220   4.302  0.9138 -1.1132  0.9347
 4554TIP3    H235154   5.621   4.205   4.169 -2.5462  1.3442  2.4390
 4555TIP3   OH235155   5.831   3.370   4.195 -0.0329  0.3863 -0.1461
 4555TIP3    H135156   5.887   3.313   4.248  0.2691  1.5251  0.7822
 4555TIP3    H235157   5.888   3.403   4.126 -0.0661  0.0234 -0.3498
 4556TIP3   OH235158   0.730   0.613   5.397 -0.7089 -0.8188 -0.7745
 4556TIP3    H135159   0.798   0.570   5.344  0.1104 -1.3487  0.6700
 4556TIP3    H235160   0.774   0.636   5.478 -1.4658  1.7074 -1.0432
 4557TIP3   OH235161   3.719   1.617   0.173  0.2442 -0.6201 -0.0867
 4557TIP3    H135162   3.680   1.700   0.200 -0.1715 -1.2690  1.3490
 4557TIP3    H235163   3.648   1.553   0.179  1.0283 -1.4374  0.6570
 4558TIP3   OH235164   1.945   2.312  15.077  0.1837 -0.3546 -0.1232
 4558TIP3    H135165   1.922   2.352  14.993 -0.5911  0.0057  0.2568
 4558TIP3    H235166   1.945   2.218  15.059  0.9589 -0.2487 -0.7552
 4559TIP3   OH235167   1.006   0.339  17.284 -0.5474  0.3942 -0.7576
 4559TIP3    H135168   1.092   0.320  17.322 -1.0762 -1.5181 -0.4454
 4559TIP3    H235169   0.975   0.416  17.331 -0.1233 -0.4767  0.9902
 4560TIP3   OH235170   2.787   5.096  15.955  0.3882  0.0893  0.2324
 4560TIP3    H135171   2.819   5.007  15.938  0.5303 -0.0754  1.2933
 4560TIP3    H235172   2.706   5.103  15.904  0.5841 -0.5123 -0.1642
 4561TIP3   OH235173   0.627   4.326  14.305 -0.2507  0.1512 -0.8475
 4561TIP3    H135174   0.623   4.275  14.385 -0.4808  1.5942  0.0809
 4561TIP3    H235175   0.632   4.417  14.334  2.4054  0.5841 -2.4003
 4562TIP3   OH235176   2.116   1.020  12.860 -0.8281 -0.5209  0.0142
 4562TIP3    H135177   2.092   0.957  12.927 -1.0022 -0.7715 -0.2806
 4562TIP3    H235178   2.043   1.019  12.798 -1.4545  0.9515  0.6891
 4563TIP3   OH235179   6.338   4.256  12.369  0.0095 -0.5790  0.0452
 4563TIP3    H135180   6.374   4.301  12.445 -0.2799  0.0138 -0.1654
 4563TIP3    H235181   6.311   4.326  12.310  0.1321 -1.0357 -0.5577
 4564TIP3   OH235182   0.415   1.294  11.845 -0.0839 -0.3103  0.0787
 4564TIP3    H135183   0.443   1.347  11.770  1.2637 -0.2465  0.6103
 4564TIP3    H235184   0.448   1.341  11.922 -2.1112  0.0239  0.7677
 4565TIP3   OH235185   2.821   6.768   1.795  0.1171  0.0793  0.3130
 4565TIP3    H135186   2.790   6.732   1.711  1.7610  0.7862 -0.6307
 4565TIP3    H235187   2.909   6.732   1.805  0.5574  1.3059  0.9346
 4566TIP3   OH235188   0.095   3.893   4.498 -0.5683  0.4342 -0.2430
 4566TIP3    H135189   0.042   3.968   4.525  2.0685  2.0513  0.5796
 4566TIP3    H235190   0.147   3.925   4.424 -1.0054 -1.2513 -1.3233
 4567TIP3   OH235191   0.300   5.579   2.472 -0.3477 -0.1370 -0.1918
 4567TIP3    H135192   0.282   5.493   2.510 -1.4574 -0.3906 -1.2637
 4567TIP3    H235193   0.223   5.631   2.493  0.5932  0.8261  1.0245
 4568TIP3   OH235194   3.374   3.605  11.704 -0.2200  0.2964 -0.2572
 4568TIP3    H135195   3.347   3.592  11.795  0.3774 -0.5714 -0.1958
 4568TIP3    H235196   3.457   3.651  11.710  0.1317 -0.3159 -0.3357
 4569TIP3   OH235197   2.309   0.336   1.868  0.1007 -0.1451  0.1675
 4569TIP3    H135198   2.326   0.349   1.961 -0.0848  0.1498  0.1616
 4569TIP3    H235199   2.321   0.423   1.829 -1.2292  0.0485  0.1382
 4570TIP3   OH235200   4.376   0.904   4.317  0.0568 -0.0510 -0.0453
 4570TIP3    H135201   4.383   0.849   4.239 -0.4197 -0.6335  0.3207
 4570TIP3    H235202   4.369   0.843   4.390 -0.0800  0.4904  0.4029
 4571TIP3   OH235203   1.534   3.265  11.283 -0.2541  0.4019  0.5711
 4571TIP3    H135204   1.506   3.177  11.257  2.6425  0.2379 -2.4106
 4571TIP3    H235205   1.477   3.324  11.234 -0.1190  0.1418  0.0967
 4572TIP3   OH235206   3.964   0.912  16.321 -0.1880  0.7466 -0.1673
 4572TIP3    H135207   3.954   0.994  16.273 -2.3491  1.4978  1.5055
 4572TIP3    H235208   3.969   0.938  16.413  0.6564 -0.8979  0.2846
 4573TIP3   OH235209   3.315   4.153  12.447 -0.2166  0.2516  0.5657
 4573TIP3    H135210   3.276   4.125  12.364 -0.9684  1.4204  0.5018
 4573TIP3    H235211   3.390   4.096  12.459 -1.9895 -2.1327  0.7351
 4574TIP3   OH235212   3.943   5.517   5.694 -0.7895  0.0116  0.1388
 4574TIP3    H135213   3.954   5.608   5.668  0.5988 -0.0218  0.5489
 4574TIP3    H235214   3.911   5.473   5.616  0.1848  0.5325 -0.5624
 4575TIP3   OH235215   0.203   4.336  12.738 -0.2571 -0.0571 -0.4450
 4575TIP3    H135216   0.254   4.381  12.806 -0.8168 -1.1736  0.7428
 4575TIP3    H235217   0.264   4.324  12.666  0.8632 -0.4168  0.5490
 4576TIP3   OH235218   5.764   1.042  12.786  0.5088  0.2488  0.4213
 4576TIP3    H135219   5.784   0.991  12.708 -2.2872  0.9965 -0.8700
 4576TIP3    H235220   5.756   0.978  12.856  2.0346 -0.5293 -0.0953
 4577TIP3   OH235221   4.059   2.206   3.207 -0.0698 -0.1438 -0.4553
 4577TIP3    H135222   3.997   2.245   3.269  0.1848 -0.0845 -0.2379
 4577TIP3    H235223   4.032   2.240   3.121  0.1887  0.5621 -0.2581
 4578TIP3   OH235224   5.791   6.216  11.253  0.3140 -0.0569  0.2476
 4578TIP3    H135225   5.731   6.281  11.288 -0.8960 -0.6552 -0.6528
 4578TIP3    H235226   5.843   6.263  11.188 -1.4730 -0.2697 -1.3647
 4579TIP3   OH235227   6.439   6.176   4.856 -0.0234 -0.0947 -0.7547
 4579TIP3    H135228   6.526   6.143   4.877 -0.0913  0.4200  0.3655
 4579TIP3    H235229   6.451   6.270   4.842 -0.7803  0.4744  1.9594
 4580TIP3   OH235230   4.820   2.663   3.822  1.2150 -0.4518  0.2330
 4580TIP3    H135231   4.855   2.614   3.747  0.7459  0.8390 -0.8590
 4580TIP3    H235232   4.880   2.737   3.832 -0.2116  0.8331 -0.5654
 4581TIP3   OH235233   1.092   2.710   0.033  0.0789 -0.1537  0.0270
 4581TIP3    H135234   1.120   2.627   0.072  2.2426  0.5240 -0.0076
 4581TIP3    H235235   1.137   2.713  -0.052  0.2744  1.1888  0.1638
 4582TIP3   OH235236   5.336   4.002   1.413  0.8065  0.0282 -0.0651
 4582TIP3    H135237   5.396   4.020   1.341  1.7957  0.2566  0.7979
 4582TIP3    H235238   5.386   4.024   1.492  0.8436 -3.0815  0.8599
 4583TIP3   OH235239   0.337   1.938  15.149 -0.1972  0.0889  0.1957
 4583TIP3    H135240   0.304   2.024  15.123 -0.2845  0.2318  0.7756
 4583TIP3    H235241   0.335   1.886  15.069 -1.1297  0.3126  0.0761
 4584TIP3   OH235242   3.198   2.770  15.166 -0.1528  0.0597  0.3716
 4584TIP3    H135243   3.174   2.729  15.083  1.1142  0.4401 -0.1805
 4584TIP3    H235244   3.218   2.697  15.224  1.6251 -0.1390 -0.4672
 4585TIP3   OH235245   1.916   3.252  14.331 -0.5393  0.2111 -0.2655
 4585TIP3    H135246   1.957   3.182  14.381 -1.2576 -1.3761 -1.8232
 4585TIP3    H235247   1.831   3.265  14.373 -0.8425 -0.6074 -0.6149
 4586TIP3   OH235248   3.946   2.374   3.428 -0.2113 -0.0351 -0.1242
 4586TIP3    H135249   3.860   2.414   3.428  0.0560  0.5434 -0.0159
 4586TIP3    H235250   3.931   2.285   3.461 -1.2290 -1.0003 -3.0564
 4587TIP3   OH235251   5.939   0.741   6.159  0.0169 -0.4890  0.2174
 4587TIP3    H135252   6.020   0.697   6.184 -0.7818 -2.0337  0.1149
 4587TIP3    H235253   5.949   0.830   6.192  2.3623 -0.2596 -1.0446
 4588TIP3   OH235254   6.777   2.706  15.792  0.2785 -0.0942 -0.3968
 4588TIP3    H135255   6.846   2.641  15.800  2.5159  2.1789 -0.4104
 4588TIP3    H235256   6.715   2.684  15.861  0.0713 -3.2486 -1.5239
 4589TIP3   OH235257   4.850   6.797  10.602  0.2279  0.7830 -0.7998
 4589TIP3    H135258   4.763   6.757  10.597 -0.0891  0.8887  2.6603
 4589TIP3    H235259   4.833   6.885  10.637  1.9019 -0.1365  2.5167
 4590TIP3   OH235260   2.658   0.744   1.334  0.3429  0.1570  0.4090
 4590TIP3    H135261   2.630   0.670   1.386  1.0942 -0.2442  0.2530
 4590TIP3    H235262   2.709   0.798   1.395  1.4403 -0.4435  0.0297
 4591TIP3   OH235263   3.324   4.371  11.651  0.1427  0.6986  0.6210
 4591TIP3    H135264   3.265   4.440  11.682 -1.3861 -0.4479  0.3413
 4591TIP3    H235265   3.321   4.379  11.556 -2.6148 -1.7703  0.4240
 4592TIP3   OH235266   2.017   1.938  14.025  0.0955 -0.3966  0.6036
 4592TIP3    H135267   1.999   1.972  13.938 -3.8111 -2.5088  0.4799
 4592TIP3    H235268   1.981   2.004  14.085  0.0928 -0.3411  0.5401
 4593TIP3   OH235269   5.601   1.658   0.782 -0.5156 -0.1542 -0.2024
 4593TIP3    H135270   5.692   1.654   0.753 -0.4902  1.1665 -0.2954
 4593TIP3    H235271   5.592   1.583   0.841  1.3447  1.1585  1.8326
 4594TIP3   OH235272   4.905   1.811   0.510  0.1332 -0.4655 -0.2149
 4594TIP3    H135273   4.859   1.790   0.591 -0.6703  0.6921 -0.3566
 4594TIP3    H235274   4.994   1.781   0.524 -0.2027 -1.0033  0.7902
 4595TIP3   OH235275   2.919   5.971   3.173 -0.1480 -0.8711 -0.3528
 4595TIP3    H135276   2.950   5.887   3.140 -1.1191 -1.1904 -0.4810
 4595TIP3    H235277   2.923   5.963   3.268  1.9292 -0.2267 -0.3645
 4596TIP3   OH235278   3.929   0.062  12.403  0.1424  0.0694 -0.2964
 4596TIP3    H135279   3.956  -0.023  12.437  1.7857  0.9098  0.5365
 4596TIP3    H235280   3.925   0.119  12.479 -0.0790  0.9682 -0.9689
 4597TIP3   OH235281   2.237   6.441  15.908 -0.1701 -0.0912  0.2123
 4597TIP3    H135282   2.261   6.479  15.823  1.8350 -2.1093 -0.1497
 4597TIP3    H235283   2.157   6.391  15.889 -1.0462  1.3154  0.0472
 4598TIP3   OH235284   6.008   5.765  15.187 -0.1548 -0.2810  0.2950
 4598TIP3    H135285   5.981   5.788  15.276  0.6047  0.1921  0.4129
 4598TIP3    H235286   6.049   5.679  15.196  1.3698  0.4712  0.6848
 4599TIP3   OH235287   5.934   4.705   5.402  0.3649 -0.4055  0.2781
 4599TIP3    H135288   5.914   4.618   5.368  1.3291  0.0182 -1.4279
 4599TIP3    H235289   5.862   4.761   5.370 -0.1572 -0.5158  1.2206
 4600TIP3   OH235290   5.888   0.199   3.000  0.0565  0.4466 -0.2235
 4600TIP3    H135291   5.915   0.133   3.065  0.8904 -0.2255 -1.2415
 4600TIP3    H235292   5.895   0.154   2.916  1.5759  2.1334 -1.0150
 4601TIP3   OH235293   0.564   3.193   5.145  0.1364 -0.1276 -0.1047
 4601TIP3    H135294   0.646   3.164   5.184  0.9597  0.1589 -1.5956
 4601TIP3    H235295   0.498   3.173   5.211  1.2344 -1.5428  0.5884
 4602TIP3   OH235296   3.664   3.142  15.319 -0.4099 -0.1123 -0.3988
 4602TIP3    H135297   3.664   3.086  15.397 -1.7319 -0.0703 -0.3659
 4602TIP3    H235298   3.690   3.229  15.352  1.1185 -0.5625 -0.3644
 4603TIP3   OH235299   5.566   3.211  17.214  0.0620 -0.2433  0.5266
 4603TIP3    H135300   5.579   3.121  17.244  0.4863  0.4709  2.5837
 4603TIP3    H235301   5.651   3.253  17.226  0.1062  0.2173 -1.2703
 4604TIP3   OH235302   2.775   6.426  12.964  0.3269  0.5002 -0.0605
 4604TIP3    H135303   2.742   6.355  12.909 -2.6072  0.4424  1.6663
 4604TIP3    H235304   2.714   6.499  12.948  0.6359  1.1275  1.5511
 4605TIP3   OH235305   1.889   1.511  13.709  0.6052 -0.1211  0.3704
 4605TIP3    H135306   1.918   1.568  13.781  0.1688  1.4834 -0.7026
 4605TIP3    H235307   1.796   1.529  13.701  0.6232 -0.4051 -0.4862
 4606TIP3   OH235308   0.209   5.888  10.579  0.0915 -0.2242  0.2309
 4606TIP3    H135309   0.147   5.860  10.511  1.3027 -3.2915  0.3441
 4606TIP3    H235310   0.167   5.861  10.661  0.8854 -0.9817  0.3912
 4607TIP3   OH235311   0.283   4.782  15.378  0.1232 -0.5694  0.0055
 4607TIP3    H135312   0.364   4.824  15.407  0.7071 -1.6486 -0.0311
 4607TIP3    H235313   0.222   4.854  15.362  0.8739  0.2098  0.6616
 4608TIP3   OH235314   4.879   2.909  16.029 -0.3747 -0.0566 -0.3120
 4608TIP3    H135315   4.786   2.923  16.045 -0.6761 -2.1829 -0.0349
 4608TIP3    H235316   4.890   2.814  16.033  2.0911  0.2459  1.2862
 4609TIP3   OH235317   2.132   3.052   4.600 -0.0565  0.4115  0.3027
 4609TIP3    H135318   2.161   3.015   4.683 -1.0169 -1.7484 -0.2577
 4609TIP3    H235319   2.213   3.078   4.555  0.6679 -0.8565  0.8385
 4610TIP3   OH235320   6.765   5.319  14.517  0.2249  0.0574 -0.3384
 4610TIP3    H135321   6.692   5.346  14.572  2.8030  4.6601  1.0866
 4610TIP3    H235322   6.752   5.367  14.435  0.6071 -0.6671 -0.8320
 4611TIP3   OH235323   1.735   3.503   4.848 -0.1725  0.3212 -0.3171
 4611TIP3    H135324   1.806   3.440   4.857 -0.4997 -0.0572 -0.3879
 4611TIP3    H235325   1.771   3.585   4.881  0.8001  0.4856 -1.7527
 4612TIP3   OH235326   3.868   1.098   3.259  0.9056  0.0408 -1.1926
 4612TIP3    H135327   3.832   1.071   3.175 -1.8031  1.1687 -0.4527
 4612TIP3    H235328   3.950   1.049   3.268 -0.2550 -2.3108 -3.1327
 4613TIP3   OH235329   5.979   1.976   5.661 -0.1877 -0.3278 -0.1937
 4613TIP3    H135330   5.978   1.981   5.757 -0.4112 -0.4450 -0.1885
 4613TIP3    H235331   5.947   1.887   5.642  0.6682 -0.6100 -0.3536
 4614TIP3   OH235332   0.048   2.496  11.902 -0.0879 -0.6756 -0.1693
 4614TIP3    H135333   0.090   2.492  11.988  1.8988 -0.3258 -1.0874
 4614TIP3    H235334   0.060   2.587  11.874 -0.1211 -0.9544 -1.1006
 4615TIP3   OH235335   0.364   4.142  15.853  0.6640  0.1770  0.5755
 4615TIP3    H135336   0.439   4.194  15.879 -0.6628  2.0329  0.7921
 4615TIP3    H235337   0.302   4.152  15.926  0.3220 -1.6084  0.5690
 4616TIP3   OH235338   3.592   2.274  14.802 -0.1643  0.0168 -0.6313
 4616TIP3    H135339   3.565   2.365  14.810 -1.4983 -0.3099 -1.3020
 4616TIP3    H235340   3.673   2.278  14.751 -0.5953  0.7642 -1.2676
 4617TIP3   OH235341   3.470   0.308  11.965  0.4318 -0.5018  0.8137
 4617TIP3    H135342   3.530   0.290  11.892  0.5753 -0.3894  0.9050
 4617TIP3    H235343   3.409   0.234  11.964 -2.8624  2.0836 -2.7601
 4618TIP3   OH235344   0.884   6.225  13.563  0.1141 -0.4772  0.2993
 4618TIP3    H135345   0.839   6.178  13.492  2.0433  0.1210 -1.3837
 4618TIP3    H235346   0.971   6.185  13.566  1.1422  1.6905  0.1309
 4619TIP3   OH235347   2.733   4.078   0.785  0.3632 -0.1438 -0.1191
 4619TIP3    H135348   2.786   4.029   0.847 -1.9387 -2.2956  0.2582
 4619TIP3    H235349   2.661   4.114   0.838  0.0233  0.5467 -1.0258
 4620TIP3   OH235350   2.139   3.946  15.596 -0.0790  0.0225 -0.1701
 4620TIP3    H135351   2.233   3.956  15.608  0.0150  1.5355 -1.8527
 4620TIP3    H235352   2.116   4.015  15.533 -2.0567 -1.2382 -0.8700
 4621TIP3   OH235353   4.507   1.640  11.106 -0.1764  0.2090 -0.0114
 4621TIP3    H135354   4.485   1.733  11.105  0.3160  0.3175 -1.1484
 4621TIP3    H235355   4.488   1.609  11.017 -0.4072 -0.7908  0.3790
 4622TIP3   OH235356   3.103   1.383  13.012  0.4454 -0.0619  0.0945
 4622TIP3    H135357   3.187   1.350  12.979 -0.5035 -2.5570 -0.0045
 4622TIP3    H235358   3.107   1.370  13.107 -0.0104 -0.7243  0.0326
 4623TIP3   OH235359   4.836   5.806   6.034  0.4846 -0.1381  0.1332
 4623TIP3    H135360   4.824   5.897   6.061 -0.1774  0.2901 -1.5378
 4623TIP3    H235361   4.780   5.756   6.094  0.2084  0.6309  0.5326
 4624TIP3   OH235362   1.003   6.757   4.206 -0.0323  0.3062 -0.3625
 4624TIP3    H135363   1.007   6.690   4.139 -2.0864  1.6444 -1.8889
 4624TIP3    H235364   1.020   6.839   4.160  0.9501  0.9988  1.1912
 4625TIP3   OH235365   6.092   5.075  15.246  0.1222  0.0708  0.2527
 4625TIP3    H135366   6.051   4.992  15.223  1.2873 -0.9151  1.6029
 4625TIP3    H235367   6.110   5.117  15.163 -1.2572 -0.6494 -0.4257
 4626TIP3   OH235368   3.572   6.284  12.115  0.8054 -0.4582 -0.3421
 4626TIP3    H135369   3.542   6.374  12.099  0.5061 -0.3089  0.9928
 4626TIP3    H235370   3.494   6.238  12.147  1.0785 -1.0644 -0.5418
 4627TIP3   OH235371   3.418   3.278  11.330  0.2121 -0.4120 -0.4305
 4627TIP3    H135372   3.338   3.227  11.322  1.4697 -2.5134  0.0140
 4627TIP3    H235373   3.425   3.298  11.424 -1.0380  1.8811 -0.7968
 4628TIP3   OH235374   3.208   4.096  14.298 -0.3203 -0.7390 -0.4126
 4628TIP3    H135375   3.133   4.038  14.311  0.5720 -1.4984  1.5310
 4628TIP3    H235376   3.284   4.039  14.309  0.5597  0.2003 -1.4936
 4629TIP3   OH235377   5.725   3.722   4.034 -0.4213 -0.4243  0.1701
 4629TIP3    H135378   5.771   3.743   3.953 -0.8585 -0.9203 -0.2146
 4629TIP3    H235379   5.778   3.654   4.075  0.6516  0.9344  1.0970
 4630TIP3   OH235380   1.059   3.412   6.585  0.1263  0.0308  0.5417
 4630TIP3    H135381   1.015   3.471   6.524  0.9554  1.5555  1.3847
 4630TIP3    H235382   0.998   3.402   6.658 -0.3940 -0.8911 -0.0148
 4631TIP3   OH235383   1.403   2.906   1.047 -0.3306  0.0909  0.1536
 4631TIP3    H135384   1.465   2.882   0.978 -1.0711  0.6284 -0.7088
 4631TIP3    H235385   1.319   2.918   1.002 -0.5680  1.6497  0.9452
 4632TIP3   OH235386   2.441   2.423  15.896  0.5180  0.5262 -0.0222
 4632TIP3    H135387   2.392   2.504  15.883  0.8239  0.5945 -0.8077
 4632TIP3    H235388   2.531   2.446  15.871  0.4787 -0.2320 -0.8623
 4633TIP3   OH235389   3.274   0.335   6.541 -0.1825 -0.3797 -0.3752
 4633TIP3    H135390   3.331   0.258   6.542  1.6086  0.9158 -0.0583
 4633TIP3    H235391   3.329   0.406   6.577 -1.0264  1.5692 -2.7766
 4634TIP3   OH235392   4.583   3.095  13.921  0.2947 -0.5899  0.4176
 4634TIP3    H135393   4.663   3.129  13.962 -0.0741  0.1168  0.5696
 4634TIP3    H235394   4.598   3.105  13.827  0.3805 -0.4508  0.4462
 4635TIP3   OH235395   1.821   6.747  16.206 -0.2561  0.8716  0.5156
 4635TIP3    H135396   1.743   6.732  16.260 -1.2898  0.6351 -1.0209
 4635TIP3    H235397   1.878   6.674  16.228 -1.7429 -0.6679 -0.5888
 4636TIP3   OH235398   0.285   5.428  16.832  0.1764 -0.2399 -0.3653
 4636TIP3    H135399   0.257   5.419  16.741 -1.9602 -1.2163  0.3576
 4636TIP3    H235400   0.218   5.484  16.872  1.9761  1.5348  0.2391
 4637TIP3   OH235401   3.134   5.140  11.761 -0.4644  0.0056 -0.4005
 4637TIP3    H135402   3.154   5.053  11.795  0.3281  0.1337 -0.5203
 4637TIP3    H235403   3.219   5.185  11.759 -0.6853  0.3787 -1.4597
 4638TIP3   OH235404   5.941   4.880  11.409 -0.3724 -0.6995  0.7672
 4638TIP3    H135405   5.878   4.833  11.464 -0.6151 -1.3816 -0.0825
 4638TIP3    H235406   5.987   4.938  11.469 -0.8356 -1.2307  1.6387
 4639TIP3   OH235407   0.840   4.130   4.637  0.2794 -0.2593  0.5315
 4639TIP3    H135408   0.932   4.105   4.637  0.1945 -0.5847  1.3089
 4639TIP3    H235409   0.796   4.063   4.689 -0.4911 -0.4319 -0.3365
 4640TIP3   OH235410   0.473   1.719   3.012  0.4377 -0.5722 -0.3757
 4640TIP3    H135411   0.425   1.661   2.952  1.2727 -1.3517 -0.3183
 4640TIP3    H235412   0.515   1.783   2.955 -0.6272  0.0809 -0.4292
 4641TIP3   OH235413   6.747   1.226   0.531  0.2313 -0.0547 -0.0019
 4641TIP3    H135414   6.833   1.218   0.573  0.8788 -1.4026 -1.5346
 4641TIP3    H235415   6.731   1.320   0.527  1.1109  0.1577  1.3652
 4642TIP3   OH235416   0.327   0.443  16.818 -0.2891  0.3202 -0.0743
 4642TIP3    H135417   0.255   0.414  16.762 -1.7648  2.3311  0.7501
 4642TIP3    H235418   0.343   0.368  16.876 -1.3865 -0.3235 -0.5819
 4643TIP3   OH235419   0.190   3.872  15.168  0.2724  0.5467 -0.5220
 4643TIP3    H135420   0.201   3.794  15.114  2.2693 -0.2459  0.9465
 4643TIP3    H235421   0.263   3.929  15.143  0.4479  0.7317  0.3998
 4644TIP3   OH235422   6.276   2.191   3.026  0.5498  0.6699 -0.2247
 4644TIP3    H135423   6.244   2.158   2.943  0.6311  1.3798 -0.5385
 4644TIP3    H235424   6.363   2.226   3.006  0.8711  0.1759  0.3020
 4645TIP3   OH235425   3.188   4.777   2.193  0.2285 -0.1057 -0.3350
 4645TIP3    H135426   3.183   4.847   2.258 -0.5012 -0.7423  0.3037
 4645TIP3    H235427   3.120   4.799   2.128 -0.4352 -0.5428  0.1985
 4646TIP3   OH235428   3.210   0.694   0.784  0.1309  0.8289 -1.2652
 4646TIP3    H135429   3.148   0.742   0.729  0.7510  0.9328 -1.8962
 4646TIP3    H235430   3.260   0.640   0.721 -0.1343 -0.1582 -0.6393
 4647TIP3   OH235431   1.417   1.600   0.804  0.1859 -0.7336 -0.5709
 4647TIP3    H135432   1.447   1.668   0.744  2.0263 -1.7362 -0.8248
 4647TIP3    H235433   1.370   1.647   0.873  0.7081  0.6973 -1.1856
 4648TIP3   OH235434   6.242   2.686  12.182 -0.2679 -0.2507  0.6451
 4648TIP3    H135435   6.282   2.757  12.131 -1.3826 -0.2715 -0.2927
 4648TIP3    H235436   6.312   2.621  12.192  0.2493  0.1905 -0.0368
 4649TIP3   OH235437   4.123   2.917   1.846 -0.1695 -0.1076  0.2213
 4649TIP3    H135438   4.128   2.826   1.815 -3.1670  0.2486 -1.4009
 4649TIP3    H235439   4.154   2.969   1.773 -1.7387  0.3784 -0.1055
 4650TIP3   OH235440   1.073   5.880   3.495  0.5777  0.1293 -0.3858
 4650TIP3    H135441   1.150   5.848   3.447  0.5006  0.6815 -0.8881
 4650TIP3    H235442   1.080   5.840   3.581  1.6646  0.4981 -0.2896
 4651TIP3   OH235443   0.487   0.486  12.596  0.0906 -0.3921 -0.5814
 4651TIP3    H135444   0.525   0.537  12.525 -0.6198 -0.5687 -1.0932
 4651TIP3    H235445   0.414   0.539  12.628 -0.9356 -1.2723 -1.4213
 4652TIP3   OH235446   4.062   3.259  15.429 -0.4552  0.2640 -0.3510
 4652TIP3    H135447   4.048   3.164  15.426  0.9718  0.0651 -1.1805
 4652TIP3    H235448   4.032   3.291  15.344 -0.9824  0.5640 -0.0528
 4653TIP3   OH235449   4.844   3.190  15.435  0.2264 -0.2906  0.2004
 4653TIP3    H135450   4.915   3.234  15.481  1.3283 -0.1225 -1.6125
 4653TIP3    H235451   4.858   3.097  15.451  0.8824 -0.2581 -0.1770
 4654TIP3   OH235452   3.732   0.290   2.814  0.2803 -0.5768 -0.0467
 4654TIP3    H135453   3.822   0.278   2.785  1.1101 -0.5651  2.3682
 4654TIP3    H235454   3.738   0.353   2.886 -1.7450 -0.0434 -0.3204
 4655TIP3   OH235455   0.438   1.637   3.814  0.0545 -0.4460  0.0295
 4655TIP3    H135456   0.455   1.583   3.737  0.2283 -0.8769  0.3644
 4655TIP3    H235457   0.361   1.598   3.854 -0.1132 -0.1423  0.0006
 4656TIP3   OH235458   6.755   6.029  11.692  0.0006 -0.6735  0.4153
 4656TIP3    H135459   6.797   6.113  11.711  0.9978 -0.2714 -3.1730
 4656TIP3    H235460   6.821   5.963  11.712 -0.0319 -0.4769  1.1777
 4657TIP3   OH235461   0.709   3.511   1.551 -0.3041 -0.7776  0.3360
 4657TIP3    H135462   0.717   3.606   1.557  0.4637 -0.8878  1.2541
 4657TIP3    H235463   0.615   3.495   1.546 -0.6913 -0.1442  4.0612
 4658TIP3   OH235464   1.510   6.285   2.120  0.4993  0.2678  0.2752
 4658TIP3    H135465   1.467   6.363   2.085 -2.1582 -0.2645  2.1437
 4658TIP3    H235466   1.499   6.292   2.215  1.6084 -1.6079  0.5738
 4659TIP3   OH235467   0.931   0.398  14.878  0.3837  0.0602  0.1135
 4659TIP3    H135468   1.005   0.453  14.852 -1.0252  1.4753 -0.9470
 4659TIP3    H235469   0.955   0.311  14.846  1.4289  0.5806 -0.5490
 4660TIP3   OH235470   6.087   2.105  14.923  0.2173  0.0815 -0.3113
 4660TIP3    H135471   6.116   2.196  14.915  1.2627 -0.2701 -0.6183
 4660TIP3    H235472   6.144   2.067  14.990  1.2750 -0.9309 -1.7626
 4661TIP3   OH235473   2.269   3.927   4.632  0.2475  0.1347  0.0586
 4661TIP3    H135474   2.341   3.987   4.654  0.2957 -0.2024  0.8212
 4661TIP3    H235475   2.290   3.847   4.679  0.1969 -0.5034 -0.9922
 4662TIP3   OH235476   4.750   1.394  16.994 -0.1040  0.6145 -0.2215
 4662TIP3    H135477   4.709   1.401  17.080  2.0174 -1.7158  1.0527
 4662TIP3    H235478   4.679   1.413  16.932 -2.0352  0.8696  1.9878
 4663TIP3   OH235479   5.993   6.434  10.502 -0.1119 -0.0973 -0.1068
 4663TIP3    H135480   6.079   6.403  10.474  0.1695  0.9752 -0.4643
 4663TIP3    H235481   6.010   6.519  10.544 -0.7591 -0.8164  1.6350
 4664TIP3   OH235482   2.715   3.277  16.928  0.1776  0.1142 -0.0883
 4664TIP3    H135483   2.781   3.242  16.868  0.6067 -0.6367  0.8006
 4664TIP3    H235484   2.748   3.253  17.015 -0.8268  0.5072  0.3957
 4665TIP3   OH235485   0.225   0.557   2.521 -0.4706 -0.1935 -0.4239
 4665TIP3    H135486   0.305   0.549   2.574  1.2470  0.6738 -2.7954
 4665TIP3    H235487   0.184   0.638   2.551 -0.6158 -0.7733  0.9849
 4666TIP3   OH235488   2.097   3.158  17.095  0.1853  0.7161 -0.1587
 4666TIP3    H135489   2.172   3.215  17.080  0.9718 -0.8517 -2.3640
 4666TIP3    H235490   2.027   3.218  17.121  1.5928  2.4229 -0.1736
 4667TIP3   OH235491   4.235   5.354   2.246 -0.8107 -0.0546  0.0308
 4667TIP3    H135492   4.181   5.381   2.172 -0.2809  0.4824 -0.1692
 4667TIP3    H235493   4.217   5.419   2.314  0.0337  0.4941 -0.2526
 4668TIP3   OH235494   4.692   2.174  14.720  0.3915 -0.5192 -0.0081
 4668TIP3    H135495   4.673   2.080  14.726  0.5802 -0.4686  1.6763
 4668TIP3    H235496   4.626   2.215  14.777  2.6876  0.0249  2.3332
 4669TIP3   OH235497   5.124   0.866   5.508  0.2660 -0.4826 -0.4488
 4669TIP3    H135498   5.140   0.793   5.567 -1.8599 -0.2455  0.4364
 4669TIP3    H235499   5.034   0.855   5.479 -0.3464  2.1744  0.2989
 4670TIP3   OH235500   0.022   3.328   1.893 -0.1642 -0.2044  0.4271
 4670TIP3    H135501   0.045   3.363   1.807 -0.9457  0.3558  0.4515
 4670TIP3    H235502   0.098   3.274   1.917 -0.6837 -1.7910 -1.3867
 4671TIP3   OH235503   0.238   1.632  12.005  0.0151 -0.1903  0.5382
 4671TIP3    H135504   0.223   1.710  12.060  0.7294  0.8256 -0.6799
 4671TIP3    H235505   0.303   1.581  12.053  0.8606  0.8399  0.5089
 4672TIP3   OH235506   5.336   3.825   2.155  0.2187 -0.0404  0.1625
 4672TIP3    H135507   5.383   3.824   2.072  0.7150 -0.0164  0.4404
 4672TIP3    H235508   5.294   3.911   2.157  1.5015  0.5979  0.6467
 4673TIP3   OH235509   0.015   3.746   1.821  0.3709 -0.1235 -0.1561
 4673TIP3    H135510  -0.030   3.684   1.762  0.3687  0.1590 -0.4527
 4673TIP3    H235511  -0.055   3.786   1.872  0.2684  0.3957 -0.6934
 4674TIP3   OH235512   3.659   4.061  12.818  0.1998 -0.1006  0.0504
 4674TIP3    H135513   3.584   4.120  12.803 -0.5167 -0.5061  1.9183
 4674TIP3    H235514   3.619   3.975  12.830  1.0318 -0.4521  0.3095
 4675TIP3   OH235515   1.635   2.170  14.450 -0.5100 -0.2338 -0.2252
 4675TIP3    H135516   1.559   2.117  14.427 -1.1793  0.6339 -0.0380
 4675TIP3    H235517   1.688   2.114  14.506 -0.7484 -1.0264 -0.7892
 4676TIP3   OH235518   0.557   0.445  13.628  0.4564 -0.4052  0.6371
 4676TIP3    H135519   0.467   0.471  13.645  0.0223 -1.1975 -0.3997
 4676TIP3    H235520   0.554   0.349  13.622  1.2177 -0.3837 -0.2310
 4677TIP3   OH235521   3.641   6.522  10.556  0.2662  0.0991  0.2112
 4677TIP3    H135522   3.639   6.616  10.570  0.1136  0.3053 -1.1355
 4677TIP3    H235523   3.551   6.500  10.529  0.3976 -0.3656  0.1486
 4678TIP3   OH235524   0.958   2.326   3.094  0.0339 -0.1656 -0.4039
 4678TIP3    H135525   1.024   2.297   3.157 -0.5686  0.0406  0.3439
 4678TIP3    H235526   1.007   2.373   3.027  0.6809 -0.2911 -0.0235
 4679TIP3   OH235527   1.084   0.385  16.084 -0.1773 -0.2606  0.0582
 4679TIP3    H135528   0.993   0.383  16.114 -0.9154 -0.8456 -2.1754
 4679TIP3    H235529   1.135   0.394  16.165 -2.0573 -2.7657  1.5968
 4680TIP3   OH235530   0.612   4.869   1.774  0.2285 -0.0085 -0.3819
 4680TIP3    H135531   0.639   4.956   1.800 -0.7106  0.2014 -0.0972
 4680TIP3    H235532   0.657   4.810   1.835  0.0586  0.3337  0.0749
 4681TIP3   OH235533   3.746   3.435  16.749 -0.9638 -0.0717 -0.8124
 4681TIP3    H135534   3.722   3.344  16.731 -1.3561 -0.5193  1.6913
 4681TIP3    H235535   3.842   3.435  16.748 -0.8850 -1.1726  1.8753
 4682TIP3   OH235536   3.013   2.238  11.699 -0.1950  0.0998  0.0292
 4682TIP3    H135537   3.013   2.278  11.612 -0.9846  2.3949  1.0529
 4682TIP3    H235538   3.101   2.200  11.708  0.5490  1.5168 -1.0248
 4683TIP3   OH235539   1.036   4.816  12.399 -0.6778  0.3923  0.1094
 4683TIP3    H135540   0.942   4.806  12.413 -0.5133  0.9695  1.7823
 4683TIP3    H235541   1.048   4.911  12.387 -0.4798  0.1718 -1.4589
 4684TIP3   OH235542   4.525   6.563   3.185 -0.1727  1.2022 -0.2870
 4684TIP3    H135543   4.466   6.633   3.157 -1.5386  0.1887  0.0165
 4684TIP3    H235544   4.516   6.495   3.119  0.2696  0.8359  0.0231
 4685TIP3   OH235545   4.474   0.758  15.962 -0.3079  0.0125 -0.5968
 4685TIP3    H135546   4.558   0.798  15.943 -0.2052 -0.6147 -1.4693
 4685TIP3    H235547   4.420   0.829  15.997 -0.0102  0.8148 -1.7879
 4686TIP3   OH235548   2.165   0.391  11.890  0.6731 -0.3904  0.5637
 4686TIP3    H135549   2.227   0.406  11.962  0.6859  0.5378  0.3645
 4686TIP3    H235550   2.217   0.406  11.811  0.5437 -0.9612  0.3733
 4687TIP3   OH235551   6.242   6.373   0.897 -0.2532  0.1475  0.4900
 4687TIP3    H135552   6.292   6.404   0.973  0.5682  0.5620 -0.2130
 4687TIP3    H235553   6.269   6.431   0.825 -0.2697 -0.8795 -0.3597
 4688TIP3   OH235554   1.606   0.716  15.509 -0.2096  0.4840 -0.3157
 4688TIP3    H135555   1.585   0.686  15.420 -0.1150  1.3681 -0.6444
 4688TIP3    H235556   1.526   0.758  15.539 -1.0749 -1.9671  0.9837
 4689TIP3   OH235557   5.072   1.254   6.577 -0.3684 -0.4777  0.1740
 4689TIP3    H135558   5.036   1.245   6.665  1.5655 -0.3930  0.9962
 4689TIP3    H235559   5.054   1.171   6.534  0.0409 -1.0918  1.1788
 4690TIP3   OH235560   4.761   6.529   5.106 -0.0415  0.0684  0.4357
 4690TIP3    H135561   4.672   6.494   5.096 -0.0231  0.0918  0.2059
 4690TIP3    H235562   4.777   6.578   5.026 -0.0430  0.5488  0.7289
 4691TIP3   OH235563   3.512   6.593  15.843  0.1874 -0.4703  0.1500
 4691TIP3    H135564   3.574   6.665  15.828 -2.9577  1.9745 -1.7281
 4691TIP3    H235565   3.547   6.521  15.791  1.7988  0.6298 -0.3540
 4692TIP3   OH235566   5.123   5.076   1.608 -0.1385 -0.4691  0.4106
 4692TIP3    H135567   5.112   4.981   1.605  0.6310 -0.5470 -0.2061
 4692TIP3    H235568   5.081   5.103   1.689  1.1603 -1.5472  1.4711
 4693TIP3   OH235569   0.698   5.374  15.243  0.3673  0.2404  0.2015
 4693TIP3    H135570   0.793   5.362  15.244  0.1871 -1.3436 -0.7796
 4693TIP3    H235571   0.681   5.424  15.163  0.2643 -0.3675 -0.1530
 4694TIP3   OH235572   0.274   0.820  15.955  0.4106 -0.8726  0.2161
 4694TIP3    H135573   0.338   0.889  15.939 -3.0553  2.2669 -0.8701
 4694TIP3    H235574   0.284   0.799  16.048  2.6307 -0.1291  0.1755
 4695TIP3   OH235575   6.558   4.773  10.618  0.3992  0.4570  0.2606
 4695TIP3    H135576   6.512   4.843  10.664  0.3594  0.2398  0.5544
 4695TIP3    H235577   6.499   4.746  10.548 -0.2825 -0.3698  1.1277
 4696TIP3   OH235578   1.352   3.896  11.998 -0.1309  0.0147  0.4230
 4696TIP3    H135579   1.430   3.944  11.970  0.1132 -1.6424 -1.8153
 4696TIP3    H235580   1.299   3.888  11.919 -0.3080 -3.1016  0.7982
 4697TIP3   OH235581   3.358   2.599   5.670  0.1977 -0.2510  0.2205
 4697TIP3    H135582   3.424   2.609   5.602 -0.1025  0.7680  0.0625
 4697TIP3    H235583   3.359   2.506   5.693  1.7121 -0.2262  0.2583
 4698TIP3   OH235584   3.211   1.810   1.956 -0.2029  0.6510 -0.0873
 4698TIP3    H135585   3.306   1.813   1.960 -0.1794 -0.7523  0.6683
 4698TIP3    H235586   3.191   1.749   1.885 -0.5667  2.3522 -1.4896
 4699TIP3   OH235587   1.472   5.309  11.498 -0.4095 -0.4743 -0.6380
 4699TIP3    H135588   1.382   5.341  11.507  0.3938  1.8666 -0.4247
 4699TIP3    H235589   1.521   5.357  11.565  0.9245 -2.0911 -0.4092
 4700TIP3   OH235590   4.972   4.483   4.335 -0.3850  0.4772  0.3623
 4700TIP3    H135591   5.058   4.523   4.350  0.9905 -1.7211 -1.1371
 4700TIP3    H235592   4.973   4.403   4.388 -0.5374 -0.7508 -1.4124
 4701TIP3   OH235593   5.810   5.189   4.873  0.6210  0.2587 -0.0966
 4701TIP3    H135594   5.802   5.133   4.796  0.2222  0.4047 -0.1601
 4701TIP3    H235595   5.863   5.263   4.844  2.3134 -0.7415  0.3460
 4702TIP3   OH235596   5.484   6.501  16.220 -0.6741 -0.2611 -0.4575
 4702TIP3    H135597   5.540   6.423  16.229  0.1806  0.1486 -2.0315
 4702TIP3    H235598   5.482   6.539  16.308  2.3024  0.2317 -0.5555
 4703TIP3   OH235599   1.630   3.395   5.163  0.0249 -0.1390 -0.5252
 4703TIP3    H135600   1.625   3.467   5.225 -1.2213 -0.8340  0.1863
 4703TIP3    H235601   1.631   3.437   5.077  3.3529  0.9107 -0.0431
 4704TIP3   OH235602   6.752   4.663   6.185 -0.0964  0.3172 -0.1236
 4704TIP3    H135603   6.811   4.590   6.199  1.5804  1.8557  0.9596
 4704TIP3    H235604   6.674   4.641   6.236  1.2336  0.2765  1.9356
 4705TIP3   OH235605   0.167   1.607  15.937  0.4664  0.0137 -0.0912
 4705TIP3    H135606   0.227   1.541  15.903  1.8107 -0.4883  3.0743
 4705TIP3    H235607   0.213   1.644  16.012 -1.2632  2.9346 -0.3949
 4706TIP3   OH235608   4.753   1.520   4.338  0.5943  0.0641  0.1745
 4706TIP3    H135609   4.752   1.477   4.253 -0.7934  1.3253 -0.4621
 4706TIP3    H235610   4.746   1.614   4.319  0.0501  0.3528  1.6672
 4707TIP3   OH235611   0.215   0.641   1.106 -0.2566  0.4582 -0.2981
 4707TIP3    H135612   0.201   0.731   1.138 -0.7338 -0.0198  0.8625
 4707TIP3    H235613   0.177   0.641   1.018 -1.6089  0.9805  0.2754
 4708TIP3   OH235614   5.623   2.864   1.646 -0.7495 -0.9419  0.0728
 4708TIP3    H135615   5.601   2.795   1.708  0.2228 -2.6475 -1.4190
 4708TIP3    H235616   5.712   2.843   1.619 -0.7301  0.4730 -0.9883
 4709TIP3   OH235617   0.945   0.131  13.501  0.0268  0.5489 -0.0887
 4709TIP3    H135618   0.855   0.163  13.509 -0.1284  0.0867  0.0345
 4709TIP3    H235619   0.996   0.209  13.478 -0.2139  1.0644  1.0712
 4710TIP3   OH235620   0.914   2.630   6.039  0.7646  0.2014 -0.1793
 4710TIP3    H135621   0.953   2.710   6.006  1.1270  0.6814  1.3791
 4710TIP3    H235622   0.880   2.653   6.125 -0.9141 -0.8030 -0.5378
 4711TIP3   OH235623   4.480   2.465  13.661 -0.1403 -0.0607 -0.1136
 4711TIP3    H135624   4.570   2.435  13.662 -0.3089 -0.5742  0.0313
 4711TIP3    H235625   4.460   2.480  13.569  0.6457  1.7715 -0.0012
 4712TIP3   OH235626   1.482   0.829   0.197 -0.0457  0.0081 -0.1485
 4712TIP3    H135627   1.494   0.913   0.241  0.4623 -0.8496  1.3649
 4712TIP3    H235628   1.493   0.763   0.266 -1.4918 -1.2713 -1.0983
 4713TIP3   OH235629   3.152   3.590  16.704  0.0392 -0.0689  0.6278
 4713TIP3    H135630   3.175   3.673  16.747 -0.9008  1.4355 -1.6568
 4713TIP3    H235631   3.143   3.613  16.612  0.1809 -2.8426 -0.1187
 4714TIP3   OH235632   3.414   2.014   1.262 -0.3610 -0.5467 -0.3263
 4714TIP3    H135633   3.320   1.995   1.258 -0.4277 -0.1542 -0.5920
 4714TIP3    H235634   3.420   2.107   1.281 -0.0325 -0.2093 -2.0421
 4715TIP3   OH235635   0.467   0.801  11.129  0.1813 -0.0602  0.4972
 4715TIP3    H135636   0.449   0.894  11.112  0.6445  0.3094  1.9586
 4715TIP3    H235637   0.504   0.768  11.047 -1.7632  0.5684 -0.6690
 4716TIP3   OH235638   0.402   1.509  14.666 -0.1465  0.2803  0.0375
 4716TIP3    H135639   0.481   1.557  14.690  0.7544 -0.2113 -1.8428
 4716TIP3    H235640   0.336   1.576  14.653  0.2689  0.7838  0.5218
 4717TIP3   OH235641   3.998   1.290  13.353 -0.8601  0.0109 -0.0503
 4717TIP3    H135642   4.044   1.369  13.380 -1.7006  1.6707 -3.3186
 4717TIP3    H235643   4.063   1.220  13.366  0.5672  1.4855  0.9827
 4718TIP3   OH235644   4.906   6.423   1.299  0.0642  0.7669  0.6234
 4718TIP3    H135645   4.918   6.379   1.215  0.5268  0.5334  0.8112
 4718TIP3    H235646   4.822   6.467   1.291 -1.0476 -1.2477  0.9060
 4719TIP3   OH235647   3.807   2.996   6.261  0.5620 -0.3354  0.3330
 4719TIP3    H135648   3.835   2.905   6.273  1.0286 -0.6703 -2.7703
 4719TIP3    H235649   3.712   2.991   6.253  0.4940 -0.4068  1.1170
 4720TIP3   OH235650   0.084   2.225  13.517 -0.6505 -0.2882  0.0242
 4720TIP3    H135651   0.024   2.237  13.590 -0.0594  2.3502  0.1293
 4720TIP3    H235652   0.169   2.255  13.550  0.0290 -0.8476 -1.1615
 4721TIP3   OH235653   2.940   0.320  16.547  0.4709 -0.0648 -0.0011
 4721TIP3    H135654   2.980   0.402  16.574  0.8572 -0.2665  0.0523
 4721TIP3    H235655   2.952   0.262  16.622  0.0130 -0.1045  0.0388
 4722TIP3   OH235656   5.907   0.517  15.365  0.3017 -0.7805  0.0140
 4722TIP3    H135657   5.919   0.525  15.459 -0.2076 -0.3753  0.0461
 4722TIP3    H235658   5.983   0.466  15.335  2.5387  2.3473  0.1134
 4723TIP3   OH235659   3.073   3.554   4.479  0.6144 -0.0360  0.2247
 4723TIP3    H135660   3.089   3.473   4.528 -0.2706  0.1068  0.7632
 4723TIP3    H235661   3.081   3.624   4.545  1.8615  0.3665 -0.3323
 4724TIP3   OH235662   3.002   1.464   2.855  0.2717  0.8881 -0.0811
 4724TIP3    H135663   3.033   1.463   2.946  0.0843  0.3635 -0.0215
 4724TIP3    H235664   2.992   1.371   2.833 -1.6164  1.0602  0.0166
 4725TIP3   OH235665   3.872   5.072   0.779  0.3995 -0.8080  0.3931
 4725TIP3    H135666   3.783   5.046   0.754  0.1592  0.1337  0.2491
 4725TIP3    H235667   3.861   5.114   0.865  0.4330  0.9739 -0.4561
 4726TIP3   OH235668   6.708   1.255  14.061 -0.3274 -0.1553  0.0205
 4726TIP3    H135669   6.694   1.177  14.009 -1.3052  0.1522 -0.1955
 4726TIP3    H235670   6.755   1.315  14.003  1.5082 -1.0259  0.5912
 4727TIP3   OH235671   4.817   4.546   5.069 -0.6475 -0.8236  0.0937
 4727TIP3    H135672   4.848   4.567   4.980 -0.7537 -2.5939 -0.3771
 4727TIP3    H235673   4.845   4.456   5.083 -3.1059 -1.5128  0.7469
 4728TIP3   OH235674   2.218   2.783  17.059 -0.2724 -0.1598  0.3019
 4728TIP3    H135675   2.208   2.867  17.014 -0.8205 -0.4115 -0.0553
 4728TIP3    H235676   2.234   2.721  16.988  2.4726  0.0119  0.7431
 4729TIP3   OH235677   5.490   1.599   3.758  0.1889  0.5429  0.4209
 4729TIP3    H135678   5.471   1.654   3.834 -2.0527  0.8267 -0.2946
 4729TIP3    H235679   5.442   1.641   3.686  2.0382  0.1260 -1.1059
 4730TIP3   OH235680   0.791   6.782  12.323  0.5123 -0.0002 -0.0289
 4730TIP3    H135681   0.872   6.800  12.371 -0.2334  0.7273  0.9778
 4730TIP3    H235682   0.820   6.742  12.242  1.9119  0.5349  0.1871
 4731TIP3   OH235683   3.541   0.809  15.864  0.4827  0.2629  0.4360
 4731TIP3    H135684   3.588   0.891  15.849  0.0262  0.3708 -0.4362
 4731TIP3    H235685   3.608   0.742  15.864  0.8651  0.6370  1.1851
 4732TIP3   OH235686   1.944   3.708  16.630 -0.1959  0.3991 -0.1012
 4732TIP3    H135687   1.923   3.740  16.543 -2.4709 -1.1646 -0.1523
 4732TIP3    H235688   1.930   3.613  16.625 -0.0420  0.2528  1.8838
 4733TIP3   OH235689   4.511   6.292  16.904 -0.2313 -0.0569 -0.2776
 4733TIP3    H135690   4.458   6.357  16.951  1.0163  1.2642 -0.6491
 4733TIP3    H235691   4.589   6.340  16.878  1.1696 -1.9736  0.2734
 4734TIP3   OH235692   0.324   0.397  15.302 -0.2289  0.5251 -0.6225
 4734TIP3    H135693   0.334   0.386  15.207  1.0329 -0.2620 -0.4181
 4734TIP3    H235694   0.412   0.382  15.337 -0.9397 -0.5143  0.7837
 4735TIP3   OH235695   2.855   1.117  12.317  0.1307  0.0070 -0.4315
 4735TIP3    H135696   2.801   1.086  12.244 -0.2451 -1.5663  0.4812
 4735TIP3    H235697   2.945   1.109  12.285  0.0788 -2.7010 -0.0208
 4736TIP3   OH235698   1.600   2.890  14.826  0.0976  0.1142  0.0984
 4736TIP3    H135699   1.591   2.807  14.871 -2.9798 -0.6116 -1.6977
 4736TIP3    H235700   1.552   2.953  14.880  1.7137  0.5807  1.0215
 4737TIP3   OH235701   5.130   3.430   6.037 -0.6099 -0.0062 -0.0665
 4737TIP3    H135702   5.215   3.440   6.078 -0.5604 -0.8688  0.0448
 4737TIP3    H235703   5.150   3.417   5.944 -0.6685  0.7119 -0.1877
 4738TIP3   OH235704   6.317   1.594   2.854 -0.0769  0.0057 -0.8887
 4738TIP3    H135705   6.252   1.592   2.925  0.4105 -1.3227 -0.4613
 4738TIP3    H235706   6.268   1.569   2.776 -0.8007  2.2571 -1.2126
 4739TIP3   OH235707   5.693   3.960  12.788 -0.4729 -0.0231 -0.2311
 4739TIP3    H135708   5.706   4.051  12.812  0.3114 -0.5316  1.3695
 4739TIP3    H235709   5.751   3.911  12.847 -2.9586 -1.7385  0.8902
 4740TIP3   OH235710   3.406   5.494  10.944  0.4057 -0.0336  0.7393
 4740TIP3    H135711   3.422   5.409  10.984 -1.1066  0.3413  2.2293
 4740TIP3    H235712   3.493   5.531  10.928  1.1250 -2.6040 -1.6648
 4741TIP3   OH235713   4.159   3.899   2.671  0.5576  0.0590 -0.2377
 4741TIP3    H135714   4.075   3.851   2.669  0.9651 -0.6294 -1.5264
 4741TIP3    H235715   4.224   3.833   2.648  1.3455  0.8240 -0.1995
 4742TIP3   OH235716   5.471   2.495   1.191  0.3192 -0.2854 -0.6908
 4742TIP3    H135717   5.514   2.562   1.138  0.4664 -0.0431 -0.2616
 4742TIP3    H235718   5.379   2.498   1.163  0.3111  0.1431 -0.6224
 4743TIP3   OH235719   4.978   3.628   2.661 -0.2969 -0.0877  0.4349
 4743TIP3    H135720   4.983   3.710   2.612  0.3729  0.4154  1.3223
 4743TIP3    H235721   4.976   3.655   2.753 -0.1119 -1.0665  0.7332
 4744TIP3   OH235722   6.737   0.472   1.975 -0.4017  0.1256 -0.7564
 4744TIP3    H135723   6.785   0.543   1.932  0.4012  1.1818  1.7609
 4744TIP3    H235724   6.683   0.517   2.041 -1.8303 -1.4054 -0.8451
 4745TIP3   OH235725   5.372   2.834   3.459 -0.0408  0.1317 -0.3387
 4745TIP3    H135726   5.350   2.745   3.430 -0.4362  0.0620  0.1639
 4745TIP3    H235727   5.298   2.887   3.431  0.1253  0.2736 -0.5041
 4746TIP3   OH235728   6.494   4.035  14.263 -0.5991  0.2837 -0.4394
 4746TIP3    H135729   6.419   4.080  14.224 -1.6337 -0.6435  0.4529
 4746TIP3    H235730   6.455   3.968  14.319  0.9014 -1.6297 -1.6102
 4747TIP3   OH235731   4.784   6.561  11.793  0.4302 -0.2669 -0.6836
 4747TIP3    H135732   4.698   6.603  11.803 -0.3704 -2.1183  0.5437
 4747TIP3    H235733   4.790   6.539  11.700  0.2070  1.1545 -1.0442
 4748TIP3   OH235734   2.215   3.593   6.944  0.2010  0.1882  0.1202
 4748TIP3    H135735   2.179   3.577   6.856  0.8092 -0.0679 -0.0853
 4748TIP3    H235736   2.310   3.590   6.931  0.3128 -2.7569  1.3220
 4749TIP3   OH235737   4.255   5.827  13.728  0.3706  0.0655  0.2438
 4749TIP3    H135738   4.193   5.755  13.737 -0.4735  0.6736 -0.6439
 4749TIP3    H235739   4.335   5.795  13.770  0.2284 -1.6509 -0.7380
 4750TIP3   OH235740   1.483   1.220   2.075  0.4377  0.1924 -0.6205
 4750TIP3    H135741   1.412   1.281   2.092  0.3474 -0.3748  1.0895
 4750TIP3    H235742   1.438   1.137   2.055  0.5906  0.2954 -1.4119
 4751TIP3   OH235743   4.307   1.915  12.461  0.4268 -0.0691 -0.3050
 4751TIP3    H135744   4.377   1.973  12.430  0.0443 -0.0085 -1.0635
 4751TIP3    H235745   4.227   1.967  12.454  0.4286  0.2004  1.5041
 4752TIP3   OH235746   3.380   3.283   3.389  0.0023 -0.0157 -0.2965
 4752TIP3    H135747   3.452   3.239   3.344  0.6449  0.3536  0.3577
 4752TIP3    H235748   3.368   3.232   3.470 -1.1645 -0.6982 -0.8875
 4753TIP3   OH235749   2.084   4.733  16.320 -0.6113  0.5300  0.0661
 4753TIP3    H135750   2.023   4.734  16.394 -0.9338  3.1668 -0.1611
 4753TIP3    H235751   2.167   4.762  16.358 -0.2877 -0.0037 -0.2336
 4754TIP3   OH235752   5.856   2.142  13.025 -0.2923  0.3398 -0.3174
 4754TIP3    H135753   5.893   2.138  13.114  2.8922 -0.5423 -1.6108
 4754TIP3    H235754   5.846   2.050  13.000 -4.5805  0.5132  0.3789
 4755TIP3   OH235755   0.074   0.743  12.063  0.0350  0.5404  0.6169
 4755TIP3    H135756   0.104   0.769  11.976 -0.0103 -3.0668 -0.5577
 4755TIP3    H235757   0.154   0.720  12.110 -0.2020 -1.4783  0.0982
 4756TIP3   OH235758   1.300   3.255  16.821 -0.0934  0.1643  0.6225
 4756TIP3    H135759   1.236   3.222  16.757 -2.1545 -0.9432  3.1484
 4756TIP3    H235760   1.376   3.280  16.768 -0.5144 -3.6200 -1.9726
 4757TIP3   OH235761   4.584   3.660   4.190 -0.6144 -0.3207  0.7150
 4757TIP3    H135762   4.494   3.628   4.200 -0.8597 -0.5183 -1.9363
 4757TIP3    H235763   4.576   3.756   4.190 -0.8217 -0.3386  0.5417
 4758TIP3   OH235764   4.102   3.386  17.126  0.0651  0.4450 -0.1471
 4758TIP3    H135765   4.119   3.409  17.218  3.2055 -0.0825 -0.5461
 4758TIP3    H235766   4.059   3.301  17.130  0.0423  0.4960  0.8150
 4759TIP3   OH235767   0.936   5.717   2.637 -0.4714 -0.5776 -0.2377
 4759TIP3    H135768   1.031   5.713   2.627 -0.2292  1.2480  1.0954
 4759TIP3    H235769   0.912   5.805   2.609 -2.0442 -1.6661 -2.4555
 4760TIP3   OH235770   1.849   1.853  13.070 -0.4161  0.1863  0.1528
 4760TIP3    H135771   1.855   1.816  13.158  0.0519 -1.8260 -0.6971
 4760TIP3    H235772   1.755   1.852  13.049 -0.4166 -0.4106  0.1857
 4761TIP3   OH235773   3.175   4.577  14.669 -0.0856  0.1758 -0.1701
 4761TIP3    H135774   3.132   4.602  14.751  1.1153  1.4301  0.0964
 4761TIP3    H235775   3.230   4.652  14.648  0.5969 -0.6842 -1.4515
 4762TIP3   OH235776   5.678   2.585  15.938  0.3510  0.1016  0.0303
 4762TIP3    H135777   5.614   2.638  15.891  0.9598  0.6554 -0.1770
 4762TIP3    H235778   5.735   2.649  15.981  0.2872 -0.3944  0.8598
 4763TIP3   OH235779   1.634   4.917  12.950  0.3340  0.1394 -0.5212
 4763TIP3    H135780   1.684   4.976  13.006  0.6072 -1.5210  1.0200
 4763TIP3    H235781   1.547   4.956  12.946  0.5211  0.6748  0.4527
 4764TIP3   OH235782   2.038   2.726   3.512 -0.2539 -0.2375 -0.3662
 4764TIP3    H135783   1.985   2.688   3.442  1.1837 -1.7171 -0.6802
 4764TIP3    H235784   2.128   2.707   3.487  0.4888  2.6051 -0.0627
 4765TIP3   OH235785   2.178   6.246   0.731 -0.9665 -0.0640 -0.2556
 4765TIP3    H135786   2.174   6.169   0.787 -0.4779  0.6681  0.8100
 4765TIP3    H235787   2.144   6.317   0.787  1.5566  1.0975 -0.1449
 4766TIP3   OH235788   4.199   3.433  14.031  0.0765 -0.1722 -0.1220
 4766TIP3    H135789   4.216   3.340  14.018  1.3841 -0.0518  0.6044
 4766TIP3    H235790   4.233   3.475  13.952  1.8742 -0.0836  0.6621
 4767TIP3   OH235791   5.922   0.129  13.293  0.3951  0.1667  0.3437
 4767TIP3    H135792   5.847   0.110  13.237  0.2010 -2.0401  1.3131
 4767TIP3    H235793   5.993   0.148  13.232 -0.8596  2.0490 -0.5884
 4768TIP3   OH235794   0.468   6.664  15.536  0.1773 -0.4218  0.0373
 4768TIP3    H135795   0.434   6.744  15.578  2.1729 -0.2991  1.5100
 4768TIP3    H235796   0.393   6.605  15.533 -0.6624  0.5269  1.4615
 4769TIP3   OH235797   4.527   5.103   3.320  0.1402 -0.2025 -0.5160
 4769TIP3    H135798   4.594   5.044   3.285  1.1141 -0.3544  1.5234
 4769TIP3    H235799   4.459   5.045   3.353  0.7462 -0.1638  0.8054
 4770TIP3   OH235800   4.674   6.453   2.541 -0.3289  0.3005  0.4592
 4770TIP3    H135801   4.668   6.543   2.575  0.9804  1.2932 -1.8106
 4770TIP3    H235802   4.603   6.447   2.478 -1.6554 -0.9498  2.0377
 4771TIP3   OH235803   3.132   0.668   6.329 -0.4730  0.6235  0.0769
 4771TIP3    H135804   3.205   0.639   6.274 -1.4891  1.0141 -1.5144
 4771TIP3    H235805   3.149   0.760   6.345  0.0775  0.3937  0.8354
 4772TIP3   OH235806   2.348   5.904  11.823  0.4373 -0.6610  0.6569
 4772TIP3    H135807   2.398   5.836  11.777  3.0824  0.4448  1.7889
 4772TIP3    H235808   2.341   5.871  11.913  1.8191  0.5450  1.2344
 4773TIP3   OH235809   1.594   1.252   4.294  0.4018 -0.0612 -0.3069
 4773TIP3    H135810   1.649   1.319   4.336  0.2928 -0.6821  0.8361
 4773TIP3    H235811   1.569   1.291   4.210  1.6565  0.6834 -0.3381
 4774TIP3   OH235812   3.127   2.943   0.390  0.6091  0.1293 -0.1657
 4774TIP3    H135813   3.198   3.005   0.373  0.0316  0.6005 -0.8661
 4774TIP3    H235814   3.120   2.893   0.309 -1.7450  1.9686 -1.1501
 4775TIP3   OH235815   3.461   3.330  16.280 -0.1707  0.5737 -0.3473
 4775TIP3    H135816   3.488   3.247  16.319  1.7944  0.8329 -1.0676
 4775TIP3    H235817   3.398   3.367  16.342  0.2903 -0.6252  0.8518
 4776TIP3   OH235818   5.170   6.587   0.786 -0.2825  0.5591 -0.2335
 4776TIP3    H135819   5.103   6.651   0.813 -1.6039 -0.6227 -0.6469
 4776TIP3    H235820   5.236   6.592   0.855 -1.2534  1.0800  0.6806
 4777TIP3   OH235821   1.087   1.415   0.130 -0.5463  0.2138 -0.2493
 4777TIP3    H135822   1.119   1.464   0.205 -0.6628 -1.5077  0.9416
 4777TIP3    H235823   1.082   1.480   0.059 -1.1863  2.0158  1.4076
 4778TIP3   OH235824   2.269   2.643  15.741  0.1275 -0.5449 -0.2645
 4778TIP3    H135825   2.318   2.595  15.675  2.1595  1.8439 -0.5393
 4778TIP3    H235826   2.182   2.657  15.702  0.9144 -0.2485 -1.9167
 4779TIP3   OH235827   6.815   1.924   4.061 -0.4232  0.3341  0.3508
 4779TIP3    H135828   6.723   1.913   4.037  0.1076 -2.5095 -0.6299
 4779TIP3    H235829   6.858   1.949   3.979 -0.3187  1.7782  0.8331
 4780TIP3   OH235830   0.318   6.769   1.258 -0.3010 -0.3676 -0.4609
 4780TIP3    H135831   0.291   6.708   1.189 -0.9224  1.0522 -1.4966
 4780TIP3    H235832   0.359   6.713   1.324  0.4090 -1.7555 -2.0253
 4781TIP3   OH235833   4.135   6.770  12.029 -0.4495 -0.1495 -0.1982
 4781TIP3    H135834   4.135   6.675  12.043 -1.2538 -0.0667  0.3512
 4781TIP3    H235835   4.055   6.801  12.071  0.1442  0.8637  0.2020
 4782TIP3   OH235836   2.025   3.679   5.337  0.1064 -0.1252 -0.0052
 4782TIP3    H135837   2.092   3.617   5.367  1.3819  1.4269  0.4801
 4782TIP3    H235838   2.072   3.736   5.276 -0.6555  1.2540  0.6762
 4783TIP3   OH235839   4.899   3.115   0.335 -1.1300 -0.6713 -0.3090
 4783TIP3    H135840   4.834   3.054   0.299 -0.5822 -0.4235 -1.7505
 4783TIP3    H235841   4.851   3.165   0.402 -2.5125 -0.2768 -1.5744
 4784TIP3   OH235842   0.802   4.399  14.635  0.3045  0.7556  0.3969
 4784TIP3    H135843   0.827   4.327  14.576  0.5230  0.5985  0.6770
 4784TIP3    H235844   0.885   4.444  14.654 -0.1327  2.4928 -1.6038
 4785TIP3   OH235845   3.521   3.683   4.316  0.2498 -0.4691  0.1864
 4785TIP3    H135846   3.579   3.757   4.335 -0.8886  0.1156  1.4712
 4785TIP3    H235847   3.463   3.679   4.392 -2.4072 -0.0738 -1.7598
 4786TIP3   OH235848   3.295   5.140   0.944  0.1504  0.5185 -0.9644
 4786TIP3    H135849   3.342   5.196   1.007 -2.5536  1.5307  0.2315
 4786TIP3    H235850   3.336   5.055   0.953  1.2547  1.1931  0.6153
 4787TIP3   OH235851   5.626   4.671  17.097  0.3572  0.5484 -0.2154
 4787TIP3    H135852   5.709   4.623  17.101 -0.2847 -0.9313 -3.1687
 4787TIP3    H235853   5.581   4.647  17.177  1.6630 -0.7642  0.1575
 4788TIP3   OH235854   5.461   2.680  14.238  0.0258 -0.4429  0.4038
 4788TIP3    H135855   5.505   2.677  14.323  0.6892  2.7309  0.2199
 4788TIP3    H235856   5.530   2.658  14.175  0.7812  1.9651  0.3338
 4789TIP3   OH235857   5.015   1.863   2.301 -0.2327  0.1605 -0.4750
 4789TIP3    H135858   4.976   1.799   2.241 -0.4814 -1.3846  1.2861
 4789TIP3    H235859   4.950   1.872   2.371  0.7214  0.7855  0.3358
 4790TIP3   OH235860   0.349   4.753   4.830 -0.8224  0.5438  0.6092
 4790TIP3    H135861   0.289   4.765   4.757 -0.1879  0.6709  0.1085
 4790TIP3    H235862   0.435   4.778   4.796 -0.2292 -1.0314  0.8691
 4791TIP3   OH235863   1.881   5.113  16.917 -0.1726  0.2596 -0.0968
 4791TIP3    H135864   1.892   5.095  16.823  1.2063  0.2933  0.0450
 4791TIP3    H235865   1.892   5.028  16.959  1.3878  0.5850  0.1902
 4792TIP3   OH235866   0.641   4.304   0.533  0.6891  0.2083 -0.3939
 4792TIP3    H135867   0.651   4.282   0.626 -1.3831 -0.1691 -0.2363
 4792TIP3    H235868   0.629   4.219   0.490 -1.9495  0.5900 -0.5021
 4793TIP3   OH235869   2.621   1.095   3.991  0.2726 -0.0028 -0.2342
 4793TIP3    H135870   2.698   1.041   3.976  0.2597  0.2138 -1.0872
 4793TIP3    H235871   2.654   1.173   4.035  0.4373 -0.2206  0.0323
 4794TIP3   OH235872   1.893   3.153  13.690  0.1303 -0.2218 -0.2995
 4794TIP3    H135873   1.850   3.197  13.763  1.5329  1.4996 -0.4590
 4794TIP3    H235874   1.851   3.189  13.612 -0.5647 -1.1892 -0.3779
 4795TIP3   OH235875   3.006   3.320  13.063 -0.0125 -0.5812 -0.0808
 4795TIP3    H135876   3.065   3.395  13.051  0.7494 -1.0166  0.9003
 4795TIP3    H235877   2.962   3.338  13.146 -0.7908 -0.5850 -0.4905
 4796TIP3   OH235878   3.936   6.529   0.506 -1.0073  0.3522 -0.1409
 4796TIP3    H135879   3.980   6.460   0.555 -0.4175  0.8975  0.1004
 4796TIP3    H235880   3.934   6.604   0.566 -2.7002  0.1789  0.0329
 4797TIP3   OH235881   4.676   1.610   2.535 -0.3130  0.0971 -0.0547
 4797TIP3    H135882   4.735   1.536   2.521  0.3732  0.4850  0.7255
 4797TIP3    H235883   4.590   1.578   2.509  0.3185 -0.3219 -1.7036
 4798TIP3   OH235884   5.512   0.841  11.724 -0.1405 -0.5531 -0.4454
 4798TIP3    H135885   5.497   0.797  11.641  1.5661 -0.9566 -0.5599
 4798TIP3    H235886   5.560   0.777  11.777 -1.5737 -0.4527  0.9956
 4799TIP3   OH235887   6.708   3.457   1.388  0.4581 -0.2510  0.0522
 4799TIP3    H135888   6.776   3.409   1.435  0.8570 -0.7077 -0.9787
 4799TIP3    H235889   6.755   3.528   1.344  0.5005 -1.4261 -1.8448
 4800TIP3   OH235890   1.200   0.461   1.510  0.2521 -0.2781 -0.7224
 4800TIP3    H135891   1.222   0.452   1.603 -0.7317 -1.2624 -0.5635
 4800TIP3    H235892   1.229   0.379   1.470  2.3728  0.8977 -1.6590
 4801TIP3   OH235893   5.950   2.571  16.777 -0.1234  0.2714  0.3365
 4801TIP3    H135894   5.926   2.583  16.869  1.0411  2.7476  0.3674
 4801TIP3    H235895   5.871   2.593  16.728 -1.6203 -3.8066  0.7764
 4802TIP3   OH235896   1.050   5.279  11.195 -0.1855  0.1367  0.0700
 4802TIP3    H135897   0.995   5.201  11.206  2.0655 -1.6101 -0.7786
 4802TIP3    H235898   1.022   5.317  11.112 -1.1164  0.1205  0.3675
 4803TIP3   OH235899   1.414   2.483  14.672 -0.3944  0.7494 -0.3106
 4803TIP3    H135900   1.394   2.576  14.673 -1.9146  0.4356  0.8091
 4803TIP3    H235901   1.423   2.459  14.764  2.9810  0.3747 -0.6711
 4804TIP3   OH235902   3.630   5.368  12.494 -0.5162  0.2277 -0.4911
 4804TIP3    H135903   3.592   5.394  12.410 -0.2999  0.1398 -0.6177
 4804TIP3    H235904   3.720   5.400  12.490  0.1950 -1.8042 -1.2427
 4805TIP3   OH235905   4.065   0.673  15.962  0.5362 -0.2989 -0.1032
 4805TIP3    H135906   4.136   0.678  15.898  1.8486  1.7038  1.4463
 4805TIP3    H235907   4.108   0.643  16.043 -0.6610 -0.4886  0.4781
 4806TIP3   OH235908   2.782   4.519  14.441  0.5922 -0.2968  0.2718
 4806TIP3    H135909   2.734   4.555  14.516 -1.0202 -0.0470 -0.8524
 4806TIP3    H235910   2.837   4.592  14.412  0.3241 -0.0069  0.4765
 4807TIP3   OH235911   5.685   6.091  16.582 -0.3513 -0.0981  0.4405
 4807TIP3    H135912   5.676   6.054  16.670 -0.5178  0.1545  0.5340
 4807TIP3    H235913   5.617   6.048  16.530  1.2620 -1.9904 -0.1667
 4808TIP3   OH235914   2.905   6.112   2.020 -0.5781  0.0996 -0.0233
 4808TIP3    H135915   2.875   6.083   1.934 -0.5404  0.4833 -0.1671
 4808TIP3    H235916   2.923   6.031   2.068  3.7825 -0.1754 -1.8874
 4809TIP3   OH235917   2.611   6.414   3.151 -0.0616  0.3429 -0.2495
 4809TIP3    H135918   2.676   6.483   3.162  1.4682 -0.8666 -1.5595
 4809TIP3    H235919   2.551   6.448   3.084  0.5731  0.4852 -0.7477
 4810TIP3   OH235920   1.694   2.796  14.446 -0.0605 -0.2802 -0.7854
 4810TIP3    H135921   1.647   2.875  14.471 -1.8112 -1.7657  0.7662
 4810TIP3    H235922   1.773   2.797  14.500 -1.5958 -1.1306  1.5433
 4811TIP3   OH235923   4.165   6.357  14.313 -0.1622  0.0273  0.5939
 4811TIP3    H135924   4.173   6.283  14.252 -0.6607 -0.5087  1.1679
 4811TIP3    H235925   4.125   6.319  14.391 -1.3043  1.0961  0.5530
 4812TIP3   OH235926   0.153   1.560  14.167  0.1135  0.3614 -0.3902
 4812TIP3    H135927   0.218   1.491  14.160  0.2276  0.3310  0.9454
 4812TIP3    H235928   0.088   1.539  14.100  0.8310 -0.2958 -0.8785
 4813TIP3   OH235929   1.459   2.955  15.689 -0.5659 -0.1378  0.2134
 4813TIP3    H135930   1.470   2.876  15.636  2.2138  0.8764 -0.8158
 4813TIP3    H235931   1.501   2.934  15.772  0.1159  0.1924 -0.0374
 4814TIP3   OH235932   4.700   1.657  15.163 -0.4905 -0.0201 -0.0663
 4814TIP3    H135933   4.615   1.660  15.207 -0.5176 -1.1076 -0.0339
 4814TIP3    H235934   4.718   1.564  15.152 -1.0706  0.1858 -3.4638
 4815TIP3   OH235935   3.636   2.062  16.405 -0.1172  0.4284 -0.1875
 4815TIP3    H135936   3.565   2.106  16.452 -0.4281 -0.7165  0.4501
 4815TIP3    H235937   3.635   2.100  16.318 -1.1150  0.8652  0.0074
 4816TIP3   OH235938   1.461   5.939  12.493  0.4053 -0.2532  0.1628
 4816TIP3    H135939   1.392   5.962  12.429  0.5754  1.5999  0.6097
 4816TIP3    H235940   1.413   5.904  12.568  0.2957 -4.2144 -1.6212
 4817TIP3   OH235941   1.813   0.757   5.684  0.4937  0.1970  0.3982
 4817TIP3    H135942   1.785   0.801   5.603  0.9109  0.3397  0.3269
 4817TIP3    H235943   1.901   0.724   5.664 -0.1136 -1.3396  0.2062
 4818TIP3   OH235944   1.515   0.166  13.974 -0.3737  0.8741  0.2839
 4818TIP3    H135945   1.589   0.106  13.970  1.7892  3.5223 -0.1187
 4818TIP3    H235946   1.476   0.151  14.061 -0.1930 -1.4391 -0.0147
 4819TIP3   OH235947   2.378   5.062  10.907  0.2898 -0.2492  0.5580
 4819TIP3    H135948   2.367   5.146  10.863 -0.0062 -0.3850  0.3773
 4819TIP3    H235949   2.305   5.009  10.877  1.9187 -1.4590 -1.3940
 4820TIP3   OH235950   0.597   4.541  14.719  0.2121  0.8348 -0.3283
 4820TIP3    H135951   0.546   4.465  14.748 -0.9727  2.1000  0.9953
 4820TIP3    H235952   0.684   4.507  14.703 -0.5140 -0.9629 -0.5389
 4821TIP3   OH235953   1.029   3.290  13.395 -0.2128  0.1801  0.2450
 4821TIP3    H135954   0.938   3.292  13.368 -0.1118  2.9276 -0.0435
 4821TIP3    H235955   1.072   3.355  13.339  1.5785  0.1189  1.5049
 4822TIP3   OH235956   2.152   0.819   3.116  0.2002  0.1631  0.6299
 4822TIP3    H135957   2.152   0.888   3.182 -2.2918  0.5811  0.2171
 4822TIP3    H235958   2.062   0.815   3.084  1.0837 -0.8934 -1.8704
 4823TIP3   OH235959   1.212   0.443  17.030 -0.5458  0.2520  0.3603
 4823TIP3    H135960   1.259   0.505  17.086  1.2598 -0.3983 -0.4025
 4823TIP3    H235961   1.220   0.359  17.075  0.3730 -0.1549 -0.5632
 4824TIP3   OH235962   4.002   1.620   2.116  0.1974  0.2489  0.1758
 4824TIP3    H135963   4.054   1.561   2.170 -0.7922  0.1698  1.0663
 4824TIP3    H235964   3.929   1.645   2.172 -0.8530  0.1763 -1.1333
 4825TIP3   OH235965   2.179   5.181  13.984 -0.2985  0.2188 -0.5120
 4825TIP3    H135966   2.228   5.169  14.065 -0.2479  0.2892 -0.5307
 4825TIP3    H235967   2.128   5.102  13.974 -1.4701  0.8484  0.3981
 4826TIP3   OH235968   2.805   1.959   0.771 -0.3043  0.3258  0.1031
 4826TIP3    H135969   2.816   1.893   0.702 -0.9738  2.1311 -1.7992
 4826TIP3    H235970   2.735   1.925   0.826 -1.6702  0.0613 -1.7137
 4827TIP3   OH235971   4.233   0.170   4.015 -0.0451  0.4739  0.4310
 4827TIP3    H135972   4.146   0.187   4.051  0.1465  0.5789  0.8434
 4827TIP3    H235973   4.286   0.244   4.044  0.5667 -0.3692  1.4935
 4828TIP3   OH235974   0.503   0.876  14.918  0.0301 -0.3876  0.4377
 4828TIP3    H135975   0.451   0.842  14.991 -0.8950 -0.6347 -0.3212
 4828TIP3    H235976   0.453   0.951  14.887  1.0389  0.4524  0.8180
 4829TIP3   OH235977   0.535   6.760  12.802 -0.0556 -0.8677  0.2662
 4829TIP3    H135978   0.574   6.676  12.779  1.2505 -0.3913  0.6585
 4829TIP3    H235979   0.600   6.802  12.858 -0.9104  0.1916  0.4858
 4830TIP3   OH235980   2.091   3.947  13.266 -0.1456 -0.0021  0.0793
 4830TIP3    H135981   2.101   3.997  13.348 -0.2007  1.9672 -1.0700
 4830TIP3    H235982   2.178   3.912  13.249  0.0716  0.2968  0.5411
 4831TIP3   OH235983   4.049   0.274  12.242  0.2579 -0.4189  0.7664
 4831TIP3    H135984   4.010   0.202  12.293  0.7010 -2.0165 -1.0718
 4831TIP3    H235985   4.021   0.256  12.152  0.5879  1.6050  0.2455
 4832TIP3   OH235986   2.103   5.070  16.293  0.4983  0.3141 -0.1615
 4832TIP3    H135987   2.080   5.159  16.319  2.8060  0.7441  0.5801
 4832TIP3    H235988   2.189   5.055  16.334 -0.3782 -2.6753  0.7315
 4833TIP3   OH235989   0.238   4.854  14.006 -0.6202  0.3081  0.1881
 4833TIP3    H135990   0.231   4.913  14.082  0.9403 -0.0107  0.5872
 4833TIP3    H235991   0.167   4.791  14.019 -0.8220  0.6962  1.0128
 4834TIP3   OH235992   4.473   1.019  14.726  0.2676 -0.1267 -0.4504
 4834TIP3    H135993   4.466   1.000  14.820 -0.9044  2.2494 -0.0016
 4834TIP3    H235994   4.395   0.979  14.687  0.7121 -1.0460 -0.3988
 4835TIP3   OH235995   5.210   2.553   0.458  0.0851 -0.3288  0.1872
 4835TIP3    H135996   5.144   2.496   0.497  1.3698 -0.3862  2.3829
 4835TIP3    H235997   5.289   2.498   0.455  1.4330  1.3754  2.6837
 4836TIP3   OH235998   6.559   1.847  15.460  0.1289  0.6065 -0.1384
 4836TIP3    H135999   6.564   1.767  15.512  0.5709 -0.0732 -1.2251
 4836TIP3    H236000   6.513   1.909  15.517  0.0873 -0.3035  0.8392
 4837TIP3   OH236001   3.724   0.277  11.251 -0.2026 -0.2291  0.3018
 4837TIP3    H136002   3.742   0.240  11.165  0.4209  1.4344 -0.2813
 4837TIP3    H236003   3.704   0.200  11.306 -1.3754 -1.2379 -1.4839
 4838TIP3   OH236004   3.602   1.185   0.546 -0.5704 -0.0736 -0.0818
 4838TIP3    H136005   3.598   1.234   0.464 -2.6043 -1.0850 -0.6253
 4838TIP3    H236006   3.573   1.247   0.612 -2.4330 -0.2797 -0.6660
 4839TIP3   OH236007   1.259   2.171   6.500  0.0134 -0.1801 -0.0862
 4839TIP3    H136008   1.296   2.249   6.459  2.9201 -0.9952  0.8512
 4839TIP3    H236009   1.166   2.175   6.480  0.6296  1.8218 -2.8327
 4840TIP3   OH236010   0.750   3.895  16.978  0.1346  0.2097 -0.0574
 4840TIP3    H136011   0.804   3.912  17.055  0.9420  0.8704 -0.7737
 4840TIP3    H236012   0.811   3.863  16.912 -0.9269 -3.0136  0.3963
 4841TIP3   OH236013   4.616   5.692  15.689 -0.2185  1.0100 -0.1912
 4841TIP3    H136014   4.650   5.761  15.745  1.6657 -0.8138  0.9655
 4841TIP3    H236015   4.521   5.699  15.699 -0.0485  3.0582  0.3293
 4842TIP3   OH236016   1.071   6.002   5.210 -0.4015  0.0528  0.1013
 4842TIP3    H136017   1.104   5.987   5.121 -0.8996  0.4726 -0.1547
 4842TIP3    H236018   1.066   5.914   5.249  1.8235  0.0349  0.4410
 4843TIP3   OH236019   0.154   4.102   4.786 -0.1218 -0.0502 -0.0710
 4843TIP3    H136020   0.234   4.152   4.801  0.2259 -0.2690 -1.1495
 4843TIP3    H236021   0.154   4.035   4.855  0.3985  0.2301  0.2023
 4844TIP3   OH236022   6.239   3.654   0.202  0.5923 -0.0242  0.1400
 4844TIP3    H136023   6.240   3.717   0.130  0.1386  1.7560  1.6762
 4844TIP3    H236024   6.326   3.663   0.243  0.1281  0.3948  1.0395
 4845TIP3   OH236025   3.136   3.096   5.555 -0.8142 -0.3937 -0.3573
 4845TIP3    H136026   3.133   3.179   5.508 -2.3361 -0.8477 -1.1064
 4845TIP3    H236027   3.139   3.030   5.487  1.0605 -0.9446  0.2500
 4846TIP3   OH236028   3.664   4.200  15.451 -0.4325 -0.0642  0.3346
 4846TIP3    H136029   3.588   4.226  15.397  0.7677  0.0564 -1.3450
 4846TIP3    H236030   3.711   4.282  15.465 -1.0523  0.0004  2.1017
 4847TIP3   OH236031   0.509   0.004  16.169 -0.3497  0.1566 -0.0275
 4847TIP3    H136032   0.427  -0.038  16.195  0.2307 -0.5655  0.6563
 4847TIP3    H236033   0.559   0.012  16.250  1.1567 -1.3958 -0.7585
 4848TIP3   OH236034   0.115   5.464  10.714 -0.0557 -0.3018  0.3258
 4848TIP3    H136035   0.030   5.418  10.713 -0.6239  0.7451  0.2473
 4848TIP3    H236036   0.113   5.519  10.636  0.3932  0.2839  0.7291
 4849TIP3   OH236037   6.633   0.864  12.032 -0.4611  0.3134  0.6565
 4849TIP3    H136038   6.698   0.934  12.044  0.2518  0.0562 -1.5662
 4849TIP3    H236039   6.685   0.787  12.010 -1.5363  0.2426 -1.7012
 4850TIP3   OH236040   0.852   2.686  14.691  0.6603 -0.4354 -0.3429
 4850TIP3    H136041   0.852   2.591  14.680 -1.2711 -0.5554  0.3814
 4850TIP3    H236042   0.872   2.720  14.604 -0.4562 -1.5042 -1.0401
 4851TIP3   OH236043   2.338   4.254   0.269 -0.0924 -0.9202  0.2411
 4851TIP3    H136044   2.398   4.316   0.229 -2.2217 -0.3943 -2.3247
 4851TIP3    H236045   2.362   4.252   0.362  1.7082  1.7098 -0.1377
 4852TIP3   OH236046   4.713   2.671   0.652 -0.3028 -0.1099  0.1169
 4852TIP3    H136047   4.722   2.690   0.558  1.3764 -0.8673  0.0949
 4852TIP3    H236048   4.661   2.591   0.655  0.6387 -0.7534 -0.2513
 4853TIP3   OH236049   4.510   4.625   2.421 -0.1652 -0.5712 -0.0988
 4853TIP3    H136050   4.474   4.703   2.463  0.8114 -0.7294  1.0879
 4853TIP3    H236051   4.526   4.565   2.494  0.4223 -1.3393 -0.8525
 4854TIP3   OH236052   2.288   3.736  16.819 -0.0064  0.5763  0.4164
 4854TIP3    H136053   2.318   3.677  16.749  2.5518  2.1847  0.0711
 4854TIP3    H236054   2.238   3.803  16.773 -3.0602 -1.2900  0.8252
 4855TIP3   OH236055   6.104   1.490   5.882 -0.3981 -0.7612  0.5833
 4855TIP3    H136056   6.116   1.407   5.929 -0.6076 -1.5722 -0.7775
 4855TIP3    H236057   6.110   1.557   5.950 -0.6988 -1.9202  1.7740
 4856TIP3   OH236058   5.419   1.293   0.782  0.8607 -0.3055 -0.1301
 4856TIP3    H136059   5.359   1.304   0.856  0.3691 -1.3718 -0.3521
 4856TIP3    H236060   5.506   1.304   0.821  0.5798 -0.1196  0.4640
 4857TIP3   OH236061   2.601   1.959  16.194 -0.2870  0.5927 -0.1742
 4857TIP3    H136062   2.661   1.884  16.193  0.5409  1.2054  1.0198
 4857TIP3    H236063   2.538   1.938  16.263  0.9953  1.7459  1.4022
 4858TIP3   OH236064   5.495   4.391  15.657 -0.0877 -0.5791  0.7133
 4858TIP3    H136065   5.587   4.405  15.678 -0.1755 -0.3430  0.9586
 4858TIP3    H236066   5.480   4.443  15.578 -0.1007 -0.3129  0.8897
 4859TIP3   OH236067   0.010   4.843  15.330 -0.2079  0.1715  0.7606
 4859TIP3    H136068  -0.065   4.815  15.383 -1.3610  1.6506 -0.0511
 4859TIP3    H236069   0.008   4.785  15.254 -0.3426  0.0171  0.8800
 4860TIP3   OH236070   0.162   1.123   3.812  0.1294 -0.1180 -0.3493
 4860TIP3    H136071   0.183   1.061   3.742 -1.5049 -0.7524 -0.3072
 4860TIP3    H236072   0.225   1.193   3.802 -0.0038 -0.2604 -2.3950
 4861TIP3   OH236073   5.293   0.308   3.821  0.3673 -0.0532 -1.0852
 4861TIP3    H136074   5.235   0.344   3.888 -0.4931 -0.7957 -1.4177
 4861TIP3    H236075   5.354   0.252   3.870  0.4674  0.3159 -0.7896
 4862TIP3   OH236076   0.926   6.256  12.184 -0.2788 -0.1110  0.1113
 4862TIP3    H136077   0.905   6.271  12.277  0.4787 -0.6221  0.3691
 4862TIP3    H236078   0.854   6.202  12.152 -0.9526  0.7254  0.1976
 4863TIP3   OH236079   2.289   5.992   1.550  0.1109 -0.2634 -0.2203
 4863TIP3    H136080   2.292   6.030   1.462  1.4751 -0.4573 -0.2660
 4863TIP3    H236081   2.241   6.057   1.602 -2.6519 -1.1656 -1.5790
 4864TIP3   OH236082   4.083   0.078   6.161  0.0191 -0.0434 -0.0472
 4864TIP3    H136083   3.993   0.086   6.192  0.5667  1.7918  1.1304
 4864TIP3    H236084   4.113  -0.006   6.195 -0.8496 -0.1079  0.5626
 4865TIP3   OH236085   4.803   1.916   5.629  0.2520  0.2066  0.0547
 4865TIP3    H136086   4.841   1.868   5.555 -0.4677  0.3345 -0.4127
 4865TIP3    H236087   4.708   1.907   5.617  0.1347 -1.4958  2.1218
 4866TIP3   OH236088   0.166   1.053   0.248  0.4370  0.2155 -0.8353
 4866TIP3    H136089   0.207   0.967   0.245 -0.7221 -0.3046 -2.3766
 4866TIP3    H236090   0.220   1.109   0.193  0.1046 -0.0214 -1.4074
 4867TIP3   OH236091   0.230   1.706  11.732 -0.1213 -0.1770  0.2136
 4867TIP3    H136092   0.202   1.797  11.725  0.1502  0.0323  1.6254
 4867TIP3    H236093   0.231   1.688  11.826 -0.2362 -1.6627 -0.0478
 4868TIP3   OH236094   1.075   4.913  11.345  0.1059 -0.6121 -0.3710
 4868TIP3    H136095   1.027   4.934  11.265  0.0928  0.7892  0.0041
 4868TIP3    H236096   1.093   4.997  11.386  3.1089 -1.0819 -0.5963
 4869TIP3   OH236097   0.948   1.317   0.448  0.3735  0.9600 -0.5395
 4869TIP3    H136098   0.932   1.272   0.532 -0.9318  1.4560 -0.4997
 4869TIP3    H236099   0.896   1.267   0.385 -1.6983  2.8093 -0.3644
 4870TIP3   OH236100   5.467   0.812   2.412 -0.2299  0.7290 -0.0694
 4870TIP3    H136101   5.407   0.861   2.356 -0.6246  0.6894  0.3181
 4870TIP3    H236102   5.418   0.797   2.493  0.5118  1.1870  0.4644
 4871TIP3   OH236103   5.243   6.393   0.418 -0.4079  0.0119 -0.7116
 4871TIP3    H136104   5.200   6.339   0.484 -1.1124 -1.6919 -2.5055
 4871TIP3    H236105   5.336   6.368   0.423 -0.4178  0.0779 -0.2067
 4872TIP3   OH236106   5.320   5.051  13.010 -0.1007  0.1659 -0.4719
 4872TIP3    H136107   5.298   4.959  13.028 -0.6577  0.7169  1.7777
 4872TIP3    H236108   5.330   5.091  13.096  1.9026  1.8346 -1.4375
 4873TIP3   OH236109   2.014   1.433  15.296 -0.2323  0.1304 -0.0305
 4873TIP3    H136110   2.057   1.511  15.330 -0.3453  0.0310  0.3523
 4873TIP3    H236111   1.930   1.431  15.342  0.1133 -0.6637  0.5897
 4874TIP3   OH236112   3.983   1.406  12.733  0.5256  0.2158  0.2609
 4874TIP3    H136113   3.961   1.464  12.806 -0.3660 -0.0336  0.1980
 4874TIP3    H236114   3.953   1.454  12.655  1.9678  0.7234  0.0006
 4875TIP3   OH236115   6.318   1.889   3.002  0.0063  0.3156 -0.3602
 4875TIP3    H136116   6.400   1.917   2.962  1.3818  0.2620  2.2623
 4875TIP3    H236117   6.297   1.959   3.065 -0.2109 -1.1898  1.2860
 4876TIP3   OH236118   2.465   3.592   2.632  0.2948  0.3377 -0.3655
 4876TIP3    H136119   2.550   3.601   2.676 -0.3829  0.6167  0.8842
 4876TIP3    H236120   2.461   3.668   2.573  0.0937  1.3621  0.9497
 4877TIP3   OH236121   1.539   2.762  11.500 -0.7248  0.0587 -0.2477
 4877TIP3    H136122   1.505   2.848  11.522  0.2724  0.5929 -0.7475
 4877TIP3    H236123   1.575   2.772  11.412  0.1009 -0.6683 -0.0039
 4878TIP3   OH236124   0.235   5.761  11.133  0.4447 -0.5582 -0.2328
 4878TIP3    H136125   0.291   5.740  11.058  0.6134 -1.7372  0.2019
 4878TIP3    H236126   0.295   5.795  11.199  0.3217  0.3104 -0.5634
 4879TIP3   OH236127   6.019   1.317   2.564  0.2759 -0.2525 -0.1769
 4879TIP3    H136128   6.095   1.375   2.572  0.0150 -0.0939  1.2271
 4879TIP3    H236129   6.028   1.256   2.637  0.1275 -1.5146 -1.1798
 4880TIP3   OH236130   4.926   0.069  16.534 -0.4782  0.0883  0.3165
 4880TIP3    H136131   5.008   0.033  16.499 -0.3662  1.1497 -0.5099
 4880TIP3    H236132   4.947   0.090  16.625  0.8042  2.2696 -0.4427
 4881TIP3   OH236133   4.093   6.172   0.432 -0.1882 -0.4334 -0.0402
 4881TIP3    H136134   4.083   6.077   0.432 -0.7237 -0.3846 -1.6217
 4881TIP3    H236135   4.005   6.207   0.416  0.3222  0.2644 -1.4732
 4882TIP3   OH236136   4.813   3.888   1.966 -0.1766  0.3684 -0.0570
 4882TIP3    H136137   4.781   3.949   2.033 -2.8299 -0.0871 -0.8584
 4882TIP3    H236138   4.882   3.937   1.921 -1.9510  2.6861 -0.4022
 4883TIP3   OH236139   6.530   2.216   2.333  0.6611 -0.1334 -0.4916
 4883TIP3    H136140   6.583   2.169   2.397  0.9881  0.2057 -0.5122
 4883TIP3    H236141   6.580   2.207   2.251  1.3209  1.2569 -0.2491
 4884TIP3   OH236142   6.600   1.731   2.626 -0.1652  0.4537 -0.1240
 4884TIP3    H136143   6.690   1.765   2.635  0.2914 -0.9954  0.9958
 4884TIP3    H236144   6.594   1.663   2.693 -2.0275  0.3659 -0.3772
 4885TIP3   OH236145   6.369   6.100  12.546  0.2777 -0.5980 -0.1001
 4885TIP3    H136146   6.282   6.067  12.524 -0.9060  0.9266  2.1407
 4885TIP3    H236147   6.427   6.025  12.533 -1.6125 -2.1067  0.0161
 4886TIP3   OH236148   0.769   2.533  16.624 -0.4227 -0.0710  0.1306
 4886TIP3    H136149   0.706   2.556  16.556 -1.2292 -1.5156  0.3630
 4886TIP3    H236150   0.753   2.595  16.694  0.8055  1.8048 -1.2087
 4887TIP3   OH236151   0.895   2.335   6.089  0.2906 -0.2679  0.1835
 4887TIP3    H136152   0.887   2.355   6.182  0.5488  0.2202  0.1055
 4887TIP3    H236153   0.920   2.419   6.049 -0.0412 -0.4257 -0.3515
 4888TIP3   OH236154   3.794   4.606  15.210  1.0504  0.2269 -0.4008
 4888TIP3    H136155   3.709   4.607  15.167  1.3162 -1.9738 -1.0746
 4888TIP3    H236156   3.834   4.689  15.187  0.1294  0.1742 -2.2824
 4889TIP3   OH236157   5.125   6.512  16.656  0.3680 -0.4565  0.3479
 4889TIP3    H136158   5.173   6.540  16.735  1.2213 -2.2458  0.4807
 4889TIP3    H236159   5.037   6.546  16.669  0.9316  0.7221  1.2852
 4890TIP3   OH236160   0.104   6.082   3.761  0.5800 -0.0648  0.1107
 4890TIP3    H136161   0.091   6.170   3.796  0.5178 -0.0708  0.1035
 4890TIP3    H236162   0.185   6.051   3.802  0.2225 -0.2768  0.6549
 4891TIP3   OH236163   4.280   2.352   4.275 -0.4867  0.4172  0.4450
 4891TIP3    H136164   4.215   2.306   4.329 -1.6746 -0.8917 -2.0352
 4891TIP3    H236165   4.340   2.284   4.246  0.2765  1.1548  0.2731
 4892TIP3   OH236166   1.120   4.969  16.115 -0.2986  0.3016  0.7401
 4892TIP3    H136167   1.080   5.040  16.165  0.5703  0.5379  1.1053
 4892TIP3    H236168   1.213   4.989  16.114 -0.1920 -0.2028 -0.1805
 4893TIP3   OH236169   6.015   1.978   2.472 -0.2127  0.2549 -0.2812
 4893TIP3    H136170   5.936   1.964   2.420 -1.0091 -0.8539  1.2146
 4893TIP3    H236171   6.001   2.063   2.514 -2.0484 -1.3610  2.4858
 4894TIP3   OH236172   0.072   2.919  15.978 -0.1535  0.5402  0.7622
 4894TIP3    H136173   0.054   2.995  15.922  0.5673  0.5293  0.5063
 4894TIP3    H236174   0.125   2.861  15.924 -0.2378  0.1013  1.1440
 4895TIP3   OH236175   2.923   5.034  12.545  0.3922 -0.1257 -0.7739
 4895TIP3    H136176   3.011   5.043  12.583  0.1197 -1.7909  0.2541
 4895TIP3    H236177   2.902   5.123  12.514  1.7738  0.6354  0.4117
 4896TIP3   OH236178   3.533   1.714   1.689 -0.2121 -0.3621 -0.5020
 4896TIP3    H136179   3.615   1.694   1.733  0.0882  1.8071 -0.0270
 4896TIP3    H236180   3.485   1.770   1.750 -1.6080 -0.7622 -1.1921
 4897TIP3   OH236181   5.868   4.595  15.567  0.3078 -0.3410 -0.4420
 4897TIP3    H136182   5.898   4.600  15.476 -0.2533  0.0083 -0.6167
 4897TIP3    H236183   5.892   4.679  15.605 -0.9319  0.1753 -0.7512
 4898TIP3   OH236184   1.898   0.036   1.942 -0.4308  0.0344  0.0256
 4898TIP3    H136185   1.943  -0.028   1.997 -1.1888  0.9484  1.7760
 4898TIP3    H236186   1.959   0.109   1.934  0.1631 -0.6058 -1.3958
 4899TIP3   OH236187   1.954   1.641  16.785  0.4010  0.0630 -0.5121
 4899TIP3    H136188   1.916   1.715  16.737 -1.0396 -0.6258 -0.4390
 4899TIP3    H236189   2.048   1.649  16.769 -0.0056  0.1168 -3.0896
 4900TIP3   OH236190   5.517   0.436  14.404 -0.1868 -0.2548  0.5465
 4900TIP3    H136191   5.568   0.502  14.359 -0.0612 -1.3104 -0.9011
 4900TIP3    H236192   5.427   0.452  14.375  0.1427 -2.1289 -1.6453
 4901TIP3   OH236193   1.486   0.317   4.579 -0.4542 -0.0412  0.1407
 4901TIP3    H136194   1.511   0.288   4.666 -0.8021 -2.4507 -0.5261
 4901TIP3    H236195   1.391   0.306   4.575 -0.3644 -0.5662 -0.7528
 4902TIP3   OH236196   1.236   6.708   2.247 -0.2873 -0.3393  0.7048
 4902TIP3    H136197   1.259   6.784   2.300 -0.8332 -0.3175  0.9142
 4902TIP3    H236198   1.239   6.634   2.308 -0.1194 -0.4313  0.5853
 4903TIP3   OH236199   1.405   0.938  16.255 -0.1868  0.2230 -0.0453
 4903TIP3    H136200   1.473   0.888  16.298 -0.3371 -0.4682 -0.5989
 4903TIP3    H236201   1.441   0.958  16.168 -1.3612 -1.6546 -0.9940
 4904TIP3   OH236202   2.344   3.106  13.854  0.1187 -0.1461 -0.3310
 4904TIP3    H136203   2.435   3.136  13.864 -0.2595  0.9671 -0.1732
 4904TIP3    H236204   2.327   3.056  13.934  0.1441  0.8478  0.3164
 4905TIP3   OH236205   5.235   4.989  12.740 -0.1822 -0.4346  0.0116
 4905TIP3    H136206   5.251   5.010  12.832 -0.2999  0.6024 -0.1969
 4905TIP3    H236207   5.323   4.982  12.701 -0.1456 -0.0216  0.0182
 4906TIP3   OH236208   2.733   4.556  16.592 -0.1905  0.1406  0.0373
 4906TIP3    H136209   2.749   4.646  16.621  2.1785  0.0122 -0.7649
 4906TIP3    H236210   2.672   4.564  16.519  1.8999  1.2998 -1.5939
 4907TIP3   OH236211   1.812   1.197   2.278 -0.0966  0.6900 -0.4850
 4907TIP3    H136212   1.795   1.248   2.199  0.1903  1.7252  0.1230
 4907TIP3    H236213   1.747   1.228   2.341 -0.5656 -0.3969 -0.4199
 4908TIP3   OH236214   3.805   6.505   2.443 -0.6636 -0.2454  0.4631
 4908TIP3    H136215   3.764   6.590   2.429 -0.1041  0.0133  0.3624
 4908TIP3    H236216   3.832   6.477   2.355  0.9828  0.4187  0.7421
 4909TIP3   OH236217   2.358   6.553  13.649 -0.0158  0.2093 -0.2782
 4909TIP3    H136218   2.291   6.535  13.583  1.0674 -0.7384 -1.1412
 4909TIP3    H236219   2.386   6.642  13.630  1.9554 -0.8509 -2.6451
 4910TIP3   OH236220   4.658   0.728   4.384  0.9513 -0.3116  0.6042
 4910TIP3    H136221   4.751   0.748   4.374  1.1551 -1.4339  0.1270
 4910TIP3    H236222   4.650   0.636   4.356 -0.7892  0.6560 -2.2925
 4911TIP3   OH236223   2.227   5.161   4.203 -0.3459 -0.4359  0.1830
 4911TIP3    H136224   2.261   5.107   4.132  1.0058 -1.5209  1.6249
 4911TIP3    H236225   2.276   5.133   4.280 -0.8426  1.6575  1.2945
 4912TIP3   OH236226   0.927   4.575   0.372 -0.1746  0.1274 -0.9120
 4912TIP3    H136227   0.871   4.516   0.321  0.6252 -0.3500 -1.2598
 4912TIP3    H236228   0.981   4.619   0.306  0.4074 -0.0030 -0.5303
 4913TIP3   OH236229   2.536   5.024  12.398 -0.2577  0.0286  1.1769
 4913TIP3    H136230   2.567   5.111  12.421  0.7992 -0.8865  3.4006
 4913TIP3    H236231   2.611   4.980  12.359 -0.8350  0.1539 -0.1030
 4914TIP3   OH236232   0.867   3.284   0.933  0.4443 -0.1897  0.3385
 4914TIP3    H136233   0.799   3.226   0.899 -1.1777  2.2323 -0.6979
 4914TIP3    H236234   0.825   3.370   0.939  3.1579  1.1976  0.5035
 4915TIP3   OH236235   3.034   4.441   4.774 -0.4318 -0.4044 -0.4530
 4915TIP3    H136236   2.951   4.404   4.805 -0.8001  0.2760 -0.6188
 4915TIP3    H236237   3.101   4.389   4.818 -0.9490  0.0039  0.8436
 4916TIP3   OH236238   1.541   1.131  15.597 -0.4443  0.0223 -0.1204
 4916TIP3    H136239   1.475   1.182  15.644 -1.2062 -1.7322  0.7537
 4916TIP3    H236240   1.499   1.106  15.515 -0.4811 -0.1769 -0.0421
 4917TIP3   OH236241   5.985   3.008   3.654  0.2785  0.0257  0.2579
 4917TIP3    H136242   5.916   2.996   3.719  0.8384  0.2391  0.8925
 4917TIP3    H236243   5.979   3.100   3.629  0.7623  0.2070  0.8023
 4918TIP3   OH236244   3.580   1.199   0.052  0.4174 -0.5189  0.2979
 4918TIP3    H136245   3.655   1.241   0.009  2.7069 -3.1115  1.6249
 4918TIP3    H236246   3.557   1.257   0.124  1.2476  0.2332 -0.0391
 4919TIP3   OH236247   2.449   1.245   1.510 -0.2166 -0.2294  0.4018
 4919TIP3    H136248   2.444   1.309   1.438 -2.2112  0.6386  1.2913
 4919TIP3    H236249   2.421   1.162   1.470  0.0376 -0.0543 -0.1499
 4920TIP3   OH236250   0.019   1.962  15.731  0.3236 -0.5261  0.1483
 4920TIP3    H136251  -0.031   1.977  15.811  1.7903  0.2614  0.9408
 4920TIP3    H236252  -0.012   2.030  15.671  0.8065  0.2792  0.8055
 4921TIP3   OH236253   2.505   0.210  15.369 -0.7073  0.3563 -0.2783
 4921TIP3    H136254   2.525   0.257  15.450  0.4743  0.3404 -0.5406
 4921TIP3    H236255   2.432   0.258  15.330 -0.4625  1.1114  0.1775
 4922TIP3   OH236256   5.093   2.067   5.113  0.4363  0.2716  0.1482
 4922TIP3    H136257   5.131   2.039   5.029 -1.2568 -1.6163 -0.0307
 4922TIP3    H236258   5.014   2.114   5.089 -0.0449 -0.2597  0.6826
 4923TIP3   OH236259   2.521   1.194   2.331 -0.1696  0.1739 -0.0363
 4923TIP3    H136260   2.508   1.129   2.400  1.9728  0.4059  0.6318
 4923TIP3    H236261   2.514   1.144   2.250 -2.1833 -0.1979  0.3304
 4924TIP3   OH236262   4.506   3.642  11.763  0.2951 -0.1445  0.1961
 4924TIP3    H136263   4.545   3.625  11.848  1.5192  3.7202  0.5017
 4924TIP3    H236264   4.430   3.698  11.781 -0.9359 -1.3441 -1.0661
 4925TIP3   OH236265   5.375   2.283  11.545  0.3020  0.7854  0.1440
 4925TIP3    H136266   5.382   2.372  11.578  0.8193  0.4349  0.9724
 4925TIP3    H236267   5.460   2.266  11.504  0.5786  0.3079  0.9033
 4926TIP3   OH236268   6.616   2.589   6.932 -0.2074 -0.1286  0.1921
 4926TIP3    H136269   6.610   2.502   6.972  0.6760 -0.2374  0.0979
 4926TIP3    H236270   6.578   2.648   6.997  0.7580 -0.3698  0.9980
 4927TIP3   OH236271   3.560   3.702   5.055  0.4844 -0.0755 -0.2239
 4927TIP3    H136272   3.602   3.651   5.124  2.0895  0.5265 -0.7366
 4927TIP3    H236273   3.522   3.777   5.100  3.9659  1.8134 -0.3164
 4928TIP3   OH236274   2.867   1.996   1.741  0.5413 -0.0925 -1.1404
 4928TIP3    H136275   2.889   2.031   1.828 -0.0750 -2.8812  0.1711
 4928TIP3    H236276   2.952   1.983   1.698  0.8570  1.0263 -0.8804
 4929TIP3   OH236277   5.737   4.880   5.301  0.4060 -0.0047 -0.1989
 4929TIP3    H136278   5.651   4.855   5.336  0.7179 -1.3367 -0.3531
 4929TIP3    H236279   5.744   4.974   5.319 -1.0528  0.0986 -0.1161
 4930TIP3   OH236280   6.038   2.507   5.109  1.0168 -0.1271  0.3552
 4930TIP3    H136281   6.041   2.584   5.052  2.7471  0.9510  1.8343
 4930TIP3    H236282   5.945   2.492   5.123  0.5656 -0.1758 -2.3898
 4931TIP3   OH236283   2.657   4.060  16.461 -0.4171 -0.7305  0.3922
 4931TIP3    H136284   2.608   4.132  16.421 -1.2071 -2.5700 -2.0630
 4931TIP3    H236285   2.735   4.051  16.407 -0.3384 -1.7642  0.6751
 4932TIP3   OH236286   5.443   5.678  13.984  0.2994 -0.3912  0.5296
 4932TIP3    H136287   5.431   5.626  13.905 -1.6112  1.1081 -0.1885
 4932TIP3    H236288   5.538   5.679  13.998  0.6998 -0.2753 -2.0007
 4933TIP3   OH236289   1.614   6.667  12.009 -0.0417 -0.2709 -0.0097
 4933TIP3    H136290   1.693   6.711  12.039 -0.1955 -1.4316  2.2415
 4933TIP3    H236291   1.635   6.574  12.016 -0.3588 -0.6216 -2.9414
 4934TIP3   OH236292   2.206   1.599  13.104  1.0001  0.2409  0.2922
 4934TIP3    H136293   2.166   1.651  13.035 -0.2622  1.5572  1.9849
 4934TIP3    H236294   2.216   1.512  13.065 -0.5213  0.7280 -1.2557
 4935TIP3   OH236295   1.580   4.013  11.934  0.3144  0.3383 -0.0101
 4935TIP3    H136296   1.672   3.987  11.934  0.1677 -0.2159 -1.7237
 4935TIP3    H236297   1.582   4.108  11.948  1.0623  0.1409  1.3595
 4936TIP3   OH236298   5.269   2.499   1.952 -0.2028  0.7090  0.1570
 4936TIP3    H136299   5.257   2.413   1.992 -1.6175 -0.0045 -1.7024
 4936TIP3    H236300   5.191   2.548   1.979  0.7602  1.5593  1.4910
 4937TIP3   OH236301   0.585   3.335   3.207  0.0196 -0.0624 -0.6423
 4937TIP3    H136302   0.584   3.273   3.134 -1.0456 -0.3032 -0.4374
 4937TIP3    H236303   0.663   3.311   3.257 -0.5721 -1.4874 -0.3715
 4938TIP3   OH236304   4.061   0.966  12.291  0.2888 -0.2852  0.0635
 4938TIP3    H136305   4.018   1.043  12.328 -0.1944 -0.1561 -0.7727
 4938TIP3    H236306   4.144   0.961  12.339 -0.7507 -0.7023  1.8958
 4939TIP3   OH236307   4.817   0.856   2.079  0.2889 -0.7451  0.0010
 4939TIP3    H136308   4.894   0.846   2.136 -0.0148 -2.2005  0.1755
 4939TIP3    H236309   4.743   0.861   2.140  0.1647 -0.1779 -0.1966
 4940TIP3   OH236310   5.066   0.406   3.962 -0.0733 -0.1255  0.5226
 4940TIP3    H136311   5.039   0.448   4.044 -0.2589 -0.6338  0.7258
 4940TIP3    H236312   4.996   0.343   3.943 -0.9023  1.1898 -0.9541
 4941TIP3   OH236313   5.649   1.068   1.939  0.2886  0.1758  0.2818
 4941TIP3    H136314   5.605   1.034   2.017  3.1796 -1.1204  1.4374
 4941TIP3    H236315   5.644   1.163   1.947 -1.3463  0.0428  0.9141
 4942TIP3   OH236316   4.048   5.904   3.699 -0.2570 -0.5224 -0.1540
 4942TIP3    H136317   3.990   5.895   3.775 -1.3320 -2.4280 -1.1618
 4942TIP3    H236318   3.998   5.958   3.638  0.0449 -0.1476 -0.0752
 4943TIP3   OH236319   0.673   2.908  12.417  0.1522  0.3399 -0.4194
 4943TIP3    H136320   0.723   2.990  12.415 -0.7902  0.9744  1.0319
 4943TIP3    H236321   0.593   2.928  12.369 -0.2557  0.4106  0.2763
 4944TIP3   OH236322   6.488   0.389   4.675 -0.2907  0.0270 -0.0517
 4944TIP3    H136323   6.432   0.386   4.752 -0.7585 -0.4587 -0.4022
 4944TIP3    H236324   6.491   0.481   4.651 -0.2519  0.1620  0.4712
 4945TIP3   OH236325   3.324   1.095   4.247  0.1721 -0.0620  0.1043
 4945TIP3    H136326   3.360   1.070   4.162  1.1007 -1.8744  0.9836
 4945TIP3    H236327   3.229   1.092   4.235  0.2918  1.5121 -1.3496
 4946TIP3   OH236328   3.799   3.815  11.062  0.1260 -0.0915  0.3873
 4946TIP3    H136329   3.768   3.763  10.987 -2.2020  1.0912  0.4977
 4946TIP3    H236330   3.849   3.886  11.022  0.2544 -0.3723  0.0433
 4947TIP3   OH236331   3.387   3.706  14.751  0.3340 -0.0097  0.0869
 4947TIP3    H136332   3.455   3.725  14.815  0.5000  0.2826 -0.1733
 4947TIP3    H236333   3.310   3.756  14.781 -0.0818 -1.1355  0.9401
 4948TIP3   OH236334   6.491   4.920   4.972 -0.0540 -0.5653 -0.0994
 4948TIP3    H136335   6.480   5.009   5.006 -1.0938  0.3223 -2.6277
 4948TIP3    H236336   6.426   4.913   4.902 -0.4652 -3.5857  0.5491
 4949TIP3   OH236337   6.263   1.354  12.607  0.0241 -0.5754 -0.6747
 4949TIP3    H136338   6.270   1.322  12.697  3.0532 -0.0157 -0.6754
 4949TIP3    H236339   6.280   1.276  12.553  0.8937 -0.3451 -0.7339
 4950TIP3   OH236340   2.297   6.072  14.856 -0.1466  0.4119  0.5618
 4950TIP3    H136341   2.247   6.153  14.847  1.1197  1.0978 -0.5486
 4950TIP3    H236342   2.307   6.040  14.767 -1.7430 -1.6687  1.1128
 4951TIP3   OH236343   5.123   1.582  12.830  0.3559 -0.2734  0.1846
 4951TIP3    H136344   5.116   1.597  12.735 -0.3485 -0.1648  0.2526
 4951TIP3    H236345   5.154   1.492  12.837 -1.1343 -0.8286 -0.1317
 4952TIP3   OH236346   6.407   0.926  11.916 -0.6870  0.0724  0.2331
 4952TIP3    H136347   6.393   0.843  11.872  0.5442  0.1610 -0.3410
 4952TIP3    H236348   6.493   0.918  11.957 -0.9520  0.7260  0.9328
 4953TIP3   OH236349   3.899   0.291   1.163 -0.0850  0.1348  0.6456
 4953TIP3    H136350   3.833   0.352   1.196 -0.3352 -0.2453  0.8479
 4953TIP3    H236351   3.871   0.271   1.073 -0.5711 -0.4815  0.9294
 4954TIP3   OH236352   6.149   4.655  13.146 -0.2330  0.1369  0.1347
 4954TIP3    H136353   6.054   4.654  13.159 -0.1554  0.6329  0.7803
 4954TIP3    H236354   6.184   4.601  13.216 -0.0979 -0.9599 -0.7568
 4955TIP3   OH236355   0.204   0.323   5.330 -0.0891 -0.3373  0.8176
 4955TIP3    H136356   0.245   0.367   5.404 -2.2335  1.3750  1.0419
 4955TIP3    H236357   0.111   0.346   5.337 -0.7909 -2.5097 -0.7664
 4956TIP3   OH236358   4.663   5.321   3.415 -0.0320 -0.5101  0.0678
 4956TIP3    H136359   4.603   5.395   3.418 -0.3677 -0.7930  0.5284
 4956TIP3    H236360   4.608   5.246   3.393  0.3632 -0.5661 -0.7347
 4957TIP3   OH236361   0.004   4.982  10.451 -0.6850  0.3567 -0.2825
 4957TIP3    H136362   0.003   4.919  10.524  0.8206 -0.9499 -1.3338
 4957TIP3    H236363   0.096   4.983  10.423 -1.4527 -0.0349 -2.8788
 4958TIP3   OH236364   3.736   6.475   5.485  0.4316  0.2237 -0.2999
 4958TIP3    H136365   3.813   6.447   5.435 -0.8546 -1.0057 -1.6397
 4958TIP3    H236366   3.734   6.418   5.561  1.3144  0.8293  0.1882
 4959TIP3   OH236367   6.187   4.356   6.460  0.4894  0.8159 -0.4642
 4959TIP3    H136368   6.247   4.421   6.496  1.0731  0.4787 -0.8180
 4959TIP3    H236369   6.101   4.398   6.465  0.4518  0.4850  1.9479
 4960TIP3   OH236370   1.552   1.942   2.773 -0.4256  0.0892 -0.2220
 4960TIP3    H136371   1.574   1.954   2.865 -0.7316 -1.1399  0.0266
 4960TIP3    H236372   1.634   1.956   2.726  0.5596 -2.7309  0.5427
 4961TIP3   OH236373   5.577   5.841   5.109  0.3010 -0.8751  0.2364
 4961TIP3    H136374   5.613   5.785   5.040 -0.0415 -1.3870  0.4672
 4961TIP3    H236375   5.491   5.868   5.076  0.5384 -0.3456  0.0524
 4962TIP3   OH236376   1.603   3.871   3.426 -0.7047  0.0922 -0.6816
 4962TIP3    H136377   1.513   3.885   3.454 -0.4404  0.3009  0.0933
 4962TIP3    H236378   1.598   3.856   3.332 -1.3497  2.0296 -0.9766
 4963TIP3   OH236379   4.120   2.300   1.021 -0.4619  0.0091  0.2633
 4963TIP3    H136380   4.184   2.249   1.071  0.6116  0.3294 -0.7453
 4963TIP3    H236381   4.071   2.234   0.972 -1.8450 -0.3406  2.0843
 4964TIP3   OH236382   5.829   2.901   5.625 -0.1694  0.2641 -0.3949
 4964TIP3    H136383   5.892   2.830   5.612 -1.4570 -0.7545 -1.1834
 4964TIP3    H236384   5.774   2.871   5.697 -1.9497 -0.4551 -2.0080
 4965TIP3   OH236385   5.140   4.882  16.850 -0.5105  0.1894 -0.0205
 4965TIP3    H136386   5.179   4.968  16.867 -0.9710  0.4709 -0.3517
 4965TIP3    H236387   5.129   4.880  16.755 -0.8278 -0.0863  0.0210
 4966TIP3   OH236388   6.763   2.202  16.855 -0.0339 -0.2101 -0.4480
 4966TIP3    H136389   6.858   2.206  16.867 -0.0998  1.3369 -0.4435
 4966TIP3    H236390   6.729   2.185  16.942  0.1413  0.8089 -0.1784
 4967TIP3   OH236391   4.012   2.899  15.021  0.5784 -0.3517  0.7931
 4967TIP3    H136392   4.082   2.963  15.015  0.3725 -0.1147  0.9072
 4967TIP3    H236393   4.012   2.855  14.936  0.2424  0.3060  0.4463
 4968TIP3   OH236394   6.195   5.448  11.447 -0.1168 -0.4966 -0.2965
 4968TIP3    H136395   6.217   5.397  11.369 -0.1251 -2.8758  1.2308
 4968TIP3    H236396   6.199   5.386  11.519 -2.8471  1.0468  1.2742
 4969TIP3   OH236397   4.361   2.267  10.899 -0.2629 -0.3431 -0.7754
 4969TIP3    H136398   4.388   2.347  10.854  0.1356  0.9954  1.7720
 4969TIP3    H236399   4.424   2.256  10.970 -1.7176 -1.5786  0.3762
 4970TIP3   OH236400   2.517   5.143   2.900  0.2161 -0.7249 -0.0325
 4970TIP3    H136401   2.451   5.210   2.912  0.8324 -0.1825  0.3549
 4970TIP3    H236402   2.538   5.147   2.806  0.7678  0.1158  0.1235
 4971TIP3   OH236403   4.705   6.298  12.974 -0.1070  0.0959 -0.2520
 4971TIP3    H136404   4.678   6.216  13.015 -0.8076  0.0599 -0.7885
 4971TIP3    H236405   4.649   6.307  12.897 -0.1663  1.1736 -0.0959
 4972TIP3   OH236406   1.551   4.120  13.006  0.0860 -0.2607  0.1116
 4972TIP3    H136407   1.564   4.143  12.914  0.5482 -1.1437 -0.0502
 4972TIP3    H236408   1.639   4.110  13.041 -0.0917 -0.2928  0.5528
 4973TIP3   OH236409   1.282   1.780   0.969 -0.1583  0.2611 -0.2123
 4973TIP3    H136410   1.235   1.735   1.039  0.3877  0.4757  0.2962
 4973TIP3    H236411   1.250   1.870   0.972 -1.2847 -0.0908 -1.2595
 4974TIP3   OH236412   5.450   4.359  11.952  0.5124  0.3138  0.3800
 4974TIP3    H136413   5.488   4.273  11.972  1.0556  1.1784  3.2701
 4974TIP3    H236414   5.516   4.402  11.897  0.7542 -0.6781 -0.1151
 4975TIP3   OH236415   4.323   6.650  10.917  0.3082  0.1606  0.2565
 4975TIP3    H136416   4.303   6.570  10.966  0.6415 -0.1344 -0.0907
 4975TIP3    H236417   4.413   6.671  10.941  0.2061  0.4588  0.3826
 4976TIP3   OH236418   5.535   1.084   4.078  0.1028  0.0552 -0.3507
 4976TIP3    H136419   5.569   1.018   4.018  0.4607 -0.6080  0.5797
 4976TIP3    H236420   5.606   1.100   4.140  0.0481  1.3705 -0.5992
 4977TIP3   OH236421   2.060   5.662  13.043 -0.3549 -0.1872 -0.2717
 4977TIP3    H136422   1.975   5.668  13.088  0.4330 -0.2535  1.2656
 4977TIP3    H236423   2.109   5.597  13.093  1.1705  0.9941 -0.1890
 4978TIP3   OH236424   1.785   4.307  13.118 -0.7548 -0.3408 -0.4358
 4978TIP3    H136425   1.779   4.305  13.022 -1.7669 -1.4701 -0.3611
 4978TIP3    H236426   1.821   4.222  13.141  0.4869  0.3283  0.1417
 4979TIP3   OH236427   4.131   5.181   4.448  0.1581  0.3880  0.0570
 4979TIP3    H136428   4.156   5.157   4.359 -1.3910  2.7582 -1.0784
 4979TIP3    H236429   4.214   5.193   4.494  0.9826 -0.0052 -1.3049
 4980TIP3   OH236430   5.717   0.320   1.548 -0.1579  0.3338  0.1857
 4980TIP3    H136431   5.769   0.340   1.471 -0.2847  0.3638  0.1062
 4980TIP3    H236432   5.627   0.345   1.523 -0.0668  1.1252  0.6312
 4981TIP3   OH236433   4.889   4.937  15.910 -0.5337 -0.2314 -0.1649
 4981TIP3    H136434   4.951   4.870  15.941 -0.4014  0.1188  0.3355
 4981TIP3    H236435   4.869   4.989  15.988 -1.5015 -0.3758 -0.3169
 4982TIP3   OH236436   6.422   0.946  16.619  0.7243 -0.9229 -0.3402
 4982TIP3    H136437   6.506   0.966  16.662  1.3601 -1.1974 -1.4342
 4982TIP3    H236438   6.395   1.029  16.580  2.5290 -1.6939 -3.4452
 4983TIP3   OH236439   4.819   0.859  11.848  0.6515  0.0421 -0.6710
 4983TIP3    H136440   4.774   0.805  11.784 -0.7089 -0.5833  0.7816
 4983TIP3    H236441   4.768   0.941  11.850  0.3171 -0.1786  0.0458
 4984TIP3   OH236442   0.091   1.997   4.516  0.5106  0.0268 -0.2513
 4984TIP3    H136443   0.058   2.065   4.457  0.1557 -0.0734 -0.1660
 4984TIP3    H236444   0.081   1.916   4.466  0.5195 -0.0193 -0.1777
 4985TIP3   OH236445   2.672   2.143  14.881 -0.1167  0.1804 -0.4349
 4985TIP3    H136446   2.607   2.124  14.949  0.2612  0.0694 -0.1025
 4985TIP3    H236447   2.681   2.238  14.884  2.1625 -0.0580  1.7943
 4986TIP3   OH236448   5.244   2.816   2.860  0.2255  0.4743  0.0190
 4986TIP3    H136449   5.294   2.831   2.940 -0.1442  0.6941  0.2088
 4986TIP3    H236450   5.287   2.872   2.795  1.2429 -0.5834 -0.2259
 4987TIP3   OH236451   6.762   2.378  14.759 -0.1572 -0.1158 -1.1324
 4987TIP3    H136452   6.789   2.438  14.828 -1.7181 -0.7556  0.0520
 4987TIP3    H236453   6.760   2.292  14.801  0.6748 -0.7917 -2.4504
 4988TIP3   OH236454   1.854   2.322   0.706  0.2003 -0.0197 -0.0365
 4988TIP3    H136455   1.923   2.341   0.642  1.9640 -0.6728  1.5898
 4988TIP3    H236456   1.879   2.237   0.742 -2.9392 -1.5012 -1.2578
 4989TIP3   OH236457   1.668   6.178  16.910 -0.2380  0.2760  0.0003
 4989TIP3    H136458   1.760   6.156  16.920  0.0236 -0.0392 -2.6159
 4989TIP3    H236459   1.655   6.255  16.966  1.5088  0.1026  0.6788
 4990TIP3   OH236460   5.494   4.822   3.294 -0.7295 -1.1549 -0.2509
 4990TIP3    H136461   5.550   4.884   3.248  1.5439 -2.9454 -0.0051
 4990TIP3    H236462   5.510   4.839   3.387 -1.3416 -1.0026 -0.1748
 4991TIP3   OH236463   2.829   0.837  16.532 -0.1777  0.2076 -0.2119
 4991TIP3    H136464   2.848   0.842  16.626  0.9763  0.2562 -0.4420
 4991TIP3    H236465   2.914   0.847  16.490 -0.8189  1.1913 -1.3046
 4992TIP3   OH236466   4.604   5.468   2.501 -0.4835 -0.2459 -0.0139
 4992TIP3    H136467   4.671   5.469   2.570 -1.2628  0.0457  0.7432
 4992TIP3    H236468   4.575   5.377   2.497 -0.2912 -0.3051 -0.1116
 4993TIP3   OH236469   3.811   1.277  13.663  0.2337 -0.4355  0.4337
 4993TIP3    H136470   3.883   1.335  13.688  0.3795 -0.0744 -0.7650
 4993TIP3    H236471   3.748   1.334  13.619 -0.3797 -0.9023  0.6935
 4994TIP3   OH236472   5.032   3.316  11.087 -0.2593  0.3816  0.8297
 4994TIP3    H136473   5.042   3.358  11.001  0.3955 -0.5868  0.4321
 4994TIP3    H236474   5.092   3.242  11.085 -0.4140  0.2137  2.0427
 4995TIP3   OH236475   1.642   2.523  17.242 -0.2461 -0.0737 -0.4978
 4995TIP3    H136476   1.637   2.553  17.333 -2.0171 -1.6771 -0.0307
 4995TIP3    H236477   1.564   2.560  17.201 -0.0931 -0.3708 -1.0500
 4996TIP3   OH236478   0.304   6.364   0.693  0.4278 -0.1392 -0.3299
 4996TIP3    H136479   0.366   6.340   0.762 -0.2723  0.5097  0.5260
 4996TIP3    H236480   0.279   6.281   0.653  1.4012 -0.4527 -0.3005
 4997TIP3   OH236481   0.449   0.596  13.857  0.4366  0.0176  0.5594
 4997TIP3    H136482   0.501   0.668  13.893  1.5191 -0.3916 -0.1645
 4997TIP3    H236483   0.512   0.543  13.808 -0.6629 -0.4860 -0.3323
 4998TIP3   OH236484   1.216   0.443  10.765 -0.1110  0.4465 -0.0225
 4998TIP3    H136485   1.232   0.393  10.845  0.9055  1.0068  0.1270
 4998TIP3    H236486   1.269   0.399  10.698  0.9348  1.4114  0.1498
 4999TIP3   OH236487   4.990   1.144   5.527 -0.5151 -0.0439 -0.0168
 4999TIP3    H136488   5.039   1.063   5.536 -3.3015 -1.6390  1.4581
 4999TIP3    H236489   4.985   1.180   5.615  2.5904  2.9805 -0.9636
 5000TIP3   OH236490   0.127   0.442   4.602  0.1351 -0.2244  0.3046
 5000TIP3    H136491   0.188   0.368   4.595  1.7340  1.1104 -0.1460
 5000TIP3    H236492   0.066   0.416   4.671  0.4851 -2.0905 -0.0425
 5001TIP3   OH236493   5.959   1.614   0.019 -0.5234  0.0070 -0.2492
 5001TIP3    H136494   5.968   1.520   0.034 -1.7262  0.0605  0.8930
 5001TIP3    H236495   6.000   1.628  -0.066  0.5511 -1.3881  0.0137
 5002TIP3   OH236496   3.927   1.276   0.081 -0.0323  0.3153 -0.0090
 5002TIP3    H136497   3.869   1.281   0.005 -1.4414  0.8356  1.0917
 5002TIP3    H236498   4.015   1.280   0.044 -0.6541 -1.8173 -1.8056
 5003TIP3   OH236499   6.602   1.741  12.431  0.2038  0.0594 -0.5098
 5003TIP3    H136500   6.624   1.825  12.472  0.2537 -0.2975  0.2050
 5003TIP3    H236501   6.519   1.716  12.472  0.4205 -0.4593 -0.3848
 5004TIP3   OH236502   0.984   4.454   1.232 -0.2735 -0.9169 -0.1154
 5004TIP3    H136503   1.055   4.486   1.176  0.0733 -0.2141  0.7203
 5004TIP3    H236504   0.919   4.524   1.231 -0.6866 -1.3026 -0.3911
 5005TIP3   OH236505   5.027   1.435   3.651 -0.2780 -0.0685 -0.1641
 5005TIP3    H136506   5.114   1.446   3.688  0.3796 -2.0755 -1.0587
 5005TIP3    H236507   4.968   1.451   3.725  0.8417  0.9591  0.5290
 5006TIP3   OH236508   2.038   6.234  17.200 -0.0076  0.1013 -0.5069
 5006TIP3    H136509   2.030   6.149  17.156 -2.6728 -0.3678  0.7835
 5006TIP3    H236510   2.030   6.298  17.129 -1.4601 -0.6839 -1.0703
 5007TIP3   OH236511   5.429   6.261   2.294 -0.8254 -0.0082 -0.1931
 5007TIP3    H136512   5.522   6.253   2.316 -0.8711  0.3692  0.1614
 5007TIP3    H236513   5.389   6.297   2.374 -1.2540 -0.0531 -0.3854
 5008TIP3   OH236514   1.028   2.821  16.166 -0.2550 -0.0624  0.5073
 5008TIP3    H136515   0.969   2.895  16.155  0.0433  0.3058  1.3761
 5008TIP3    H236516   1.100   2.855  16.219  1.0376 -0.3478 -1.0153
 5009TIP3   OH236517   4.337   3.527   4.156 -0.8546 -0.1908  0.2180
 5009TIP3    H136518   4.255   3.572   4.136 -1.3250 -0.2328  1.9952
 5009TIP3    H236519   4.310   3.441   4.189 -0.0182 -1.0955 -1.3859
 5010TIP3   OH236520   4.173   4.864  10.805 -0.0105  0.1562 -0.3546
 5010TIP3    H136521   4.087   4.905  10.814  0.5467  1.1991  0.3632
 5010TIP3    H236522   4.228   4.909  10.870  0.4912 -2.1141  0.8494
 5011TIP3   OH236523   6.176   3.887   0.547 -0.1644  0.1121  0.0043
 5011TIP3    H136524   6.245   3.880   0.481  1.3529 -0.1452  1.5564
 5011TIP3    H236525   6.209   3.953   0.608 -1.7640  0.6965  0.2407
 5012TIP3   OH236526   0.355   3.794   5.383 -0.5465  0.5794  0.8494
 5012TIP3    H136527   0.331   3.718   5.435  1.1274  1.0145  2.3291
 5012TIP3    H236528   0.428   3.764   5.328  0.3101  1.1717  1.6460
 5013TIP3   OH236529   3.062   4.897   5.056 -0.3400 -0.3759  0.2131
 5013TIP3    H136530   3.057   4.969   4.993  0.1936 -0.1150  0.4677
 5013TIP3    H236531   3.076   4.819   5.002  1.0974 -0.0258  0.0645
 5014TIP3   OH236532   1.456   6.170  11.489  0.5191  0.6064  0.5535
 5014TIP3    H136533   1.435   6.095  11.434 -0.8887 -0.6569  2.7418
 5014TIP3    H236534   1.414   6.151  11.572  2.4275  2.5751  2.0149
 5015TIP3   OH236535   3.368   1.642   3.184  0.0135  0.6035  0.1952
 5015TIP3    H136536   3.366   1.658   3.090 -1.5225  0.1887  0.1278
 5015TIP3    H236537   3.423   1.564   3.194  0.7291  1.0429 -0.2861
 5016TIP3   OH236538   4.771   2.861  14.403 -0.3768  0.1736 -0.0147
 5016TIP3    H136539   4.692   2.864  14.349 -0.8778 -2.5806  0.4892
 5016TIP3    H236540   4.830   2.802  14.356  0.4642  0.3768  0.7804
 5017TIP3   OH236541   2.975   3.881   1.195 -0.1862 -0.4530 -0.9011
 5017TIP3    H136542   2.927   3.961   1.173 -0.4291 -0.3638 -0.0513
 5017TIP3    H236543   3.054   3.885   1.140  1.2486  1.8295  1.2384
 5018TIP3   OH236544   0.502   3.664   4.822 -0.5906 -0.4367  0.0970
 5018TIP3    H136545   0.524   3.604   4.750 -1.2444  0.4366 -0.8296
 5018TIP3    H236546   0.428   3.715   4.790  0.2616  1.2100  0.6975
 5019TIP3   OH236547   1.477   3.872  14.886 -0.2421 -0.0018  0.2551
 5019TIP3    H136548   1.515   3.785  14.876  0.5995  0.3752  0.1759
 5019TIP3    H236549   1.535   3.917  14.947 -0.5912  0.5507  0.1799
 5020TIP3   OH236550   4.159   1.293   5.752 -0.0460  0.1954 -0.2426
 5020TIP3    H136551   4.225   1.328   5.813  0.4521  0.2741 -0.8148
 5020TIP3    H236552   4.128   1.213   5.793  0.7302 -0.0743 -0.1672
 5021TIP3   OH236553   0.121   3.891   0.925 -0.2084  0.1428 -0.0607
 5021TIP3    H136554   0.107   3.937   1.008  2.3162 -1.0291  1.0445
 5021TIP3    H236555   0.083   3.804   0.939 -0.8397  0.3344 -0.5597
 5022TIP3   OH236556   0.594   4.956  14.360  0.2313 -0.6100  0.5156
 5022TIP3    H136557   0.551   4.985  14.441 -1.4078  0.5595 -0.7558
 5022TIP3    H236558   0.546   4.876  14.336 -1.5692  0.9115 -1.1181
 5023TIP3   OH236559   5.843   5.689   2.881  0.5643  0.0830 -0.2293
 5023TIP3    H136560   5.753   5.687   2.849 -0.1211  1.6552  1.4993
 5023TIP3    H236561   5.848   5.617   2.944  0.2120  0.6173  0.4149
 5024TIP3   OH236562   2.473   5.222   3.900  0.1021  0.8003  0.2028
 5024TIP3    H136563   2.554   5.199   3.854 -0.7001  0.8225 -1.2543
 5024TIP3    H236564   2.456   5.147   3.957  0.8285  0.5434  0.0929
 5025TIP3   OH236565   2.400   6.170  15.202  0.3874 -0.5050 -0.7899
 5025TIP3    H136566   2.416   6.105  15.133  0.5742 -0.3631 -0.8818
 5025TIP3    H236567   2.366   6.247  15.155  1.9772  0.1422 -0.9134
 5026TIP3   OH236568   5.497   4.425  16.793  0.7991  0.7996  0.2092
 5026TIP3    H136569   5.505   4.346  16.741 -0.2415  1.1490 -0.4885
 5026TIP3    H236570   5.501   4.395  16.884 -2.6048 -0.4168  0.0025
 5027TIP3   OH236571   4.081   1.055   1.136  0.1854  0.3781  0.3410
 5027TIP3    H136572   4.005   1.109   1.113  1.0388  1.8485  0.9368
 5027TIP3    H236573   4.140   1.114   1.182  1.8370 -0.6854 -0.3609
 5028TIP3   OH236574   3.351   1.584   5.418 -0.0367  0.4364  0.1039
 5028TIP3    H136575   3.419   1.588   5.350  1.9442  1.1870  2.0609
 5028TIP3    H236576   3.393   1.535   5.490 -2.0823 -0.3263  0.8055
 5029TIP3   OH236577   5.159   1.686  11.265  0.5037 -0.0651 -0.1607
 5029TIP3    H136578   5.228   1.656  11.205 -0.2016 -1.5922 -0.2150
 5029TIP3    H236579   5.206   1.705  11.346  1.1692  0.0837 -0.5711
 5030TIP3   OH236580   5.458   1.397  16.504  0.3016 -0.2405 -0.2604
 5030TIP3    H136581   5.460   1.484  16.544 -1.0499 -0.0752 -0.5305
 5030TIP3    H236582   5.506   1.408  16.422 -0.6262  0.4916 -0.7267
 5031TIP3   OH236583   5.667   6.064   1.167 -0.1589 -0.3203 -0.4292
 5031TIP3    H136584   5.762   6.052   1.171 -0.0444  0.2938 -1.2589
 5031TIP3    H236585   5.649   6.091   1.077 -0.8845  1.5938  0.2561
 5032TIP3   OH236586   5.866   0.767   2.133  0.3743 -0.1083  0.4469
 5032TIP3    H136587   5.894   0.847   2.178 -0.3395  0.7302 -0.5664
 5032TIP3    H236588   5.917   0.697   2.174  1.3105  0.9187  1.0651
 5033TIP3   OH236589   2.267   3.356  17.101 -0.1417  0.1558 -0.0928
 5033TIP3    H136590   2.207   3.409  17.049  0.7804  0.7302 -0.5855
 5033TIP3    H236591   2.353   3.392  17.083  0.3366 -0.5125  0.7908
 5034TIP3   OH236592   0.294   4.474   3.252  0.5173  0.3552 -0.1637
 5034TIP3    H136593   0.227   4.528   3.292 -0.5976 -1.4298  0.4522
 5034TIP3    H236594   0.307   4.511   3.165 -1.8452  0.2576 -0.5776
 5035TIP3   OH236595   4.721   0.426  15.283 -0.3834  0.5546  0.2023
 5035TIP3    H136596   4.646   0.408  15.340 -1.2753  0.8728 -0.8495
 5035TIP3    H236597   4.797   0.405  15.336 -1.1880  1.2393  1.6555
 5036TIP3   OH236598   3.673   0.151  15.068 -0.2421  0.1283  0.0521
 5036TIP3    H136599   3.701   0.231  15.112 -0.1138  1.0556 -1.6678
 5036TIP3    H236600   3.578   0.148  15.082 -0.2887  0.7426 -0.1291
 5037TIP3   OH236601   2.178   6.801   1.448  0.6534  0.1498  0.0467
 5037TIP3    H136602   2.113   6.836   1.387  0.3328 -1.4405 -0.5303
 5037TIP3    H236603   2.247   6.868   1.451 -1.5504  2.4215  1.5952
 5038TIP3   OH236604   0.458   6.405  14.145 -0.1076  0.1131  0.3373
 5038TIP3    H136605   0.490   6.450  14.067  1.8477 -2.3543 -0.3243
 5038TIP3    H236606   0.407   6.332  14.111 -0.6782  0.0023  1.4068
 5039TIP3   OH236607   5.142   1.537   0.988 -0.1515  0.0350  0.6919
 5039TIP3    H136608   5.170   1.626   1.009 -1.6456  1.1341 -1.8143
 5039TIP3    H236609   5.158   1.528   0.894 -1.3536 -1.8549  0.6356
 5040TIP3   OH236610   0.775   1.789  11.784  0.0342 -0.3234 -0.1568
 5040TIP3    H136611   0.809   1.763  11.698 -1.7764  0.6145 -1.1852
 5040TIP3    H236612   0.764   1.884  11.778  0.8761 -0.0991  1.4807
 5041TIP3   OH236613   3.377   3.004  13.569  0.1095 -0.5883  0.4941
 5041TIP3    H136614   3.343   2.962  13.648 -0.3623 -0.0650  0.5727
 5041TIP3    H236615   3.299   3.039  13.526  0.5317  0.4186  0.5454
 5042TIP3   OH236616   0.893   2.171   0.000 -0.1786  0.1681  0.1080
 5042TIP3    H136617   0.853   2.250   0.037  1.5356  0.4975  1.3345
 5042TIP3    H236618   0.854   2.163  -0.087 -4.2796 -0.5458  1.8544
 5043TIP3   OH236619   5.447   5.101  13.779  0.1582 -0.2936 -0.3708
 5043TIP3    H136620   5.392   5.023  13.776  0.9734 -1.0083  1.9279
 5043TIP3    H236621   5.453   5.122  13.873  1.9290  1.1021 -0.7708
 5044TIP3   OH236622   6.526   1.520   1.497  0.2484 -0.1986 -0.1469
 5044TIP3    H136623   6.468   1.558   1.562 -0.8101  1.4179 -2.0067
 5044TIP3    H236624   6.473   1.455   1.452  0.2148  0.4745 -1.0886
 5045TIP3   OH236625   4.539   6.737  13.074  0.0646  0.0487  0.0139
 5045TIP3    H136626   4.497   6.820  13.056 -0.6767 -0.1453  0.8184
 5045TIP3    H236627   4.530   6.686  12.993 -0.0340  0.5133 -0.2659
 5046TIP3   OH236628   6.293   2.709  13.602 -0.6580  0.4001 -0.2518
 5046TIP3    H136629   6.287   2.690  13.508  0.8754 -0.3640 -0.2187
 5046TIP3    H236630   6.384   2.688  13.624 -0.8149  1.2844  1.2531
 5047TIP3   OH236631   6.370   4.930   4.155 -0.5002  0.3478 -0.2539
 5047TIP3    H136632   6.370   5.025   4.158 -0.4536  0.3281  0.4911
 5047TIP3    H236633   6.373   4.908   4.062 -0.1588  1.0725 -0.4115
 5048TIP3   OH236634   3.038   0.976   2.681 -0.7710  0.0045 -0.2010
 5048TIP3    H136635   3.113   1.023   2.646  0.3464 -0.9265  0.8769
 5048TIP3    H236636   3.047   0.887   2.646 -1.2131 -0.1838  0.1552
 5049TIP3   OH236637   5.798   5.025  12.544 -0.4183  0.0184  0.4871
 5049TIP3    H136638   5.793   5.034  12.639  0.8636  1.6528  0.4212
 5049TIP3    H236639   5.723   5.075  12.512 -0.1871  0.4256  0.5869
 5050TIP3   OH236640   4.218   1.787  15.913  0.4385 -0.0614 -0.0227
 5050TIP3    H136641   4.214   1.699  15.875 -2.0676  0.7175 -1.7078
 5050TIP3    H236642   4.171   1.779  15.996  2.0454 -0.7537  0.8472
 5051TIP3   OH236643   5.924   1.145  16.259 -0.7092  0.5053 -0.0020
 5051TIP3    H136644   6.004   1.096  16.242 -0.9183 -0.0602  0.6196
 5051TIP3    H236645   5.951   1.237  16.259 -0.4058  0.4297 -1.6662
 5052TIP3   OH236646   0.873   3.270   2.624 -0.3038 -0.0598  0.6889
 5052TIP3    H136647   0.786   3.309   2.627 -2.0984 -3.6777 -0.3952
 5052TIP3    H236648   0.904   3.288   2.535 -1.0318 -0.8523  0.2625
 5053TIP3   OH236649   5.358   1.983  14.968 -0.0602 -0.1655  0.3093
 5053TIP3    H136650   5.356   1.928  14.890 -1.9088 -0.9436  0.8777
 5053TIP3    H236651   5.447   1.974  15.002  0.0986 -1.5839 -0.4635
 5054TIP3   OH236652   3.626   2.230  16.179 -0.0220  0.0922 -0.0115
 5054TIP3    H136653   3.721   2.223  16.189 -0.0747  0.6118  0.9055
 5054TIP3    H236654   3.605   2.319  16.207 -0.5976  0.4884 -1.6642
 5055TIP3   OH236655   3.108   2.866  11.065  0.4261 -0.0514  0.8621
 5055TIP3    H136656   3.147   2.950  11.041  0.1482  0.2035  1.3029
 5055TIP3    H236657   3.118   2.812  10.987  0.6730  0.3681  0.6023
 5056TIP3   OH236658   0.489   2.595  16.573  0.4919 -0.5545  0.2244
 5056TIP3    H136659   0.438   2.527  16.530  1.8172 -0.7910 -1.0329
 5056TIP3    H236660   0.508   2.658  16.503 -1.2702  1.4590  1.5048
 5057TIP3   OH236661   3.614   0.620   4.751 -0.1050 -0.6554 -0.4693
 5057TIP3    H136662   3.542   0.574   4.792  0.0118 -0.2715  0.1665
 5057TIP3    H236663   3.584   0.711   4.744 -0.1426 -0.7227 -1.2701
 5058TIP3   OH236664   6.564   2.888  14.241  0.8329  0.1672 -0.1634
 5058TIP3    H136665   6.536   2.888  14.333  0.4598  0.5928 -0.2773
 5058TIP3    H236666   6.635   2.824  14.238  1.8412  1.2207  0.7227
 5059TIP3   OH236667   4.630   5.498   5.919 -0.2109  0.4667  0.4369
 5059TIP3    H136668   4.549   5.549   5.927 -0.4920  0.1049 -0.0769
 5059TIP3    H236669   4.636   5.476   5.826  0.8347  1.0659  0.3565
 5060TIP3   OH236670   0.978   0.173  12.156 -0.3361  0.4305  0.3583
 5060TIP3    H136671   0.943   0.125  12.081  0.2471 -1.5087  1.3055
 5060TIP3    H236672   1.025   0.247  12.117  2.8034 -2.3931 -1.3785
 5061TIP3   OH236673   5.235   2.440   0.779 -0.0133 -0.5851 -0.2913
 5061TIP3    H136674   5.311   2.423   0.833  0.2948  2.4575  0.3230
 5061TIP3    H236675   5.271   2.474   0.697 -0.6589  0.4136 -0.1759
 5062TIP3   OH236676   5.344   3.210   5.352 -0.0003 -0.3591 -0.0361
 5062TIP3    H136677   5.347   3.268   5.276 -1.1924  0.2184  0.3560
 5062TIP3    H236678   5.334   3.122   5.314  1.5037 -0.2992 -0.6140
 5063TIP3   OH236679   5.361   3.419   2.172  0.0616 -0.0747 -0.3792
 5063TIP3    H136680   5.404   3.497   2.207  1.1059 -0.0006 -1.7458
 5063TIP3    H236681   5.312   3.383   2.245 -0.0988  1.6404  0.3771
 5064TIP3   OH236682   3.759   5.209   3.363  0.3926 -0.2458 -0.7443
 5064TIP3    H136683   3.675   5.165   3.380 -0.1882  0.5977 -1.3980
 5064TIP3    H236684   3.818   5.173   3.429 -1.5319  2.2250  2.4507
 5065TIP3   OH236685   1.031   1.867   2.780 -0.2856  0.1788  0.4868
 5065TIP3    H136686   1.013   1.899   2.692 -1.4316 -1.1105  0.2279
 5065TIP3    H236687   1.011   1.941   2.838  0.1105  0.9073 -0.3074
 5066TIP3   OH236688   1.441   5.740   2.684 -0.0205 -0.3048  0.3586
 5066TIP3    H136689   1.403   5.652   2.672  0.3830 -0.4166 -0.1379
 5066TIP3    H236690   1.509   5.745   2.617  0.5028  0.0845  0.9245
 5067TIP3   OH236691   0.654   2.629   2.014 -0.6180 -0.3025  0.7131
 5067TIP3    H136692   0.603   2.661   1.940  1.3415  0.3983 -0.3708
 5067TIP3    H236693   0.687   2.708   2.057  1.8561 -0.7587 -0.2729
 5068TIP3   OH236694   6.137   2.678   5.780  0.3728  0.1694  0.2512
 5068TIP3    H136695   6.080   2.663   5.855  2.2658 -0.9080  1.5236
 5068TIP3    H236696   6.125   2.601   5.724  0.6314 -0.1056  0.5692
 5069TIP3   OH236697   6.099   4.160   2.351 -0.2508  0.0174  0.4474
 5069TIP3    H136698   6.028   4.097   2.341  0.0212 -0.0758 -1.0300
 5069TIP3    H236699   6.179   4.108   2.337 -0.0862  1.0034 -2.7414
 5070TIP3   OH236700   1.689   4.013  14.447  0.2438  0.5315  0.1517
 5070TIP3    H136701   1.698   4.066  14.526 -0.2282 -0.9550  1.2341
 5070TIP3    H236702   1.750   3.940  14.460  0.5594  0.5523 -1.1041
 5071TIP3   OH236703   3.519   4.587   4.547 -0.0094 -0.0642 -0.1531
 5071TIP3    H136704   3.582   4.643   4.501 -0.2890  0.4284  0.0538
 5071TIP3    H236705   3.536   4.499   4.513  1.4703 -0.1095  0.6432
 5072TIP3   OH236706   6.130   3.815   3.256  0.1957  0.0404  0.3345
 5072TIP3    H136707   6.215   3.785   3.288  0.5108  0.8750  0.2991
 5072TIP3    H236708   6.122   3.904   3.291 -1.3399 -0.5748  1.6068
 5073TIP3   OH236709   6.682   4.117  15.688  0.5335 -0.4168  0.3046
 5073TIP3    H136710   6.735   4.040  15.668  0.3684 -0.7386  1.0981
 5073TIP3    H236711   6.741   4.191  15.677  0.2098 -0.4860 -2.3501
 5074TIP3   OH236712   3.163   0.748   4.480  0.0569  0.1244 -0.3310
 5074TIP3    H136713   3.187   0.839   4.497  1.3550 -0.1582 -0.5602
 5074TIP3    H236714   3.247   0.702   4.472 -0.5606 -0.7845 -1.8684
 5075TIP3   OH236715   1.412   5.429   1.045  0.3422  0.0294 -0.0940
 5075TIP3    H136716   1.463   5.378   0.982  1.0375 -0.4073  0.8072
 5075TIP3    H236717   1.347   5.367   1.078 -0.1378  0.3083 -0.5116
 5076TIP3   OH236718   2.386   6.174   3.210  0.0150 -0.0873  0.3366
 5076TIP3    H136719   2.338   6.254   3.193  1.1494  0.4157 -0.5488
 5076TIP3    H236720   2.340   6.133   3.284 -0.9841  1.0113  0.3252
 5077TIP3   OH236721   6.582   2.573  11.192 -0.2624 -0.0899  0.1934
 5077TIP3    H136722   6.577   2.478  11.195 -1.1350 -0.0757 -0.6289
 5077TIP3    H236723   6.551   2.601  11.278 -0.9901 -0.5152  0.0760
 5078TIP3   OH236724   0.913   6.465   1.624  0.2541 -0.3243 -0.7245
 5078TIP3    H136725   0.948   6.471   1.535  2.9760 -1.2889  0.2486
 5078TIP3    H236726   0.870   6.380   1.627  0.2913 -0.3559 -1.0403
 5079TIP3   OH236727   4.597   6.390  12.346 -0.4883 -0.1020 -0.1116
 5079TIP3    H136728   4.676   6.339  12.366 -0.2598  0.5899  0.8010
 5079TIP3    H236729   4.530   6.324  12.329  0.0233 -0.7051  0.1618
 5080TIP3   OH236730   2.190   2.915   3.766 -0.1141  0.2968 -0.1801
 5080TIP3    H136731   2.138   2.961   3.700 -0.3258  0.7188  0.2680
 5080TIP3    H236732   2.247   2.857   3.717 -0.9537 -0.1082 -0.6914
 5081TIP3   OH236733   2.630   0.378   0.227 -0.0690  0.4907  0.4509
 5081TIP3    H136734   2.541   0.368   0.260  0.1868  0.9866  1.2889
 5081TIP3    H236735   2.682   0.317   0.279 -0.1600 -0.9100 -1.0588
 5082TIP3   OH236736   6.668   2.407   0.701 -0.2582  0.4740 -0.1621
 5082TIP3    H136737   6.709   2.466   0.765 -1.0222  0.9371 -0.0846
 5082TIP3    H236738   6.666   2.322   0.744  1.4318  0.2457 -0.5199
 5083TIP3   OH236739   4.382   6.056  13.940  0.1445  0.4194  0.3505
 5083TIP3    H136740   4.446   6.099  13.997  1.5364  0.6113 -1.3419
 5083TIP3    H236741   4.417   5.968  13.927  0.6277  0.8606 -1.4375
 5084TIP3   OH236742   0.834   5.206  14.984 -0.1231 -0.5284  0.0727
 5084TIP3    H136743   0.832   5.300  14.964 -0.4491 -0.2066  1.5332
 5084TIP3    H236744   0.743   5.185  15.007 -0.4222 -1.6100 -1.9516
 5085TIP3   OH236745   5.403   1.063   5.624 -0.6926 -0.3160 -0.4298
 5085TIP3    H136746   5.341   0.990   5.628 -0.2409 -0.6864 -0.1539
 5085TIP3    H236747   5.350   1.141   5.642 -0.9042 -0.7283  0.7706
 5086TIP3   OH236748   2.165   4.261  16.730 -0.2284  0.1035  0.2757
 5086TIP3    H136749   2.217   4.231  16.804 -0.6346 -0.4623  0.3418
 5086TIP3    H236750   2.077   4.272  16.765  0.0230  1.9059  0.3743
 5087TIP3   OH236751   1.971   5.782  12.285  0.0013  0.1335  0.2631
 5087TIP3    H136752   1.876   5.782  12.286 -0.0013 -0.9852  1.5280
 5087TIP3    H236753   1.995   5.867  12.247 -1.4867  0.3214 -0.2669
 5088TIP3   OH236754   6.211   3.368  13.419 -0.1842 -0.2185  0.3886
 5088TIP3    H136755   6.289   3.326  13.381 -1.2412 -0.6030 -1.3968
 5088TIP3    H236756   6.190   3.438  13.358  0.6028  1.9520  2.5138
 5089TIP3   OH236757   0.563   6.721  15.901  0.7388  0.5299 -0.5640
 5089TIP3    H136758   0.607   6.776  15.837  3.0850  0.0841  0.5901
 5089TIP3    H236759   0.568   6.771  15.983 -1.2903  0.6408 -0.4836
 5090TIP3   OH236760   4.925   5.651   4.963  0.7478  0.3687 -0.5264
 5090TIP3    H136761   4.929   5.691   5.050 -4.4403  1.3339 -0.5321
 5090TIP3    H236762   4.941   5.724   4.903  0.0981  0.6332 -0.3901
 5091TIP3   OH236763   3.827   6.441   3.203  0.0390 -0.2736 -0.0098
 5091TIP3    H136764   3.835   6.490   3.121 -0.7076 -1.8403 -1.0375
 5091TIP3    H236765   3.735   6.419   3.209  0.4502 -2.0123  0.1570
 5092TIP3   OH236766   2.405   5.034   3.207  0.7320 -0.3783  0.1996
 5092TIP3    H136767   2.345   4.963   3.232  0.8889 -0.2426  0.9735
 5092TIP3    H236768   2.368   5.112   3.249  1.9382 -0.4508  1.4178
 5093TIP3   OH236769   5.893   2.009   4.097 -0.2183  0.4553  0.3362
 5093TIP3    H136770   5.833   2.081   4.080  0.6258  1.1466  0.2560
 5093TIP3    H236771   5.979   2.050   4.101  0.4930 -0.8171 -1.5429
 5094TIP3   OH236772   5.722   4.308   5.778  0.1230  0.0423  0.3037
 5094TIP3    H136773   5.757   4.393   5.807 -0.9029 -0.1038  2.0766
 5094TIP3    H236774   5.648   4.292   5.837  0.3708 -2.1307  0.0548
 5095TIP3   OH236775   4.461   5.979  12.390 -0.3024 -0.7080  0.2445
 5095TIP3    H136776   4.387   5.941  12.438  0.4051 -0.4705  1.5564
 5095TIP3    H236777   4.449   6.073  12.399 -0.4908 -0.6521 -0.5660
 5096TIP3   OH236778   0.980   4.686   3.465 -0.0970  0.0314  0.4048
 5096TIP3    H136779   1.025   4.659   3.385  0.6692  0.6383  0.6211
 5096TIP3    H236780   0.977   4.606   3.518 -0.6945 -0.3974 -0.2625
 5097TIP3   OH236781   1.145   1.470  17.071 -0.4411 -0.0716 -0.0916
 5097TIP3    H136782   1.202   1.544  17.054 -0.9997  0.2753 -0.4814
 5097TIP3    H236783   1.081   1.502  17.134  0.2497 -0.6876  0.9361
 5098TIP3   OH236784   3.383   5.183   4.942 -0.2630  0.1799  0.5625
 5098TIP3    H136785   3.357   5.269   4.974  0.2899  0.4564  0.2716
 5098TIP3    H236786   3.461   5.199   4.889 -2.0070 -0.0046 -2.2320
 5099TIP3   OH236787   3.432   4.666   2.075  0.4647 -0.8959  0.0089
 5099TIP3    H136788   3.443   4.761   2.061  0.4745 -1.1098 -1.4798
 5099TIP3    H236789   3.339   4.656   2.095  0.6653 -0.4597  1.2720
 5100TIP3   OH236790   4.371   1.845   3.311 -0.6483  0.4753 -0.1387
 5100TIP3    H136791   4.281   1.876   3.320 -0.4204  0.5184  2.2080
 5100TIP3    H236792   4.425   1.923   3.325 -0.2070  0.2356 -0.4794
 5101TIP3   OH236793   3.938   3.565   0.594 -0.0834  0.8738  0.4172
 5101TIP3    H136794   3.856   3.520   0.613  1.1382 -1.2606  0.8718
 5101TIP3    H236795   3.988   3.559   0.675  1.1313  0.7416 -0.3235
 5102TIP3   OH236796   3.292   2.666  12.115 -0.1454  0.5425  0.9794
 5102TIP3    H136797   3.205   2.707  12.110 -0.0500  0.5970 -0.3393
 5102TIP3    H236798   3.277   2.574  12.093  0.3646  0.9005 -1.0272
 5103TIP3   OH236799   6.763   6.240  14.920  0.1832  0.1938 -0.0559
 5103TIP3    H136800   6.800   6.164  14.966 -0.3512 -0.0468 -0.0165
 5103TIP3    H236801   6.838   6.282  14.879  0.5131 -0.2416  0.0931
 5104TIP3   OH236802   1.990   6.273  14.613 -0.1909  0.5017  0.0380
 5104TIP3    H136803   2.048   6.268  14.689 -0.2559 -0.1915  0.0447
 5104TIP3    H236804   1.991   6.366  14.588  1.9433  0.3105 -0.7563
 5105TIP3   OH236805   6.185   5.575  10.551 -0.3451  0.5166  0.1639
 5105TIP3    H136806   6.232   5.590  10.633 -0.2183  0.2229  0.1460
 5105TIP3    H236807   6.243   5.609  10.483 -0.6085  1.0880  0.2237
 5106TIP3   OH236808   5.688   3.811   2.213 -0.3662  0.4718 -0.1883
 5106TIP3    H136809   5.728   3.787   2.297  0.5964 -0.4662 -0.9071
 5106TIP3    H236810   5.749   3.875   2.175  0.3633 -0.7883 -1.1814
 5107TIP3   OH236811   2.232   5.060   2.097  0.5736 -0.1660 -1.1636
 5107TIP3    H136812   2.215   5.093   2.008 -1.8945  0.7633 -0.3798
 5107TIP3    H236813   2.179   4.980   2.103  0.7555 -0.2373 -0.5296
 5108TIP3   OH236814   5.802   5.360   5.365 -0.0505  0.1510  0.0274
 5108TIP3    H136815   5.859   5.346   5.290  0.0804  2.9817 -0.4295
 5108TIP3    H236816   5.759   5.275   5.378  1.0720 -0.8101 -2.2602
 5109TIP3   OH236817   5.860   0.088   5.296 -0.2678  0.1190 -0.4926
 5109TIP3    H136818   5.914   0.109   5.220 -0.1923 -1.2180 -0.8335
 5109TIP3    H236819   5.871  -0.007   5.307  0.6332  0.4664  1.8843
 5110TIP3   OH236820   2.916   6.400   5.422 -0.5133 -0.0429  0.0957
 5110TIP3    H136821   2.847   6.366   5.365 -1.3249 -0.4123  1.2737
 5110TIP3    H236822   2.976   6.445   5.363 -2.0785  0.7945 -0.8745
 5111TIP3   OH236823   1.812   3.027  12.711  0.3495 -0.3038 -0.2799
 5111TIP3    H136824   1.725   3.057  12.737 -0.3634 -1.4220 -1.3509
 5111TIP3    H236825   1.806   3.015  12.616  1.2092 -1.8998 -0.1408
 5112TIP3   OH236826   1.843   3.568  13.544 -0.3881 -0.0006  0.3823
 5112TIP3    H136827   1.764   3.544  13.495  0.4149 -1.3719 -0.2428
 5112TIP3    H236828   1.915   3.550  13.484  0.3219  3.2966  0.1202
 5113TIP3   OH236829   5.847   4.424   5.441  0.5849 -0.4282  0.0468
 5113TIP3    H136830   5.801   4.347   5.475 -0.7572  1.5791  2.9773
 5113TIP3    H236831   5.798   4.448   5.363  0.2961 -1.8506 -0.2271
 5114TIP3   OH236832   3.039   3.797   2.402  0.0335  0.0824  0.4412
 5114TIP3    H136833   3.075   3.720   2.445  0.7786  0.4067  0.4073
 5114TIP3    H236834   3.107   3.825   2.342 -0.5742  0.2695 -0.1709
 5115TIP3   OH236835   0.333   4.568   2.985 -0.0952 -0.2940  0.3252
 5115TIP3    H136836   0.413   4.600   2.943  0.0884 -0.1985  0.7520
 5115TIP3    H236837   0.265   4.627   2.953  0.2796  0.6702  1.2929
 5116TIP3   OH236838   4.780   3.311   1.700  0.1923 -0.3590 -0.0580
 5116TIP3    H136839   4.738   3.336   1.782  0.1796  0.1408 -0.2183
 5116TIP3    H236840   4.872   3.334   1.711 -0.0489  0.9561 -0.6829
 5117TIP3   OH236841   4.220   2.456  15.434 -0.4989 -0.0411  0.5237
 5117TIP3    H136842   4.292   2.465  15.371 -1.3413  1.0337 -0.2962
 5117TIP3    H236843   4.251   2.502  15.512  0.2831 -0.8223  0.6864
 5118TIP3   OH236844   6.000   6.351  16.264  0.5172  0.1477  0.2021
 5118TIP3    H136845   5.992   6.297  16.185  4.5488  0.7289 -0.7172
 5118TIP3    H236846   6.004   6.288  16.336 -1.5961 -0.4574 -0.1938
 5119TIP3   OH236847   1.183   5.319  14.954  0.1553  0.2937 -0.2251
 5119TIP3    H136848   1.097   5.354  14.928 -0.4611 -1.6815 -0.9345
 5119TIP3    H236849   1.163   5.237  14.998  1.7431 -0.8442 -1.5338
 5120TIP3   OH236850   4.831   0.327  14.985  0.4051  0.3316  0.3345
 5120TIP3    H136851   4.764   0.394  14.993  1.3335  1.1009  1.7797
 5120TIP3    H236852   4.783   0.248  14.959 -0.5233  1.8428 -2.8783
 5121TIP3   OH236853   4.982   5.417  10.855 -0.2155 -0.0621  0.4747
 5121TIP3    H136854   4.917   5.349  10.871  0.2857 -1.1493 -1.9845
 5121TIP3    H236855   5.064   5.370  10.842  0.3205  1.0728 -0.3226
 5122TIP3   OH236856   1.189   0.737   1.540 -0.2785 -0.7849  0.1973
 5122TIP3    H136857   1.240   0.660   1.513 -0.3950 -1.5586  2.0842
 5122TIP3    H236858   1.153   0.772   1.458  3.9146  0.2742 -1.2784
 5123TIP3   OH236859   1.879   3.567   4.309 -0.4381 -0.0675 -0.3329
 5123TIP3    H136860   1.912   3.537   4.393 -1.8670  0.4314  0.4210
 5123TIP3    H236861   1.935   3.524   4.244  1.1838  0.1742  0.8806
 5124TIP3   OH236862   6.065   1.480   5.606  0.1282 -0.4238  0.8551
 5124TIP3    H136863   6.093   1.499   5.695  1.2843  1.6512  0.0778
 5124TIP3    H236864   6.072   1.564   5.560 -0.6855 -1.4114 -1.1225
 5125TIP3   OH236865   5.292   4.372  10.650  0.3044  0.3753 -0.2058
 5125TIP3    H136866   5.214   4.322  10.673  1.2142 -0.9342  0.0553
 5125TIP3    H236867   5.350   4.309  10.609  1.7020  1.0715  0.6579
 5126TIP3   OH236868   4.007   3.988  12.537  0.1326 -0.3709 -0.1331
 5126TIP3    H136869   4.042   3.905  12.504  2.1786  0.3856  0.0480
 5126TIP3    H236870   3.928   4.004  12.485  0.5794 -1.6654 -1.2214
 5127TIP3   OH236871   3.771   3.013  13.070 -0.0591  0.0989 -0.1069
 5127TIP3    H136872   3.859   3.050  13.077  0.6263 -1.5424  0.2461
 5127TIP3    H236873   3.781   2.923  13.102 -2.0635  0.2064  0.8317
 5128TIP3   OH236874   1.039   0.827  15.701  0.3239  0.3603  0.2626
 5128TIP3    H136875   1.081   0.782  15.775  1.3820  1.1267  0.1424
 5128TIP3    H236876   1.046   0.766  15.628  4.2010  1.6729 -0.6359
 5129TIP3   OH236877   0.101   5.890  16.306  0.0830 -0.3069 -0.1198
 5129TIP3    H136878   0.040   5.941  16.360 -0.0829 -2.5395  1.9102
 5129TIP3    H236879   0.178   5.879  16.362 -0.7326 -4.0817  0.3969
 5130TIP3   OH236880   3.373   2.825   2.287 -0.0257  0.1301 -0.5709
 5130TIP3    H136881   3.452   2.841   2.234  0.6189  0.3943  0.4497
 5130TIP3    H236882   3.382   2.735   2.316  0.6202  0.5888  0.7036
 5131TIP3   OH236883   2.294   4.879   1.096  0.2752 -0.5079  0.2034
 5131TIP3    H136884   2.331   4.967   1.099 -0.4978 -0.1987  0.7026
 5131TIP3    H236885   2.344   4.835   1.027 -0.2343  0.7220 -0.9684
 5132TIP3   OH236886   1.443   4.576   0.862  0.3061 -0.1491  0.4235
 5132TIP3    H136887   1.379   4.504   0.866  2.5873 -2.2755  0.0824
 5132TIP3    H236888   1.508   4.546   0.799  1.4376  2.1498  0.4628
 5133TIP3   OH236889   4.049   3.137   0.433 -0.4452 -0.0772 -0.4981
 5133TIP3    H136890   4.083   3.161   0.520  2.5360 -0.7865 -1.4204
 5133TIP3    H236891   4.050   3.041   0.433  2.3040 -0.0917 -2.3008
 5134TIP3   OH236892   2.843   3.549   4.328  0.2043  0.0577  0.4598
 5134TIP3    H136893   2.929   3.555   4.370  1.1420 -1.0065 -1.2574
 5134TIP3    H236894   2.840   3.460   4.292 -1.1052  0.5053 -0.5730
 5135TIP3   OH236895   4.447   6.762   2.997  0.0249 -0.0596 -0.5134
 5135TIP3    H136896   4.518   6.797   2.942 -0.4912  0.2775 -0.9726
 5135TIP3    H236897   4.376   6.825   2.987  0.0916  0.2466  0.9271
 5136TIP3   OH236898   2.984   3.392  11.107  0.4101  0.3420 -0.1113
 5136TIP3    H136899   2.935   3.433  11.036  2.6954  0.4497 -1.6940
 5136TIP3    H236900   2.949   3.303  11.113  0.2307  0.3126 -1.4407
 5137TIP3   OH236901   5.174   5.211   4.050  0.1956 -0.5809 -0.9301
 5137TIP3    H136902   5.163   5.117   4.039  3.0801 -1.1643  0.6155
 5137TIP3    H236903   5.244   5.235   3.990  0.5055  0.2940 -0.2423
 5138TIP3   OH236904   5.707   2.017  16.517 -0.1718 -0.3334  0.3256
 5138TIP3    H136905   5.648   1.962  16.464 -0.9035 -0.2469  1.0521
 5138TIP3    H236906   5.768   2.053  16.453 -1.0862 -0.1806 -0.4808
 5139TIP3   OH236907   6.540   2.666  13.712  0.0086  0.0795  0.2039
 5139TIP3    H136908   6.510   2.642  13.800  0.3638  0.1755  0.3502
 5139TIP3    H236909   6.613   2.607  13.695 -0.6725 -0.6043 -0.4226
 5140TIP3   OH236910   3.523   3.232   0.161  0.0253 -0.0208 -0.2524
 5140TIP3    H136911   3.537   3.326   0.173 -0.8200  0.2888 -1.5763
 5140TIP3    H236912   3.526   3.219   0.066 -3.2045 -0.7714 -0.3133
 5141TIP3   OH236913   4.540   3.713  16.596 -0.7245  0.4103  0.2269
 5141TIP3    H136914   4.604   3.771  16.639  1.9227 -0.5370 -2.2818
 5141TIP3    H236915   4.575   3.625  16.611 -2.4308 -0.2567  0.3297
 5142TIP3   OH236916   2.604   3.290   1.364  0.2757  0.1681 -0.0669
 5142TIP3    H136917   2.530   3.234   1.385  1.1468 -1.1763 -0.5193
 5142TIP3    H236918   2.576   3.337   1.285 -0.7594  0.9739  0.7663
 5143TIP3   OH236919   4.731   1.338   6.162  0.3686 -0.0162 -0.2554
 5143TIP3    H136920   4.757   1.362   6.251 -1.3456 -1.6742  0.7480
 5143TIP3    H236921   4.736   1.419   6.113 -1.4053  1.5807  2.0638
 5144TIP3   OH236922   0.568   6.020  15.828  0.9883  0.1983  0.0769
 5144TIP3    H136923   0.491   5.967  15.806 -0.1164  2.0992 -0.8149
 5144TIP3    H236924   0.635   5.991  15.767  0.8664 -1.1971  0.5890
 5145TIP3   OH236925   5.757   3.998   0.493 -0.2412 -0.4021  0.2538
 5145TIP3    H136926   5.813   3.923   0.512  0.3280 -0.0364  0.0394
 5145TIP3    H236927   5.792   4.068   0.547 -0.6671 -0.2473  0.3253
 5146TIP3   OH236928   2.576   4.917   4.616  0.2707  0.7262 -0.0521
 5146TIP3    H136929   2.640   4.880   4.676 -0.8366 -1.0205  0.0906
 5146TIP3    H236930   2.510   4.956   4.674  0.2441  0.8444 -0.1630
 5147TIP3   OH236931   1.726   3.473   0.070  0.6895 -0.1773 -0.3894
 5147TIP3    H136932   1.749   3.564   0.053 -0.2489  0.6807  2.5463
 5147TIP3    H236933   1.645   3.459   0.021  1.1791  0.3752 -1.3616
 5148TIP3   OH236934   2.562   4.385   0.697  0.0313  0.1596 -0.1409
 5148TIP3    H136935   2.552   4.308   0.752  1.1705  1.2415  1.6210
 5148TIP3    H236936   2.498   4.373   0.626  1.0059 -2.9406 -0.5517
 5149TIP3   OH236937   0.795   0.607   1.980 -0.3385  0.0310 -0.1680
 5149TIP3    H136938   0.758   0.683   2.026 -2.6883 -0.8113 -0.5574
 5149TIP3    H236939   0.831   0.643   1.899 -1.6432  0.7295 -0.4622
 5150TIP3   OH236940   1.658   4.527  13.599 -0.2349 -0.0021 -0.9328
 5150TIP3    H136941   1.727   4.592  13.618 -0.3143 -0.2100  0.1061
 5150TIP3    H236942   1.602   4.530  13.676 -0.4922 -0.9953 -1.0870
 5151TIP3   OH236943   2.217   2.439   2.319  0.1279  0.0729 -0.0560
 5151TIP3    H136944   2.297   2.445   2.266  0.1159  1.2410  0.0424
 5151TIP3    H236945   2.146   2.453   2.257  0.0928  0.9661  0.1775
 5152TIP3   OH236946   0.705   6.347  11.329 -0.2361  0.7583  0.0510
 5152TIP3    H136947   0.692   6.403  11.253  0.2456 -0.6913 -1.1231
 5152TIP3    H236948   0.618   6.342  11.370 -0.3276  2.1704  0.0708
 5153TIP3   OH236949   5.145   1.072  16.029  0.2073  0.1877  0.3738
 5153TIP3    H136950   5.126   1.127  15.953 -0.1010  0.2878  0.5200
 5153TIP3    H236951   5.066   1.018  16.039 -0.9840  2.2327  2.4130
 5154TIP3   OH236952   3.509   3.808  12.848  0.3215 -0.3249  0.5271
 5154TIP3    H136953   3.506   3.747  12.921 -0.7246 -1.8423 -0.7452
 5154TIP3    H236954   3.430   3.789  12.797  0.8860  0.8774 -0.8633
 5155TIP3   OH236955   0.577   5.499  11.612  0.4368 -0.3747  1.3433
 5155TIP3    H136956   0.629   5.422  11.635  0.5820 -0.7804 -0.2936
 5155TIP3    H236957   0.487   5.474  11.632  0.4041 -1.2413  0.1286
 5156TIP3   OH236958   1.247   1.951  11.211  0.1802  0.2263  0.5406
 5156TIP3    H136959   1.316   1.987  11.267 -0.2252  3.7018 -1.0422
 5156TIP3    H236960   1.262   1.992  11.126 -2.1542 -1.1339 -0.5654
 5157TIP3   OH236961   5.459   4.434  14.860 -0.2002 -0.0221  0.0196
 5157TIP3    H136962   5.445   4.360  14.801 -0.9777  0.5184 -0.4966
 5157TIP3    H236963   5.403   4.416  14.935  0.5028 -0.5269  0.4239
 5158TIP3   OH236964   6.149   1.922  16.234  0.5463 -0.4783  0.1085
 5158TIP3    H136965   6.066   1.895  16.196  0.9968  0.5887 -1.6812
 5158TIP3    H236966   6.167   1.856  16.301 -1.0569 -1.5017 -0.4485
 5159TIP3   OH236967   2.341   6.312  15.439 -0.1299  0.1980  0.2533
 5159TIP3    H136968   2.330   6.246  15.371 -1.1996 -0.7305  1.3157
 5159TIP3    H236969   2.431   6.300  15.470 -0.1635 -0.4533  0.1088
 5160TIP3   OH236970   2.141   1.069  16.575  0.1172 -0.0168 -0.1542
 5160TIP3    H136971   2.220   1.016  16.583  0.1909  0.1430  0.2156
 5160TIP3    H236972   2.153   1.139  16.640  1.5035  2.3273 -2.8006
 5161TIP3   OH236973   2.144   3.012  13.307  0.2297  0.5808  0.0868
 5161TIP3    H136974   2.103   3.085  13.262  0.4389  0.6896  0.0703
 5161TIP3    H236975   2.238   3.028  13.298  0.2892 -0.4795 -1.2170
 5162TIP3   OH236976   1.361   4.230   5.003  0.3845  0.2627  0.1300
 5162TIP3    H136977   1.450   4.247   5.035  0.7973  0.1576 -0.9136
 5162TIP3    H236978   1.306   4.292   5.050  1.0477  0.4736  0.6339
 5163TIP3   OH236979   5.938   3.550  11.616 -0.1264 -0.1533  0.2331
 5163TIP3    H136980   5.905   3.632  11.653 -0.9173 -0.1744 -0.3999
 5163TIP3    H236981   5.895   3.481  11.667  0.4143 -0.1800  0.6596
 5164TIP3   OH236982   5.653   5.967   1.754 -0.6226 -0.4145  0.3312
 5164TIP3    H136983   5.695   5.949   1.838 -0.7880 -0.1103  0.4788
 5164TIP3    H236984   5.651   5.882   1.709  0.7979 -0.3073  0.0254
 5165TIP3   OH236985   0.458   0.696  12.894  0.2214  0.4667  0.4350
 5165TIP3    H136986   0.392   0.632  12.867  0.4524 -0.4197  1.8590
 5165TIP3    H236987   0.518   0.701  12.820 -0.8977  0.5377 -0.4826
 5166TIP3   OH236988   1.518   3.698  12.571 -0.5452  0.2283 -0.2662
 5166TIP3    H136989   1.603   3.704  12.529 -1.5963 -0.4117 -2.5538
 5166TIP3    H236990   1.463   3.760  12.523 -1.1304  1.3425  1.8087
 5167TIP3   OH236991   4.742   6.493  16.681  0.4969 -0.4676  0.0848
 5167TIP3    H136992   4.775   6.403  16.687  0.0819 -0.5432  1.5615
 5167TIP3    H236993   4.804   6.544  16.732 -0.0589 -0.1487  0.4453
 5168TIP3   OH236994   1.104   0.852   5.662 -0.0606  0.2624  0.0767
 5168TIP3    H136995   1.178   0.862   5.603  0.8558  1.5478  1.4345
 5168TIP3    H236996   1.030   0.892   5.615  0.1351 -0.7718 -1.1519
 5169TIP3   OH236997   5.409   4.897  15.642  0.6897 -0.4528 -0.1035
 5169TIP3    H136998   5.355   4.944  15.579  1.8420 -0.2495 -0.9561
 5169TIP3    H236999   5.353   4.886  15.719 -0.6179 -0.4356 -1.0531
 5170TIP3   OH237000   1.290   0.876  15.517  0.0216  0.4416 -0.3942
 5170TIP3    H137001   1.235   0.906  15.589  0.0201 -1.1739  0.3131
 5170TIP3    H237002   1.252   0.791  15.493  2.5476 -0.9719  0.4934
 5171TIP3   OH237003   1.921   4.663  12.051  0.0221  0.0034 -0.1696
 5171TIP3    H137004   1.964   4.741  12.015  1.3920 -0.4032  0.5711
 5171TIP3    H237005   1.936   4.668  12.145 -0.1613 -0.9890 -0.0799
 5172TIP3   OH237006   3.661   1.915   0.198 -0.2661 -0.4535 -0.0720
 5172TIP3    H137007   3.596   1.986   0.195 -0.7165 -0.9163 -1.6710
 5172TIP3    H237008   3.744   1.958   0.176 -0.3019 -0.1689  0.3331
 5173TIP3   OH237009   5.570   5.641   0.670  0.2131  0.2751  0.1539
 5173TIP3    H137010   5.488   5.612   0.630 -0.3895  0.3262  1.3469
 5173TIP3    H237011   5.545   5.671   0.757  1.1399  2.5554 -0.3389
 5174TIP3   OH237012   4.204   2.826  11.038  0.0972 -0.4135  0.3578
 5174TIP3    H137013   4.273   2.856  10.980 -1.4814  0.4775 -1.1309
 5174TIP3    H237014   4.199   2.731  11.023  0.2449 -0.3091 -0.3548
 5175TIP3   OH237015   5.216   2.254   5.605 -0.4837 -0.4101 -0.3113
 5175TIP3    H137016   5.140   2.220   5.558 -0.8090  0.2140 -0.2352
 5175TIP3    H237017   5.291   2.207   5.567 -1.0116 -1.8321  0.3610
 5176TIP3   OH237018   2.231   5.538   2.643 -0.5222  0.0671  0.2487
 5176TIP3    H137019   2.276   5.579   2.569 -1.1954  0.7662  0.2271
 5176TIP3    H237020   2.297   5.480   2.682  0.0674  0.2789 -0.4302
 5177TIP3   OH237021   3.185   0.469  15.995  0.4038 -0.2474 -0.3153
 5177TIP3    H137022   3.135   0.480  16.075  2.0809  0.2311  0.6922
 5177TIP3    H237023   3.143   0.527  15.932  0.1016  0.6637  0.7068
 5178TIP3   OH237024   2.699   2.930   3.386 -0.6609 -0.7531 -0.5152
 5178TIP3    H137025   2.673   2.858   3.445 -1.8832  0.0009 -0.1011
 5178TIP3    H237026   2.721   3.002   3.445 -1.4023 -0.1518 -0.9647
 5179TIP3   OH237027   0.748   1.563  15.645  0.1469 -0.5031  0.0904
 5179TIP3    H137028   0.673   1.535  15.592  0.1401  0.0641 -0.2131
 5179TIP3    H237029   0.709   1.612  15.717  0.3574  2.6079 -1.8277
 5180TIP3   OH237030   2.049   0.618  14.856  0.2358  0.5549 -0.2695
 5180TIP3    H137031   2.121   0.682  14.853  0.2828  0.4695 -0.9018
 5180TIP3    H237032   2.048   0.579  14.769  0.9633 -1.1621  0.4843
 5181TIP3   OH237033   0.698   6.368   5.791  0.1055  0.2777 -0.0734
 5181TIP3    H137034   0.678   6.307   5.720 -0.1087  1.0981 -0.7272
 5181TIP3    H237035   0.738   6.314   5.859 -0.5105 -0.6656 -0.4596
 5182TIP3   OH237036   2.401   2.460   1.755 -0.4136  0.1941 -0.1804
 5182TIP3    H137037   2.405   2.542   1.705 -2.1275  0.6096  0.3648
 5182TIP3    H237038   2.308   2.439   1.760  0.0461 -2.2404 -1.0259
 5183TIP3   OH237039   3.293   2.321  15.707 -0.1555 -0.0312 -0.4067
 5183TIP3    H137040   3.232   2.268  15.656 -0.1263  0.1507 -0.6326
 5183TIP3    H237041   3.299   2.403  15.659  1.3851 -0.5840 -1.1888
 5184TIP3   OH237042   5.500   4.965  11.546 -0.2223 -0.4241 -0.2337
 5184TIP3    H137043   5.428   4.949  11.484  1.1521 -0.4221 -1.8800
 5184TIP3    H237044   5.510   5.060  11.548  2.1714 -0.5318 -2.9757
 5185TIP3   OH237045   3.536   1.689  12.673  0.5597 -0.3440 -0.4231
 5185TIP3    H137046   3.466   1.728  12.620  2.0334  2.7299 -0.1707
 5185TIP3    H237047   3.595   1.649  12.609  1.1670  1.4203 -0.9936
 5186TIP3   OH237048   0.670   2.537   1.311  0.2254  0.3275  0.2079
 5186TIP3    H137049   0.578   2.527   1.332  0.0632  4.0252  1.5874
 5186TIP3    H237050   0.671   2.576   1.223  0.4032  1.7233  0.8167
 5187TIP3   OH237051   1.126   1.031   3.736 -0.0438  0.2649 -0.3586
 5187TIP3    H137052   1.160   1.004   3.651 -1.2819 -0.5686 -0.5967
 5187TIP3    H237053   1.031   1.023   3.728 -0.3755  3.0325  0.1268
 5188TIP3   OH237054   2.518   2.964   1.626  0.2756  0.1980  0.3981
 5188TIP3    H137055   2.446   2.905   1.608  0.8622 -1.0924  2.1253
 5188TIP3    H237056   2.522   3.022   1.550 -3.1594  0.9102  0.7094
 5189TIP3   OH237057   1.905   1.085   5.214  0.5635  0.3443 -0.1952
 5189TIP3    H137058   1.864   1.031   5.281  1.1594 -0.6463 -0.6163
 5189TIP3    H237059   1.927   1.023   5.144  0.3094  1.2973 -1.1260
 5190TIP3   OH237060   6.653   2.021  12.034  0.3009 -0.2969  0.4880
 5190TIP3    H137061   6.572   2.010  11.985 -0.1223 -0.7968  1.2836
 5190TIP3    H237062   6.720   1.976  11.982  0.2376  0.8248 -0.5888
 5191TIP3   OH237063   0.849   6.479   3.616 -0.0550  0.4193  0.0895
 5191TIP3    H137064   0.835   6.572   3.600 -0.6193  0.2820 -0.2196
 5191TIP3    H237065   0.912   6.452   3.549 -0.6506  0.3579 -0.4432
 5192TIP3   OH237066   4.239   0.443   4.038 -0.2262  0.2482 -0.6944
 5192TIP3    H137067   4.293   0.493   3.977 -1.6777  2.5023 -0.1594
 5192TIP3    H237068   4.153   0.484   4.035 -0.6907 -0.4160  1.8687
 5193TIP3   OH237069   3.809   0.811  13.982 -0.2864 -0.5442 -0.0564
 5193TIP3    H137070   3.775   0.858  13.906  0.4578 -0.5892 -0.4223
 5193TIP3    H237071   3.871   0.872  14.021  0.8401 -1.3009 -0.6548
 5194TIP3   OH237072   5.639   2.884   4.495 -0.4457 -0.2492  0.0943
 5194TIP3    H137073   5.650   2.972   4.458 -0.4729  0.3507  1.4757
 5194TIP3    H237074   5.729   2.852   4.507 -0.4421 -0.6060 -0.8423
 5195TIP3   OH237075   0.687   2.852  12.040  0.1352 -0.3113  0.2313
 5195TIP3    H137076   0.762   2.891  11.997  1.4095 -1.8164  1.0385
 5195TIP3    H237077   0.647   2.924  12.089  0.8004  0.5879 -0.5319
 5196TIP3   OH237078   5.356   2.043  12.372  0.0689  0.1080 -0.4758
 5196TIP3    H137079   5.419   1.974  12.351  0.7893  0.2154  1.2183
 5196TIP3    H237080   5.340   2.087  12.289  1.4661 -0.5663 -1.1258
 5197TIP3   OH237081   6.382   4.736   0.950 -0.4236  0.0708 -0.0754
 5197TIP3    H137082   6.304   4.706   0.996 -1.4957 -0.1618 -2.0192
 5197TIP3    H237083   6.455   4.707   1.006 -1.6602 -1.0149  1.0053
 5198TIP3   OH237084   3.733   3.087   0.576  0.3808 -0.4209  0.2635
 5198TIP3    H137085   3.736   3.182   0.570 -0.8730 -0.4811 -2.0164
 5198TIP3    H237086   3.730   3.057   0.485 -1.3947 -2.5323  0.9549
 5199TIP3   OH237087   0.351   1.395  14.405  0.1487  0.2141  0.2655
 5199TIP3    H137088   0.321   1.416  14.493 -0.5868  1.2385 -0.2136
 5199TIP3    H237089   0.398   1.473  14.376 -1.3772  0.6923 -0.9973
 5200TIP3   OH237090   4.774   6.530  17.115 -1.0179 -0.3482  0.2914
 5200TIP3    H137091   4.747   6.530  17.207 -0.0214 -0.7024  0.5789
 5200TIP3    H237092   4.742   6.447  17.081 -0.9006 -0.4576  0.4504
 5201TIP3   OH237093   6.392   0.390  15.013  0.3944 -0.3875  0.3483
 5201TIP3    H137094   6.331   0.379  14.940 -1.2758  1.7460  1.3502
 5201TIP3    H237095   6.371   0.320  15.074 -0.1724 -0.4587  0.0711
 5202TIP3   OH237096   6.080   3.244   1.986 -0.2492  0.1637 -0.3989
 5202TIP3    H137097   6.146   3.276   2.048 -2.0249  0.1199  1.5444
 5202TIP3    H237098   6.131   3.204   1.916  1.8772  2.6209 -0.3107
 5203TIP3   OH237099   4.555   0.444   1.640 -0.1531  0.1186  0.1970
 5203TIP3    H137100   4.485   0.420   1.579  1.1504  0.3145 -1.4061
 5203TIP3    H237101   4.581   0.361   1.680 -1.3419  0.0578  0.8800
 5204TIP3   OH237102   6.453   5.086  12.268  0.0128 -0.0969 -0.3557
 5204TIP3    H137103   6.422   5.013  12.214 -0.0860  0.8505 -1.6184
 5204TIP3    H237104   6.462   5.159  12.206 -1.8177  1.5105  1.2205
 5205TIP3   OH237105   2.484   1.715   3.745 -0.0857 -0.1275  0.5395
 5205TIP3    H137106   2.421   1.754   3.684  0.2104 -1.5017 -0.6756
 5205TIP3    H237107   2.489   1.777   3.818 -0.4885  1.5188 -0.8048
 5206TIP3   OH237108   4.960   0.841  14.802  0.1856 -0.3613 -0.4852
 5206TIP3    H137109   5.053   0.834  14.821  0.5099  1.5153 -1.2632
 5206TIP3    H237110   4.919   0.851  14.888  0.8374  0.0979 -0.2227
 5207TIP3   OH237111   3.639   2.134   1.532 -0.1850  0.0803  0.0074
 5207TIP3    H137112   3.592   2.171   1.607  2.0763 -0.2006  1.6045
 5207TIP3    H237113   3.630   2.199   1.463 -0.3983  1.3781  1.2394
 5208TIP3   OH237114   1.201   1.533   4.318  0.2582  0.2122  0.8368
 5208TIP3    H137115   1.179   1.622   4.346  3.2692  0.7847  1.5779
 5208TIP3    H237116   1.284   1.543   4.271  0.6271 -2.2111  0.9430
 5209TIP3   OH237117   1.055   2.558  14.875  0.2396  0.1754  0.0636
 5209TIP3    H137118   1.014   2.550  14.962  0.3591 -0.1008  0.0932
 5209TIP3    H237119   0.986   2.595  14.820  0.2366  0.5675  0.3301
 5210TIP3   OH237120   6.154   5.770   1.320  0.2946  0.4256 -0.1111
 5210TIP3    H137121   6.201   5.687   1.329  2.6460  1.9351  2.2042
 5210TIP3    H237122   6.216   5.828   1.277 -1.5208  0.8741 -2.1629
 5211TIP3   OH237123   6.134   6.452   5.044  0.6721  0.2950  0.3631
 5211TIP3    H137124   6.174   6.539   5.045 -1.3024  1.2590 -0.9181
 5211TIP3    H237125   6.189   6.399   5.102  4.2678  1.3052 -2.0060
 5212TIP3   OH237126   0.885   5.989   6.357  0.4133 -0.3789  0.4943
 5212TIP3    H137127   0.964   5.955   6.313  0.8878  0.9081  0.3280
 5212TIP3    H237128   0.819   5.992   6.288  0.7473  0.2554  0.1889
 5213TIP3   OH237129   1.435   0.116  14.241  0.8056  0.0391 -0.1211
 5213TIP3    H137130   1.426   0.070  14.325  3.8185  0.1938  0.3319
 5213TIP3    H237131   1.383   0.196  14.253 -0.7790 -1.0658  0.6938
 5214TIP3   OH237132   1.136   4.257   5.536  0.4429 -0.3197  0.1717
 5214TIP3    H137133   1.107   4.174   5.573  0.0097 -0.1338  0.2531
 5214TIP3    H237134   1.204   4.233   5.473 -1.0753 -0.9162 -1.2714
 5215TIP3   OH237135   3.447   5.067  15.187 -0.2368 -0.2083  0.1217
 5215TIP3    H137136   3.449   4.995  15.251 -3.0330 -0.8296 -0.4246
 5215TIP3    H237137   3.358   5.101  15.192 -0.1978  0.4271 -2.7003
 5216TIP3   OH237138   1.709   6.092   3.892  0.0995 -0.2767  0.1592
 5216TIP3    H137139   1.802   6.101   3.873 -0.0462  0.4455 -0.2461
 5216TIP3    H237140   1.705   6.045   3.975  0.8231 -0.4271  0.1057
 5217TIP3   OH237141   1.399   5.082  12.912  0.7095  0.3936  0.0583
 5217TIP3    H137142   1.330   5.047  12.855 -0.3300  1.1854  0.7896
 5217TIP3    H237143   1.394   5.177  12.899  1.4515  0.4711  0.3530
 5218TIP3   OH237144   0.874   2.461  11.517  0.5319 -0.0197  0.4651
 5218TIP3    H137145   0.815   2.405  11.467 -0.4329 -0.5809  2.1831
 5218TIP3    H237146   0.901   2.529  11.455 -0.0564 -1.1024 -1.0053
 5219TIP3   OH237147   3.979   1.148   2.271  0.1452 -0.1481 -0.2710
 5219TIP3    H137148   3.918   1.220   2.285 -1.5346 -1.3434 -1.2420
 5219TIP3    H237149   4.036   1.180   2.200 -1.3541 -0.2083 -1.5441
 5220TIP3   OH237150   6.271   0.107   2.931  0.9578  0.0216  0.2278
 5220TIP3    H137151   6.308   0.171   2.870  0.9298  0.3348  0.5398
 5220TIP3    H237152   6.286   0.144   3.018 -0.2714  0.2533  0.3511
 5221TIP3   OH237153   3.513   4.113  13.460 -0.6629  1.0833 -0.3202
 5221TIP3    H137154   3.517   4.053  13.386  0.6927  0.0401  0.5586
 5221TIP3    H237155   3.434   4.088  13.507  0.2090 -0.4437  0.3681
 5222TIP3   OH237156   2.627   1.301  12.231  0.6762  0.3630 -0.6551
 5222TIP3    H137157   2.636   1.287  12.325 -0.5326  0.7406 -0.4691
 5222TIP3    H237158   2.647   1.216  12.192  2.9978  0.6746 -0.1876
 5223TIP3   OH237159   6.398   1.265   1.146 -0.0500 -0.1036 -0.3727
 5223TIP3    H137160   6.482   1.299   1.176  0.4663 -1.3070 -0.4396
 5223TIP3    H237161   6.372   1.202   1.213 -0.4663 -0.3844 -0.7960
 5224TIP3   OH237162   6.219   6.566   1.354  0.0149  0.2410  0.2005
 5224TIP3    H137163   6.261   6.638   1.402  1.0313 -0.5266  0.5057
 5224TIP3    H237164   6.126   6.574   1.375  0.4420 -0.1576  2.4784
 5225TIP3   OH237165   3.891   5.007  15.818  0.6361  0.1540 -0.0514
 5225TIP3    H137166   3.861   5.009  15.728 -0.5397  0.5101  0.3386
 5225TIP3    H237167   3.880   5.097  15.849 -0.7315 -0.3645  1.0083
 5226TIP3   OH237168   2.968   1.203   9.954 -0.3909  0.1271  0.3286
 5226TIP3    H137169   2.994   1.250   9.875 -0.2913  2.5610  1.7517
 5226TIP3    H237170   2.880   1.236   9.973 -0.4816 -0.5616  1.1168
 5227TIP3   OH237171   6.135   0.813  11.732  0.4087 -0.0276  0.7680
 5227TIP3    H137172   6.165   0.863  11.656  1.7989 -0.0817  1.2499
 5227TIP3    H237173   6.167   0.724  11.716  2.2285  0.3340  2.1998
 5228TIP3   OH237174   1.427   5.091   0.849 -0.0874  0.0944 -0.0607
 5228TIP3    H137175   1.364   5.028   0.886 -0.0148  0.7104  1.1337
 5228TIP3    H237176   1.512   5.059   0.879  0.1033 -0.2428 -0.9499
 5229TIP3   OH237177   2.459   6.423  14.619 -0.5332 -0.4002 -0.3044
 5229TIP3    H137178   2.539   6.458  14.660 -0.7294  0.8817 -0.9810
 5229TIP3    H237179   2.485   6.337  14.586  0.2079 -0.5472  0.6253
 5230TIP3   OH237180   0.069   5.336  11.994  0.2256  0.7938 -0.1321
 5230TIP3    H137181   0.127   5.402  12.032 -0.4209  1.3100 -0.0293
 5230TIP3    H237182  -0.020   5.368  12.014 -0.0858 -0.2482  0.1558
 5231TIP3   OH237183   5.546   3.205  16.206 -0.8001 -0.0217  0.8103
 5231TIP3    H137184   5.635   3.184  16.235  0.2287  2.2454 -0.5446
 5231TIP3    H237185   5.515   3.271  16.269 -1.2705 -0.3435  0.9140
 5232TIP3   OH237186   3.469   5.493   5.737 -0.6535  0.0048  0.2127
 5232TIP3    H137187   3.381   5.485   5.700 -0.6656 -0.6625  0.3793
 5232TIP3    H237188   3.457   5.478   5.830 -0.7541  2.5364  0.6605
 5233TIP3   OH237189   4.048   6.558  12.967 -1.0309  0.4238  0.3016
 5233TIP3    H137190   4.019   6.511  13.045 -0.0309  0.5107  0.7324
 5233TIP3    H237191   4.086   6.491  12.912  1.0265  0.8091  1.2158
 5234TIP3   OH237192   1.972   3.283   5.190  0.2253  0.8644  0.7315
 5234TIP3    H137193   1.965   3.376   5.170  1.0772  0.8104  0.1593
 5234TIP3    H237194   2.038   3.250   5.129 -1.1420 -0.4277 -0.0677
 5235TIP3   OH237195   1.156   2.318   2.690 -0.1624 -0.5852  0.5550
 5235TIP3    H137196   1.200   2.325   2.605  0.5127 -0.6491  0.8929
 5235TIP3    H237197   1.208   2.253   2.739  0.2507  0.4246  1.4914
 5236TIP3   OH237198   5.121   3.554  11.664  0.5832 -0.4000  0.2813
 5236TIP3    H137199   5.044   3.558  11.721 -0.7465 -0.7452 -1.4869
 5236TIP3    H237200   5.100   3.489  11.598  2.5288 -0.7248 -0.0625
 5237TIP3   OH237201   3.848   1.379   4.484 -0.2363 -0.0410  0.0751
 5237TIP3    H137202   3.802   1.296   4.496  0.7144 -0.6904 -0.6455
 5237TIP3    H237203   3.783   1.438   4.447 -0.2999 -1.1710 -1.6693
 5238TIP3   OH237204   0.451   0.209   5.300  0.3635 -0.3568  0.3796
 5238TIP3    H137205   0.384   0.255   5.351  1.5215  2.7432 -0.8328
 5238TIP3    H237206   0.427   0.224   5.209  0.5690 -2.5317 -0.0718
 5239TIP3   OH237207   2.568   2.549  16.546  0.2397  0.7721 -1.4096
 5239TIP3    H137208   2.612   2.609  16.607  0.0677 -0.5494  0.0250
 5239TIP3    H237209   2.637   2.522  16.485  0.8580  0.5911 -0.6301
 5240TIP3   OH237210   1.962   4.521   4.336  0.6024  0.1400 -0.4031
 5240TIP3    H137211   2.032   4.481   4.388  0.0338  0.3088  0.5177
 5240TIP3    H237212   2.005   4.552   4.257  1.5225 -0.0110  0.0306
 5241TIP3   OH237213   3.508   4.959   4.499  0.5522 -0.4042  0.5940
 5241TIP3    H137214   3.496   5.051   4.523 -2.8205 -0.5435 -0.3288
 5241TIP3    H237215   3.541   4.962   4.409  0.0019 -0.0827  0.3957
 5242TIP3   OH237216   5.907   5.799   2.043 -0.3789 -0.2180  0.0867
 5242TIP3    H137217   5.870   5.882   2.014  0.9455  0.1294 -0.6392
 5242TIP3    H237218   5.833   5.751   2.081 -0.8420  1.9964  2.1216
 5243TIP3   OH237219   1.152   0.288  15.161  0.0018  0.2767  0.0494
 5243TIP3    H137220   1.102   0.326  15.088  1.0906 -1.6461 -1.7513
 5243TIP3    H237221   1.092   0.291  15.235 -0.9447  2.8327 -0.7400
 5244TIP3   OH237222   1.422   2.967  13.495  0.4054  0.2719  0.3469
 5244TIP3    H137223   1.442   2.887  13.543  2.5254  0.1956 -0.6056
 5244TIP3    H237224   1.335   2.953  13.460  0.0662 -0.9135  1.6060
 5245TIP3   OH237225   0.151   2.998  14.196  0.0912  0.2184  0.3111
 5245TIP3    H137226   0.205   3.077  14.191  0.5476 -0.1703 -1.0866
 5245TIP3    H237227   0.183   2.952  14.273  0.6902  0.7671  0.3931
 5246TIP3   OH237228   2.794   3.242   5.573 -0.6766 -0.4324  0.1568
 5246TIP3    H137229   2.813   3.153   5.542  1.4812 -0.1787  0.6477
 5246TIP3    H237230   2.842   3.248   5.656 -3.0389  0.2848  1.5119
 5247TIP3   OH237231   3.867   0.673   4.930 -0.7213  0.4239  0.2122
 5247TIP3    H137232   3.836   0.758   4.900 -0.0386  0.5339 -0.1891
 5247TIP3    H237233   3.847   0.672   5.024 -2.1379  0.3948 -0.0694
 5248TIP3   OH237234   2.446   5.500   0.277 -0.6019 -0.4054 -0.2096
 5248TIP3    H137235   2.457   5.558   0.202 -1.1121  0.1917  0.1706
 5248TIP3    H237236   2.373   5.443   0.253 -0.7585 -0.2219 -0.1739
 5249TIP3   OH237237   4.695   4.713   0.957 -0.0167 -0.4496  0.4903
 5249TIP3    H137238   4.630   4.642   0.959  0.1546 -0.6232 -0.0231
 5249TIP3    H237239   4.779   4.669   0.953  0.0861 -0.2224  0.0583
 5250TIP3   OH237240   3.041   0.642   1.272 -0.4518  0.0313  0.2305
 5250TIP3    H137241   2.992   0.588   1.335 -0.7609  0.1874  0.1235
 5250TIP3    H237242   3.071   0.717   1.323 -0.7539  0.1883  0.1810
 5251TIP3   OH237243   6.657   0.232  16.740  0.6157  0.8472  0.4618
 5251TIP3    H137244   6.692   0.292  16.806 -0.8893  1.5687  0.6155
 5251TIP3    H237245   6.591   0.180  16.786 -0.7049  1.5954 -0.5420
 5252TIP3   OH237246   4.428   2.738  13.866  0.4109 -0.0021  0.0345
 5252TIP3    H137247   4.413   2.725  13.960 -1.9654 -2.4848 -0.6131
 5252TIP3    H237248   4.515   2.699  13.851  0.7618  0.3039  1.1837
 5253TIP3   OH237249   4.596   6.791  14.834  0.0528 -0.2315  0.0341
 5253TIP3    H137250   4.584   6.719  14.772 -0.1222 -0.6706  0.5684
 5253TIP3    H237251   4.685   6.821  14.818  0.4959 -1.2471  0.4947
 5254TIP3   OH237252   5.146   5.876  17.072  0.1677 -0.3671  0.3756
 5254TIP3    H137253   5.125   5.967  17.093 -0.2343 -0.2444 -0.5223
 5254TIP3    H237254   5.061   5.836  17.052  0.6251 -0.1797 -2.0952
 5255TIP3   OH237255   4.182   6.593  12.318 -0.1980  0.0798  0.0335
 5255TIP3    H137256   4.245   6.613  12.249 -0.2992  0.5066  0.0650
 5255TIP3    H237257   4.107   6.556  12.271 -0.3473  0.5582 -0.1036
 5256TIP3   OH237258   0.938   4.220   2.940  0.1112  0.2262  0.2109
 5256TIP3    H137259   1.001   4.149   2.942  0.1774  0.2624 -0.3353
 5256TIP3    H237260   0.991   4.299   2.928 -0.0116  0.2923  0.0944
 5257TIP3   OH237261   0.755   6.287   3.326 -0.6478 -0.3767  0.8582
 5257TIP3    H137262   0.787   6.377   3.326 -1.0544 -0.2287  0.2592
 5257TIP3    H237263   0.833   6.234   3.314 -0.5948 -0.0253 -0.4351
 5258TIP3   OH237264   2.977   4.478   2.192 -0.4072  0.3829  0.1071
 5258TIP3    H137265   2.937   4.453   2.275  1.7938  0.7334  1.3170
 5258TIP3    H237266   3.019   4.397   2.161  0.8458  0.8284  0.5861
 5259TIP3   OH237267   6.313   2.352   5.436  0.2156  0.0832  0.4422
 5259TIP3    H137268   6.343   2.441   5.456 -2.3268  0.6235  2.1646
 5259TIP3    H237269   6.289   2.356   5.344  2.0800  0.5804 -0.0458
 5260TIP3   OH237270   0.716   5.589   2.748  0.7366 -0.5002  0.9860
 5260TIP3    H137271   0.806   5.618   2.731  0.5600  0.1065  1.0586
 5260TIP3    H237272   0.662   5.647   2.695  0.3339 -0.1886  1.7257
 5261TIP3   OH237273   4.233   0.496  16.300  0.3710 -0.1759 -0.2503
 5261TIP3    H137274   4.159   0.543  16.261  0.3047  0.2261  0.3592
 5261TIP3    H237275   4.307   0.557  16.292 -0.0775  0.7040  2.0264
 5262TIP3   OH237276   6.635   6.010   5.518  0.1646  0.2740 -0.0693
 5262TIP3    H137277   6.554   5.977   5.480  1.0497  0.1305 -1.8747
 5262TIP3    H237278   6.653   6.091   5.470  1.0459  0.3439  0.3717
 5263TIP3   OH237279   5.218   3.026   6.346  0.0176  0.2475 -0.1106
 5263TIP3    H137280   5.182   2.938   6.362  0.9319 -0.2013 -0.4997
 5263TIP3    H237281   5.189   3.046   6.257 -1.6698  1.0807  0.5956
 5264TIP3   OH237282   2.984   1.844   5.178 -0.6980 -0.0373 -0.0668
 5264TIP3    H137283   3.050   1.886   5.233 -0.7693  0.4778 -0.3695
 5264TIP3    H237284   3.007   1.751   5.179 -0.2884  0.0683  0.2686
 5265TIP3   OH237285   4.212   2.884  15.985 -0.2867  0.8190  0.1267
 5265TIP3    H137286   4.271   2.932  15.928  0.1725 -0.2151 -0.2905
 5265TIP3    H237287   4.243   2.793  15.980 -0.7608  0.5737  1.3508
 5266TIP3   OH237288   6.715   5.689  14.010  0.3720 -0.4391 -0.4017
 5266TIP3    H137289   6.764   5.659  13.933  0.8053 -1.0508  0.1052
 5266TIP3    H237290   6.623   5.683  13.984  0.5714  1.5383 -1.6687
 5267TIP3   OH237291   1.362   5.517   2.532 -0.2800  0.1486 -0.4760
 5267TIP3    H137292   1.271   5.542   2.515  0.1616 -0.2816 -3.8190
 5267TIP3    H237293   1.361   5.421   2.527  0.2484  0.1132  0.0872
 5268TIP3   OH237294   4.907   6.381  13.280 -0.1127  0.0248 -0.4459
 5268TIP3    H137295   4.846   6.446  13.244  0.1969  0.2346 -0.5882
 5268TIP3    H237296   4.944   6.424  13.357  1.1029  0.5282 -1.3090
 5269TIP3   OH237297   0.517   3.146   3.467 -0.5570 -0.5741  0.1189
 5269TIP3    H137298   0.429   3.157   3.431 -1.2033  0.2226  1.9134
 5269TIP3    H237299   0.556   3.076   3.414 -2.1516 -0.7173 -0.8908
 5270TIP3   OH237300   3.316   2.969  14.916 -0.0033 -0.4839  0.2996
 5270TIP3    H137301   3.345   3.004  15.000 -0.2048 -1.8034  0.9301
 5270TIP3    H237302   3.224   2.994  14.910  0.0607 -0.2301  0.3872
 5271TIP3   OH237303   1.512   1.299  15.968 -0.2344  0.1757 -0.1304
 5271TIP3    H137304   1.438   1.320  15.912 -1.6992  0.2522  1.7850
 5271TIP3    H237305   1.495   1.347  16.049  0.1024 -2.6131  1.6414
 5272TIP3   OH237306   4.284   0.843   1.076  0.5063 -0.0946 -0.8422
 5272TIP3    H137307   4.370   0.874   1.105  0.0656 -0.2036  0.6271
 5272TIP3    H237308   4.222   0.881   1.138 -0.2481 -2.1162 -0.3210
 5273TIP3   OH237309   1.164   0.624  15.499  0.2055 -0.6312  0.0443
 5273TIP3    H137310   1.076   0.588  15.510  0.5908 -1.1387  1.6359
 5273TIP3    H237311   1.186   0.607  15.407 -1.4435 -0.2691 -0.4336
 5274TIP3   OH237312   4.804   4.629   1.340 -0.2071 -0.3902  0.1948
 5274TIP3    H137313   4.751   4.672   1.406  2.3576  1.5109  1.1330
 5274TIP3    H237314   4.835   4.549   1.381 -0.8585 -0.5909  0.2935
 5275TIP3   OH237315   3.088   2.346   1.892 -0.1770 -0.4289  0.1122
 5275TIP3    H137316   3.119   2.257   1.871  1.8517  0.0403  0.9513
 5275TIP3    H237317   3.019   2.332   1.957  0.8506 -1.3479  1.0287
 5276TIP3   OH237318   3.995   4.201   4.970  0.0112  0.1068  0.1268
 5276TIP3    H137319   4.006   4.109   4.994 -1.2494 -0.8751 -2.8059
 5276TIP3    H237320   4.085   4.235   4.963  0.4877 -0.9367  1.0838
 5277TIP3   OH237321   6.317   1.343   3.472 -0.0050 -0.1188 -0.2064
 5277TIP3    H137322   6.269   1.278   3.420 -1.0785  1.4482 -1.2378
 5277TIP3    H237323   6.249   1.395   3.514  0.8519 -0.4675  1.6681
 5278TIP3   OH237324   1.787   3.527   1.184  0.1166  0.1843  0.2200
 5278TIP3    H137325   1.870   3.565   1.154  0.3775 -1.0672 -0.6970
 5278TIP3    H237326   1.722   3.595   1.168  0.9514  1.1490  0.8700
 5279TIP3   OH237327   3.292   2.730   5.357 -1.0232 -0.0504 -0.1108
 5279TIP3    H137328   3.361   2.678   5.396 -2.1608  0.1947  2.3138
 5279TIP3    H237329   3.338   2.793   5.301  0.5363 -1.3813 -0.3693
 5280TIP3   OH237330   2.727   0.278  14.975  0.1749 -0.5167  0.0239
 5280TIP3    H137331   2.706   0.368  15.002 -0.2347 -0.8075  0.6795
 5280TIP3    H237332   2.734   0.283  14.879 -1.1927 -0.0526 -0.0637
 5281TIP3   OH237333   6.667   3.276  16.568  0.3796 -0.2350  0.1347
 5281TIP3    H137334   6.666   3.279  16.473  0.3937 -0.3464  0.1295
 5281TIP3    H237335   6.725   3.204  16.590  0.0807 -0.4494  0.2208
 5282TIP3   OH237336   3.461   4.863  11.843 -0.6007  0.0115 -1.1204
 5282TIP3    H137337   3.519   4.922  11.795  2.3789  0.2321  2.5332
 5282TIP3    H237338   3.387   4.918  11.868  0.1466  1.1367 -1.3331
 5283TIP3   OH237339   4.629   5.941   1.623 -0.3597 -0.2498 -0.7544
 5283TIP3    H137340   4.616   5.865   1.566 -0.6965  0.6693 -1.9294
 5283TIP3    H237341   4.723   5.955   1.625 -0.0731 -2.1676  1.4489
 5284TIP3   OH237342   5.171   3.648   0.409 -0.0220 -0.0133 -0.1183
 5284TIP3    H137343   5.082   3.678   0.427 -0.0261 -0.9953  1.5537
 5284TIP3    H237344   5.211   3.639   0.495  0.8865 -1.9893 -0.7261
 5285TIP3   OH237345   3.653   3.919   4.436 -0.3020  0.3631 -0.1664
 5285TIP3    H137346   3.673   3.909   4.529  1.9219  1.1938 -0.5259
 5285TIP3    H237347   3.738   3.917   4.393 -1.3218 -0.1942 -2.2208
 5286TIP3   OH237348   5.113   6.693   1.935  0.9873  0.7241 -0.2067
 5286TIP3    H137349   5.174   6.764   1.914 -0.0049  1.6187 -0.0683
 5286TIP3    H237350   5.038   6.707   1.878  1.5087 -1.2354 -1.4250
 5287TIP3   OH237351   5.779   0.156   2.261  0.2188 -0.4723 -0.2559
 5287TIP3    H137352   5.850   0.207   2.301 -0.4854 -0.0668  0.4945
 5287TIP3    H237353   5.818   0.070   2.246  0.7672 -0.3714  0.5053
 5288TIP3   OH237354   3.855   1.829  12.823  0.0722  0.2724 -0.6932
 5288TIP3    H137355   3.879   1.739  12.802 -0.6651  0.5025 -2.6579
 5288TIP3    H237356   3.813   1.862  12.743  0.4019  2.3807 -0.0329
 5289TIP3   OH237357   5.428   0.201   3.313 -0.2756 -0.3841  0.3097
 5289TIP3    H137358   5.410   0.149   3.391 -0.3263  0.9234  1.1998
 5289TIP3    H237359   5.342   0.210   3.270 -0.2487 -1.0891  0.1014
 5290TIP3   OH237360   0.453   6.114  10.425 -0.2320  0.1262 -0.8541
 5290TIP3    H137361   0.413   6.200  10.436  0.9166  0.7726 -1.7136
 5290TIP3    H237362   0.389   6.065  10.372 -0.2872  0.8769 -1.4855
 5291TIP3   OH237363   2.558   4.530   0.947 -0.0038  0.0210 -0.3439
 5291TIP3    H137364   2.560   4.467   0.875 -0.6491 -0.4618  0.0474
 5291TIP3    H237365   2.465   4.553   0.955 -0.2137 -1.4049  1.5909
 5292TIP3   OH237366   0.425   5.840  14.558 -0.6470  0.0811  0.0067
 5292TIP3    H137367   0.472   5.775  14.611 -0.8372 -0.7617 -0.8409
 5292TIP3    H237368   0.384   5.898  14.622  0.1312 -0.1959  0.7690
 5293TIP3   OH237369   4.357   5.845   0.848  0.2513  0.8457 -0.1348
 5293TIP3    H137370   4.387   5.806   0.766 -1.1717 -0.3452 -0.1057
 5293TIP3    H237371   4.286   5.787   0.878  1.6567  0.4564  2.6439
 5294TIP3   OH237372   5.734   1.092  16.435 -0.1130 -0.3226  0.1251
 5294TIP3    H137373   5.663   1.135  16.388 -0.1414  0.2558  0.6960
 5294TIP3    H237374   5.806   1.089  16.371  0.6904  2.6931  0.7953
 5295TIP3   OH237375   4.002   5.651  17.163 -0.5689 -0.3164 -0.1473
 5295TIP3    H137376   3.964   5.613  17.242  0.1437 -1.1708 -0.2023
 5295TIP3    H237377   3.951   5.730  17.147 -0.5501  0.0011  1.3145
 5296TIP3   OH237378   1.542   5.172  14.135 -0.1115  0.0804 -0.1276
 5296TIP3    H137379   1.559   5.261  14.106 -1.4704  0.8021  1.1647
 5296TIP3    H237380   1.450   5.157  14.112 -0.0634 -0.7522  0.2199
 5297TIP3   OH237381   4.444   5.764  13.903  0.2410  0.4640 -0.0272
 5297TIP3    H137382   4.513   5.764  13.970  0.4316 -1.3125 -0.2035
 5297TIP3    H237383   4.445   5.675  13.867  0.4429  1.5057 -2.7184
 5298TIP3   OH237384   3.209   4.215  14.032 -0.2200 -0.2397  0.4615
 5298TIP3    H137385   3.258   4.133  14.041  0.2778  0.0852  0.7671
 5298TIP3    H237386   3.272   4.277  13.996 -0.5065  0.0917  0.5241
 5299TIP3   OH237387   0.452   4.397   5.339  0.0925  0.2891  0.1525
 5299TIP3    H137388   0.455   4.337   5.413 -0.3046 -0.0847 -0.1341
 5299TIP3    H237389   0.387   4.359   5.280  1.1377  0.0207 -0.8553
 5300TIP3   OH237390   2.354   1.818   4.404 -0.4481 -0.2598 -0.2140
 5300TIP3    H137391   2.428   1.848   4.456 -1.9883  1.2523  1.1837
 5300TIP3    H237392   2.393   1.770   4.331  1.8005 -1.2800  1.6313
 5301TIP3   OH237393   2.079   3.132  15.292  0.0032  0.2009  0.5555
 5301TIP3    H137394   2.007   3.113  15.353 -0.4522 -0.2550 -0.1211
 5301TIP3    H237395   2.090   3.227  15.297  0.9145  0.0151  2.4059
 5302TIP3   OH237396   6.764   0.080  13.164  0.4659 -0.4612  0.4789
 5302TIP3    H137397   6.754   0.028  13.244  1.0561  0.2510  1.0234
 5302TIP3    H237398   6.782   0.015  13.096  0.3963 -1.0376  1.0058
 5303TIP3   OH237399   0.672   4.154  16.439  0.0177 -0.1045  0.5599
 5303TIP3    H137400   0.610   4.123  16.373 -0.7381 -0.4889  1.4461
 5303TIP3    H237401   0.628   4.140  16.523  1.0826  0.1107  1.1731
 5304TIP3   OH237402   6.141   3.883   3.938 -0.0056 -0.3100 -0.0069
 5304TIP3    H137403   6.221   3.855   3.892  1.2246  1.9313  0.7227
 5304TIP3    H237404   6.073   3.882   3.870  1.3445  0.8921 -1.4087
 5305TIP3   OH237405   2.231   0.716  16.057  0.4372 -0.0207  0.0205
 5305TIP3    H137406   2.299   0.680  16.113  1.0365 -0.9526 -1.2913
 5305TIP3    H237407   2.261   0.804  16.035  1.8341 -0.8919 -1.5867
 5306TIP3   OH237408   5.085   5.399   2.561 -0.6428  0.0031  0.2302
 5306TIP3    H137409   5.113   5.422   2.472 -1.0848 -1.2779 -0.2512
 5306TIP3    H237410   5.139   5.454   2.618  2.3725 -1.8913 -0.7015
 5307TIP3   OH237411   3.842   2.139   3.590  0.3022 -0.2267 -0.0611
 5307TIP3    H137412   3.762   2.094   3.617  0.3142  0.1120  0.5493
 5307TIP3    H237413   3.913   2.085   3.625  0.3271 -0.1376  0.0275
 5308TIP3   OH237414   2.119   3.136   4.951  0.0646 -0.1834 -0.3267
 5308TIP3    H137415   2.090   3.051   4.919  1.3969 -0.6668 -0.3045
 5308TIP3    H237416   2.178   3.168   4.883 -1.6136  1.4306 -1.0583
 5309TIP3   OH237417   5.671   3.931   3.080 -0.2217  0.6513  0.0530
 5309TIP3    H137418   5.754   3.979   3.070 -1.0194  2.0239 -0.1492
 5309TIP3    H237419   5.617   3.963   3.008 -0.9313 -0.2448  0.1842
 5310TIP3   OH237420   5.876   5.430  12.432 -0.3706  0.0315  0.3258
 5310TIP3    H137421   5.823   5.381  12.496 -0.6017 -0.4953 -0.2636
 5310TIP3    H237422   5.861   5.522  12.455 -0.6113 -0.1449  0.9062
 5311TIP3   OH237423   3.239   0.039  12.646  0.2776  0.0006  0.2609
 5311TIP3    H137424   3.269  -0.051  12.631  0.3998  0.1573 -0.4347
 5311TIP3    H237425   3.298   0.092  12.593  0.5875  0.5411  1.1388
 5312TIP3   OH237426   5.340   4.895   3.067  0.5413 -0.6393  0.4568
 5312TIP3    H137427   5.383   4.865   3.147  1.9384  0.8571  0.2806
 5312TIP3    H237428   5.382   4.978   3.047  1.1674 -1.6464 -2.6087
 5313TIP3   OH237429   3.850   0.949  13.268  0.1721 -0.2164 -0.4594
 5313TIP3    H137430   3.918   0.893  13.304  1.4857  1.9510  0.5627
 5313TIP3    H237431   3.812   0.992  13.345 -0.0603  1.0894 -1.2901
 5314TIP3   OH237432   4.837   3.611   1.988 -0.1806 -0.3530  0.3225
 5314TIP3    H137433   4.921   3.581   1.953  0.7151 -1.1097  3.0310
 5314TIP3    H237434   4.843   3.707   1.983  0.4505 -0.4194 -0.3656
 5315TIP3   OH237435   3.631   1.576   4.475 -0.6815  0.0837 -0.2212
 5315TIP3    H137436   3.609   1.643   4.410  1.0380 -0.2976 -1.2222
 5315TIP3    H237437   3.684   1.622   4.540  2.8880 -0.7803 -2.3325
 5316TIP3   OH237438   2.753   0.705   0.267  0.6257  0.1358 -0.2516
 5316TIP3    H137439   2.841   0.671   0.251  0.5889 -0.4495  0.7123
 5316TIP3    H237440   2.696   0.629   0.256  0.5015 -0.0653  1.5154
 5317TIP3   OH237441   5.068   3.888   1.185 -0.0968 -0.6911 -0.1042
 5317TIP3    H137442   5.096   3.956   1.125 -0.4982  0.1586  0.6604
 5317TIP3    H237443   5.015   3.829   1.131 -0.1727 -0.1220 -0.6580
 5318TIP3   OH237444   4.683   6.581   1.307 -0.3745 -0.0556  0.4147
 5318TIP3    H137445   4.653   6.668   1.281  0.5705  0.2661  0.3989
 5318TIP3    H237446   4.610   6.546   1.358 -0.1141  1.3944  1.8333
 5319TIP3   OH237447   5.595   4.056  14.532  0.3215  0.1481  0.3809
 5319TIP3    H137448   5.570   3.994  14.601  0.7914  0.9458  1.2853
 5319TIP3    H237449   5.512   4.080  14.491 -0.0057 -0.0972  0.8851
 5320TIP3   OH237450   0.049   1.767   5.721  0.1032 -0.5619 -0.0424
 5320TIP3    H137451  -0.006   1.709   5.774 -1.5956  1.5530  0.5680
 5320TIP3    H237452   0.111   1.804   5.784 -0.8637  0.6969  0.1857
 5321TIP3   OH237453   5.935   0.060   5.024  0.3444 -0.3023  0.1949
 5321TIP3    H137454   6.026   0.059   4.995  0.0301  0.6173 -0.8277
 5321TIP3    H237455   5.915  -0.032   5.041  1.0604 -0.6509 -0.8151
 5322TIP3   OH237456   3.336   5.499   4.627  0.3842 -0.1603  0.0119
 5322TIP3    H137457   3.381   5.521   4.546  0.7475 -2.1325 -0.3684
 5322TIP3    H237458   3.244   5.518   4.610  0.7376  1.5753 -0.0548
 5323TIP3   OH237459   3.657   4.647  16.842 -0.1236  0.0853  0.1904
 5323TIP3    H137460   3.582   4.661  16.784 -0.1895 -1.1497 -0.0256
 5323TIP3    H237461   3.681   4.736  16.870 -1.7511  0.4956  0.3842
 5324TIP3   OH237462   1.992   4.762  11.332  0.1792 -0.0132 -0.3149
 5324TIP3    H137463   2.057   4.753  11.262 -0.7124  0.2617 -1.2026
 5324TIP3    H237464   1.928   4.693  11.313 -0.7319  0.8720 -0.5220
 5325TIP3   OH237465   5.721   2.204   4.006  0.1078 -0.1367  0.3865
 5325TIP3    H137466   5.639   2.224   4.052 -1.0973 -3.8897  0.0335
 5325TIP3    H237467   5.696   2.199   3.914  1.1756  0.7641  0.0385
 5326TIP3   OH237468   4.270   1.339   1.651  0.0323  0.1159 -0.9479
 5326TIP3    H137469   4.189   1.305   1.690  0.6233 -0.8534 -0.5461
 5326TIP3    H237470   4.250   1.431   1.630 -1.2112 -0.1603 -0.9888
 5327TIP3   OH237471   0.624   2.026  12.408 -0.1805  0.0196 -0.5796
 5327TIP3    H137472   0.612   2.110  12.454 -1.6200  0.2906 -1.4095
 5327TIP3    H237473   0.655   1.966  12.476  0.5612  1.1492  0.0967
 5328TIP3   OH237474   0.533   0.122   1.513 -0.4318 -0.1966 -0.0725
 5328TIP3    H137475   0.592   0.070   1.459  0.8981  0.4559  0.7012
 5328TIP3    H237476   0.551   0.213   1.488  0.4632  0.1359  1.6919
 5329TIP3   OH237477   3.955   5.407   2.441 -0.1811 -0.4132  0.1941
 5329TIP3    H137478   3.945   5.426   2.348  0.1713  1.2348  0.4738
 5329TIP3    H237479   4.045   5.431   2.461 -0.2718 -0.7017  0.9868
 5330TIP3   OH237480   1.107   0.371  16.792 -0.0647  0.1798  0.4615
 5330TIP3    H137481   1.173   0.415  16.847 -1.2832 -0.0561  2.1586
 5330TIP3    H237482   1.025   0.416  16.813 -0.8432 -1.0417  0.0837
 5331TIP3   OH237483   3.812   2.057   1.325  0.0868  0.6326  0.1168
 5331TIP3    H137484   3.739   2.062   1.387  0.2248 -1.3919  0.4541
 5331TIP3    H237485   3.800   1.973   1.281  0.7926  1.4274 -1.6111
 5332TIP3   OH237486   3.409   5.224  13.196  0.3243 -0.0491  0.3325
 5332TIP3    H137487   3.411   5.156  13.263 -1.7511  0.6075  1.0992
 5332TIP3    H237488   3.465   5.294  13.232  2.2433 -1.2003 -0.3431
 5333TIP3   OH237489   0.220   2.248  12.886  0.1330  0.2481 -0.4980
 5333TIP3    H137490   0.136   2.234  12.931 -0.5874 -0.1015 -1.9183
 5333TIP3    H237491   0.284   2.258  12.957 -1.5739  3.4752  0.6826
 5334TIP3   OH237492   4.661   1.483  13.026  0.5348 -0.2879  0.7085
 5334TIP3    H137493   4.572   1.495  13.059  0.2405  2.2170 -0.8734
 5334TIP3    H237494   4.662   1.394  12.992 -1.1117 -0.6122  1.4743
 5335TIP3   OH237495   5.276   4.070   0.691 -0.7640  0.5608 -0.3007
 5335TIP3    H137496   5.315   4.063   0.604 -1.8177  0.9421 -0.8156
 5335TIP3    H237497   5.183   4.052   0.677 -0.9601  0.7710  0.7205
 5336TIP3   OH237498   6.269   3.286  15.190  0.0248  0.2291 -0.4134
 5336TIP3    H137499   6.192   3.296  15.246  1.1423 -0.8619  1.3871
 5336TIP3    H237500   6.270   3.192  15.169 -0.6742  0.7218 -2.7243
 5337TIP3   OH237501   3.555   1.947  12.734  0.2089  0.2826  0.2827
 5337TIP3    H137502   3.575   1.854  12.745 -2.2772 -0.3635 -0.3487
 5337TIP3    H237503   3.555   1.982  12.823 -1.8518 -0.9992  0.8183
 5338TIP3   OH237504   0.989   2.656  13.308  0.5826 -0.2284 -0.4248
 5338TIP3    H137505   1.059   2.614  13.258  0.3649 -0.0124 -0.9188
 5338TIP3    H237506   1.032   2.688  13.387  1.6572  2.4099 -2.0153
 5339TIP3   OH237507   2.641   4.758   0.749  0.3280  0.0638 -0.8596
 5339TIP3    H137508   2.658   4.850   0.768 -1.5113  0.2526 -0.0172
 5339TIP3    H237509   2.590   4.728   0.824 -1.5967 -0.8741 -2.5262
 5340TIP3   OH237510   4.498   5.850   1.061  0.0240  0.2756 -0.6870
 5340TIP3    H137511   4.452   5.833   0.979  2.1158  1.1868 -2.0769
 5340TIP3    H237512   4.581   5.890   1.035  0.9344  0.1373  1.8477
 5341TIP3   OH237513   1.172   4.335  13.278  0.0576 -0.1036  0.0737
 5341TIP3    H137514   1.192   4.245  13.304  0.0462  0.4488  2.0764
 5341TIP3    H237515   1.240   4.357  13.215  0.6655 -1.1687  0.3410
 5342TIP3   OH237516   5.628   6.277   5.014  0.2623 -0.3173 -0.2163
 5342TIP3    H137517   5.641   6.254   4.922 -0.9174 -2.5972  0.1621
 5342TIP3    H237518   5.545   6.237   5.038  0.1373  0.9847  1.6156
 5343TIP3   OH237519   0.844   2.033   5.020 -0.0126 -0.0666 -0.1175
 5343TIP3    H137520   0.939   2.030   5.012 -0.1375 -0.1469 -1.5675
 5343TIP3    H237521   0.814   1.945   4.999 -0.4346  0.0065  0.1554
 5344TIP3   OH237522   0.383   2.636  14.004 -0.3801 -0.4074  0.7964
 5344TIP3    H137523   0.440   2.691  13.949 -3.2193  0.2450 -1.6210
 5344TIP3    H237524   0.310   2.693  14.027 -1.7624 -2.2210  0.9945
 5345TIP3   OH237525   6.436   6.616   3.527 -0.0132  0.4259 -0.2791
 5345TIP3    H137526   6.522   6.579   3.507 -0.6149 -1.3557  0.3942
 5345TIP3    H237527   6.379   6.583   3.458 -1.2037 -2.4262  1.9814
 5346TIP3   OH237528   4.760   6.458   3.640 -0.3894  0.3320  0.1654
 5346TIP3    H137529   4.829   6.516   3.608 -1.0204  1.5252  0.9731
 5346TIP3    H237530   4.766   6.381   3.582  0.4488  1.1784 -0.9056
 5347TIP3   OH237531   3.374   1.104   0.917  0.3831  0.3000 -0.0366
 5347TIP3    H137532   3.430   1.163   0.867  0.2502 -0.7393 -1.4611
 5347TIP3    H237533   3.395   1.121   1.008  0.7116  2.1772 -0.4488
 5348TIP3   OH237534   2.021   2.609  11.295 -0.2039  0.1747  0.4368
 5348TIP3    H137535   2.091   2.669  11.321  1.0072 -0.9637 -0.1543
 5348TIP3    H237536   2.056   2.562  11.220 -1.5029 -0.6079  0.3089
 5349TIP3   OH237537   6.314   6.584  11.921 -0.0724 -0.2558 -0.2439
 5349TIP3    H137538   6.375   6.603  11.850 -1.4112  0.8293 -1.1292
 5349TIP3    H237539   6.255   6.660  11.923  0.5014  0.1753  2.6232
 5350TIP3   OH237540   5.166   5.205  10.829  0.0928 -0.3329 -0.0673
 5350TIP3    H137541   5.236   5.165  10.880  1.2527 -0.2161 -1.5260
 5350TIP3    H237542   5.204   5.217  10.742 -1.2197  1.1827 -0.4566
 5351TIP3   OH237543   0.874   2.294  16.652  0.0914  0.2167 -0.3143
 5351TIP3    H137544   0.960   2.321  16.685 -0.6608  0.0039  1.9080
 5351TIP3    H237545   0.822   2.374  16.650  0.9790  0.7821 -3.8920
 5352TIP3   OH237546   5.795   3.202  15.971  0.6970  0.0174  0.0380
 5352TIP3    H137547   5.792   3.180  16.064 -1.3608  0.4414  0.1032
 5352TIP3    H237548   5.707   3.183  15.939  0.9206  1.3770 -1.4679
 5353TIP3   OH237549   5.283   5.402  15.970 -0.3573  0.1959  0.5079
 5353TIP3    H137550   5.215   5.451  15.923 -1.3300 -1.9331 -0.3901
 5353TIP3    H237551   5.237   5.362  16.044 -0.0714 -1.0756  0.0190
 5354TIP3   OH237552   3.821   3.143  14.094  0.1064 -0.4282 -0.4596
 5354TIP3    H137553   3.883   3.116  14.026  0.0504  0.8551 -1.0430
 5354TIP3    H237554   3.743   3.091  14.077  0.9120 -1.8632  0.1178
 5355TIP3   OH237555   1.459   2.588   4.543  0.2991 -0.1862  0.3027
 5355TIP3    H137556   1.407   2.647   4.488 -1.8736 -1.5882  0.7761
 5355TIP3    H237557   1.536   2.567   4.490 -0.6262  0.3144 -1.2663
 5356TIP3   OH237558   3.624   1.808   2.484  0.0180  0.4695 -0.5068
 5356TIP3    H137559   3.612   1.889   2.532 -0.9242  0.7231 -1.1431
 5356TIP3    H237560   3.622   1.739   2.551  1.6773  1.0306  0.1191
 5357TIP3   OH237561   2.390   3.692   3.155 -0.0470  0.0702 -0.3037
 5357TIP3    H137562   2.299   3.718   3.140 -0.1571  0.5410  1.1515
 5357TIP3    H237563   2.384   3.620   3.218  0.5772 -0.0138 -0.3392
 5358TIP3   OH237564   0.215   1.479   3.755  0.8573 -0.1289 -0.4837
 5358TIP3    H137565   0.191   1.488   3.662  0.5998  0.1688 -0.3887
 5358TIP3    H237566   0.141   1.433   3.794 -0.1382  1.8934  0.0646
 5359TIP3   OH237567   3.067   1.508   5.912  0.1116  0.1582 -0.1301
 5359TIP3    H137568   2.993   1.447   5.920 -0.0822  0.5110  0.7846
 5359TIP3    H237569   3.118   1.494   5.991  0.4722  0.6583 -0.2762
 5360TIP3   OH237570   4.711   5.013  13.300 -0.2563 -0.1952 -0.0059
 5360TIP3    H137571   4.649   4.959  13.349  0.4353  1.1485  2.4771
 5360TIP3    H237572   4.757   5.063  13.368  0.3826  2.1391 -2.0895
 5361TIP3   OH237573   1.266   4.719   5.723  0.1395  0.1899 -0.0791
 5361TIP3    H137574   1.172   4.726   5.706  0.3488  1.6088 -0.7716
 5361TIP3    H237575   1.272   4.677   5.809 -1.0481 -2.4640 -1.2394
 5362TIP3   OH237576   0.171   5.076  12.050 -0.1656  0.1306 -0.1190
 5362TIP3    H137577   0.257   5.076  12.008 -1.4594 -0.5896 -2.8406
 5362TIP3    H237578   0.128   5.155  12.018 -1.2350 -0.5245 -0.3088
 5363TIP3   OH237579   1.679   2.657   0.201  0.1558 -0.2130 -0.0408
 5363TIP3    H137580   1.736   2.734   0.192  2.4156 -1.5993  1.8687
 5363TIP3    H237581   1.608   2.687   0.257  0.8959  0.5730  0.4973
 5364TIP3   OH237582   3.578   0.109  13.501  0.1586  0.0819 -0.0431
 5364TIP3    H137583   3.566   0.187  13.447 -0.3688  0.0161 -0.0244
 5364TIP3    H237584   3.643   0.056  13.454 -0.5621 -0.1413 -0.7973
 5365TIP3   OH237585   4.639   1.075   1.953  0.3580 -0.2207 -0.6236
 5365TIP3    H137586   4.682   1.004   2.001  2.4017  0.0651 -1.9889
 5365TIP3    H237587   4.615   1.036   1.869 -0.2737  0.1709 -0.6238
 5366TIP3   OH237588   4.657   2.420   6.471 -0.2642  0.0124 -0.2823
 5366TIP3    H137589   4.582   2.400   6.526 -0.4807 -1.7830 -1.2128
 5366TIP3    H237590   4.698   2.495   6.514 -2.4974  0.9418  0.3110
 5367TIP3   OH237591   5.773   2.502   5.160 -0.8681  0.1410  0.9661
 5367TIP3    H137592   5.734   2.414   5.166 -0.1204 -0.2386  0.3456
 5367TIP3    H237593   5.730   2.552   5.229 -1.6037 -0.6013  1.0592
 5368TIP3   OH237594   2.781   5.701  12.154  0.0599  0.1005 -0.0902
 5368TIP3    H137595   2.802   5.789  12.123 -1.9510  0.4635 -0.5209
 5368TIP3    H237596   2.854   5.677  12.212  1.3731  1.4182 -1.1862
 5369TIP3   OH237597   4.107   3.407   0.137 -0.0062 -0.1213 -0.3001
 5369TIP3    H137598   4.043   3.339   0.118 -0.8904  0.5902  0.0935
 5369TIP3    H237599   4.060   3.470   0.192  0.9919  0.4687 -0.1052
 5370TIP3   OH237600   4.006   4.061   3.192 -0.2300 -0.0945 -0.1087
 5370TIP3    H137601   4.034   4.012   3.115  2.0186  0.6711  0.1998
 5370TIP3    H237602   3.912   4.075   3.179 -0.0785 -0.9061 -2.1797
 5371TIP3   OH237603   1.791   2.624  10.957 -0.0272  0.0398 -0.3704
 5371TIP3    H137604   1.859   2.689  10.974 -0.2186 -0.2091  1.4165
 5371TIP3    H237605   1.838   2.543  10.939  0.1639 -0.1766  1.0544
 5372TIP3   OH237606   0.590   1.653  12.950 -0.2205  0.0350 -0.4518
 5372TIP3    H137607   0.503   1.681  12.978 -0.4953 -0.5305 -0.7318
 5372TIP3    H237608   0.604   1.699  12.867 -1.1380 -1.5161 -1.4741
 5373TIP3   OH237609   5.034   3.892  14.387 -0.8095 -0.4287 -0.0836
 5373TIP3    H137610   4.981   3.884  14.466  0.9560  0.8003  1.2600
 5373TIP3    H237611   5.104   3.828  14.398  0.3051  0.8052  0.0674
 5374TIP3   OH237612   6.353   6.743   5.564  0.2712 -0.4122 -0.2545
 5374TIP3    H137613   6.356   6.656   5.524 -1.0837 -1.1553  1.1833
 5374TIP3    H237614   6.287   6.790   5.513  1.9420  0.2234 -1.8621
 5375TIP3   OH237615   6.507   2.066   2.894 -0.1758 -0.4111 -0.1399
 5375TIP3    H137616   6.565   2.042   2.966 -0.6059  0.5363  0.5182
 5375TIP3    H237617   6.560   2.122   2.837  0.1068 -1.0116 -0.4769
 5376TIP3   OH237618   4.823   0.239   1.427 -0.1304  0.2434  0.0594
 5376TIP3    H137619   4.918   0.254   1.432 -0.1228 -0.2263  1.4905
 5376TIP3    H237620   4.784   0.325   1.441  0.0676  0.3824 -0.2169
 5377TIP3   OH237621   3.890   5.271   3.137 -0.0402  0.6795  0.3477
 5377TIP3    H137622   3.865   5.252   3.228 -2.2071  0.5886 -0.2461
 5377TIP3    H237623   3.890   5.366   3.132  1.0350  0.7110  0.6714
 5378TIP3   OH237624   3.791   2.190   2.321  0.0489 -0.5754 -0.4389
 5378TIP3    H137625   3.836   2.271   2.295 -1.2332 -0.1493 -1.3678
 5378TIP3    H237626   3.819   2.126   2.255  0.0005 -0.5444 -0.4893
 5379TIP3   OH237627   0.982   4.988   4.570 -0.6691  0.0177  0.2297
 5379TIP3    H137628   0.975   5.053   4.500  0.3062  1.4202  1.4086
 5379TIP3    H237629   0.928   5.024   4.640 -0.6381 -0.7747  0.6577
 5380TIP3   OH237630   6.716   4.604   4.316 -0.0280  0.1475 -0.1400
 5380TIP3    H137631   6.633   4.648   4.296  0.1309  0.2952 -0.4785
 5380TIP3    H237632   6.750   4.650   4.392  0.8278  1.5412 -1.3330
 5381TIP3   OH237633   4.820   3.807  13.467 -0.0698 -0.2200 -0.0981
 5381TIP3    H137634   4.882   3.880  13.470 -0.3257  0.1179 -2.1983
 5381TIP3    H237635   4.838   3.765  13.383 -2.1832 -0.5656 -0.3815
 5382TIP3   OH237636   2.848   6.018  15.268  0.0572  0.1350 -0.1888
 5382TIP3    H137637   2.808   6.091  15.221  2.1821  1.1101 -0.5569
 5382TIP3    H237638   2.886   6.057  15.346  0.4538 -0.7100  0.0515
 5383TIP3   OH237639   3.243   1.755   1.394 -0.1959 -0.2757 -0.4945
 5383TIP3    H137640   3.179   1.687   1.417  1.9967 -1.0124  4.0378
 5383TIP3    H237641   3.207   1.835   1.431  0.3228 -0.2148 -0.1230
 5384TIP3   OH237642   0.815   0.664   2.864  0.1830 -0.2850 -0.3467
 5384TIP3    H137643   0.799   0.634   2.774 -1.0175  1.1443 -0.6291
 5384TIP3    H237644   0.771   0.599   2.919 -2.0451  0.6638 -0.9435
 5385TIP3   OH237645   5.031   3.347  13.654 -0.0686  0.0559  0.1217
 5385TIP3    H137646   5.018   3.433  13.612 -0.5547  0.3783  0.9147
 5385TIP3    H237647   5.014   3.364  13.747  1.9937 -0.4241  0.6053
 5386TIP3   OH237648   1.053   2.556   4.025 -0.1093  0.8308  0.3343
 5386TIP3    H137649   1.074   2.641   4.063 -0.9720  0.1151  2.5019
 5386TIP3    H237650   1.068   2.493   4.096  0.7265 -0.8567 -1.2972
 5387TIP3   OH237651   5.715   4.611   4.057 -0.5206  0.1397  0.4707
 5387TIP3    H137652   5.789   4.662   4.023  0.1374 -0.9823  0.2091
 5387TIP3    H237653   5.714   4.630   4.151  2.3558 -2.5955  1.1430
 5388TIP3   OH237654   3.690   5.284   0.311 -0.3252  0.8724  0.5615
 5388TIP3    H137655   3.759   5.223   0.337  0.9215  1.4781 -1.2074
 5388TIP3    H237656   3.610   5.249   0.351  0.5232 -1.3972  0.3522
 5389TIP3   OH237657   0.362   2.573   4.919  0.7966 -0.1191 -0.4411
 5389TIP3    H137658   0.442   2.593   4.968  0.5128 -1.6045  0.6630
 5389TIP3    H237659   0.390   2.510   4.853  0.4599 -0.9974  0.2462
 5390TIP3   OH237660   5.784   2.522  14.637 -0.2235 -0.7567  0.1290
 5390TIP3    H137661   5.785   2.617  14.654  1.3552 -0.2048 -2.8247
 5390TIP3    H237662   5.874   2.494  14.652 -0.6032 -1.7236  0.5994
 5391TIP3   OH237663   5.961   6.184  13.048 -0.3272  0.7039 -0.6558
 5391TIP3    H137664   5.999   6.177  13.135 -0.8024 -1.9434 -0.6102
 5391TIP3    H237665   6.029   6.225  12.995  0.7692  0.3738  0.4830
 5392TIP3   OH237666   0.689   0.281   3.841 -0.6507 -0.2641 -0.3086
 5392TIP3    H137667   0.764   0.327   3.802 -0.5712 -1.3979 -1.5363
 5392TIP3    H237668   0.697   0.299   3.935 -0.0167  1.3315 -0.6369
 5393TIP3   OH237669   3.179   0.854   3.529  0.4786 -0.1186 -0.6647
 5393TIP3    H137670   3.107   0.889   3.581 -0.8483 -1.1087 -1.8236
 5393TIP3    H237671   3.149   0.858   3.439  1.8136 -0.6944 -1.1527
 5394TIP3   OH237672   5.779   4.382  16.068  0.3880 -1.0442 -0.0170
 5394TIP3    H137673   5.756   4.433  15.990 -0.9815 -0.5537  0.6861
 5394TIP3    H237674   5.846   4.435  16.112  1.1074 -1.2861 -0.8130
 5395TIP3   OH237675   0.694   3.385  12.163 -0.0878  0.2958  0.2475
 5395TIP3    H137676   0.782   3.379  12.126  0.4595  0.1365  1.5480
 5395TIP3    H237677   0.708   3.386  12.258 -1.6341 -2.3329  0.5541
 5396TIP3   OH237678   0.683   2.460   2.735 -0.0348  0.3843  0.3764
 5396TIP3    H137679   0.614   2.405   2.773 -0.0592 -0.2332 -0.5286
 5396TIP3    H237680   0.764   2.423   2.769  0.0126 -0.9219 -1.0542
 5397TIP3   OH237681   1.636   0.701  15.044  0.0663  0.9389 -0.1068
 5397TIP3    H137682   1.572   0.768  15.019 -1.5892 -0.6794 -0.3315
 5397TIP3    H237683   1.697   0.698  14.971 -0.6084  1.2991 -0.6978
 5398TIP3   OH237684   5.778   5.483   0.421  0.3163 -0.0554 -0.2581
 5398TIP3    H137685   5.823   5.399   0.410  1.0133  0.3989 -0.9428
 5398TIP3    H237686   5.780   5.500   0.515  2.6641  0.5363 -0.3956
 5399TIP3   OH237687   2.000   1.759  11.844  0.7203  0.7117  0.0915
 5399TIP3    H137688   2.037   1.821  11.781  2.6456 -0.9418 -0.4513
 5399TIP3    H237689   2.076   1.715  11.882 -0.5380 -0.1311  1.7109
 5400TIP3   OH237690   1.929   6.048   3.569  0.5819 -0.3418 -0.0262
 5400TIP3    H137691   1.850   5.995   3.579  1.1739 -1.4098 -0.8997
 5400TIP3    H237692   1.945   6.085   3.656 -2.1582  1.7588 -0.3516
 5401TIP3   OH237693   2.008   0.101  15.931  0.3885 -0.2153  0.1003
 5401TIP3    H137694   1.991   0.192  15.905  0.8399 -0.2599 -0.3660
 5401TIP3    H237695   1.925   0.071  15.969  0.7288  0.8929  1.7411
 5402TIP3   OH237696   5.336   0.039  12.481 -0.0607 -0.1207 -0.0537
 5402TIP3    H137697   5.269  -0.021  12.447 -0.9474  0.7004  0.2230
 5402TIP3    H237698   5.401   0.045  12.411 -0.5881 -0.4432 -0.5748
 5403TIP3   OH237699   3.497   5.569   4.410 -0.1323  0.5649  0.4373
 5403TIP3    H137700   3.547   5.590   4.488  0.7204  0.3311 -0.0467
 5403TIP3    H237701   3.557   5.519   4.355 -0.7521  0.6481 -0.3308
 5404TIP3   OH237702   1.878   6.017  14.320 -0.6287  0.0504 -0.0715
 5404TIP3    H137703   1.906   6.073  14.248 -0.8445  1.3321  0.8344
 5404TIP3    H237704   1.783   6.030  14.325 -0.6803 -0.3885  0.1427
 5405TIP3   OH237705   0.465   4.897   0.420  0.0201 -0.2042 -0.6269
 5405TIP3    H137706   0.482   4.810   0.384  1.6280 -0.2956  0.3265
 5405TIP3    H237707   0.494   4.957   0.351 -0.2147 -0.4066 -0.9051
 5406TIP3   OH237708   2.451   4.763  13.514  0.1395  0.2161 -0.4084
 5406TIP3    H137709   2.431   4.793  13.426  0.2465  1.5688  0.0146
 5406TIP3    H237710   2.460   4.844  13.566  1.6539 -0.4983  0.4908
 5407TIP3   OH237711   6.092   5.172  17.221  0.0482  0.0912 -0.2280
 5407TIP3    H137712   6.014   5.141  17.267 -0.1369  2.3011  0.9941
 5407TIP3    H237713   6.143   5.217  17.288  0.4149  2.1969 -1.8721
 5408TIP3   OH237714   1.860   4.622   2.406  0.6112 -0.5683  0.4019
 5408TIP3    H137715   1.888   4.542   2.362  5.0610  0.8443  0.4828
 5408TIP3    H237716   1.891   4.612   2.496  2.1999  1.6710  0.1363
 5409TIP3   OH237717   1.934   5.176   2.161  0.1748  0.6185  1.0354
 5409TIP3    H137718   1.884   5.257   2.147  0.9672  0.8964 -0.3042
 5409TIP3    H237719   1.973   5.187   2.248  0.3168  1.7159  0.8465
 5410TIP3   OH237720   2.698   4.618   5.642  0.3520  0.0224 -0.3544
 5410TIP3    H137721   2.637   4.649   5.709 -0.0221 -0.7678 -0.3267
 5410TIP3    H237722   2.714   4.695   5.587 -0.1879  0.3895 -0.0031
 5411TIP3   OH237723   2.081   1.758   4.431  0.4923 -0.1942 -0.3132
 5411TIP3    H137724   2.165   1.786   4.397  0.7409  1.9227  1.8566
 5411TIP3    H237725   2.098   1.738   4.523 -1.4972  1.1579  0.4061
 5412TIP3   OH237726   3.723   0.476  10.931 -0.1263 -0.0063  0.2602
 5412TIP3    H137727   3.803   0.500  10.884  0.5819 -1.4073  0.7549
 5412TIP3    H237728   3.696   0.557  10.974 -0.8157  1.3447 -2.5723
 5413TIP3   OH237729   4.071   2.295   4.436 -0.1686 -0.3969  0.1842
 5413TIP3    H137730   3.983   2.258   4.443 -0.8266  1.1048 -0.0258
 5413TIP3    H237731   4.085   2.338   4.521 -0.6164  1.4373 -0.6424
 5414TIP3   OH237732   2.835   0.831  12.476 -0.1687  0.1488 -0.2598
 5414TIP3    H137733   2.781   0.895  12.431 -0.8031  0.1553  0.5111
 5414TIP3    H237734   2.919   0.875  12.489 -0.5333  0.7432  0.0743
 5415TIP3   OH237735   0.454   0.628   5.460  0.1566 -0.5710  0.5401
 5415TIP3    H137736   0.435   0.659   5.371  2.7166 -0.4256  0.0165
 5415TIP3    H237737   0.547   0.606   5.458 -0.1301 -2.0803  2.7558
 5416TIP3   OH237738   4.750   1.495   3.094 -0.6995  0.1837  0.4172
 5416TIP3    H137739   4.783   1.557   3.029  0.5960 -0.5419  0.3468
 5416TIP3    H237740   4.696   1.547   3.153 -1.7595  0.8776 -1.1468
 5417TIP3   OH237741   2.891   0.702   3.628 -0.1054 -0.1781  0.7630
 5417TIP3    H137742   2.857   0.678   3.714  1.7846 -0.3702  1.4733
 5417TIP3    H237743   2.878   0.624   3.574  0.8198 -0.8493  1.5034
 5418TIP3   OH237744   1.883   1.510   5.694  0.9697 -0.3070 -0.1418
 5418TIP3    H137745   1.891   1.420   5.665 -0.1045 -0.2754 -0.5909
 5418TIP3    H237746   1.812   1.546   5.640  1.0255  0.6421  0.3983
 5419TIP3   OH237747   3.709   4.840  16.581  0.1485  0.3678  0.4151
 5419TIP3    H137748   3.695   4.920  16.531  2.8183  0.5077 -0.1900
 5419TIP3    H237749   3.701   4.867  16.673 -0.3319  1.0212  0.1828
 5420TIP3   OH237750   3.470   6.008   1.768  0.3999 -0.7376  0.2114
 5420TIP3    H137751   3.423   6.014   1.851  0.4139 -0.2440  0.1844
 5420TIP3    H237752   3.563   6.010   1.793  0.4074  0.3076  0.1260
 5421TIP3   OH237753   4.329   6.332  15.523  0.3501  0.1076 -0.6450
 5421TIP3    H137754   4.248   6.282  15.528  1.2753 -1.6431 -2.2993
 5421TIP3    H237755   4.301   6.422  15.507 -1.2903 -0.2739  0.0299
 5422TIP3   OH237756   5.364   0.952   3.810  0.3579  0.5579 -0.3433
 5422TIP3    H137757   5.455   0.944   3.839  0.3382 -0.0887 -0.4451
 5422TIP3    H237758   5.337   1.040   3.837  0.3746  0.0175  1.4550
 5423TIP3   OH237759   4.481   1.420   2.175  0.3785 -0.0273  0.1716
 5423TIP3    H137760   4.514   1.506   2.204  2.2610 -0.7812  0.3269
 5423TIP3    H237761   4.539   1.395   2.104 -1.7966 -0.0015 -1.6595
 5424TIP3   OH237762   5.206   5.832  16.406 -0.4329 -0.0223 -0.0471
 5424TIP3    H137763   5.134   5.776  16.375 -1.1129  0.7157  0.2009
 5424TIP3    H237764   5.284   5.794  16.365 -0.6470 -2.2442  1.5028
 5425TIP3   OH237765   2.252   2.249   2.497 -0.0332 -0.7511  0.0897
 5425TIP3    H137766   2.341   2.233   2.466  0.0747 -1.3980  0.7299
 5425TIP3    H237767   2.225   2.328   2.451  0.8147 -0.6401 -0.2300
 5426TIP3   OH237768   5.577   6.621  13.130 -0.3460  0.1168 -0.2387
 5426TIP3    H137769   5.495   6.609  13.084 -1.1987  1.4298  0.9095
 5426TIP3    H237770   5.608   6.532  13.147 -1.6180 -0.3873 -0.5194
 5427TIP3   OH237771   3.630   3.523   5.254 -0.3001 -0.2318 -0.4856
 5427TIP3    H137772   3.706   3.489   5.301 -0.0634  0.4686 -0.3503
 5427TIP3    H237773   3.556   3.504   5.311 -0.3239 -1.5321 -0.9271
 5428TIP3   OH237774   4.302   1.200   0.888 -0.0891  0.1804 -0.1610
 5428TIP3    H137775   4.365   1.222   0.957  0.7139 -0.6030 -0.6301
 5428TIP3    H237776   4.263   1.284   0.864 -0.0351  0.5298  0.9108
 5429TIP3   OH237777   0.899   3.580   0.246  0.8503 -0.0000  0.8815
 5429TIP3    H137778   0.989   3.548   0.256  0.3184 -1.6364  0.4864
 5429TIP3    H237779   0.844   3.502   0.255 -0.4061  0.5958 -1.2417
 5430TIP3   OH237780   6.076   5.054   1.136 -0.2677  0.1181  0.5370
 5430TIP3    H137781   6.015   5.023   1.069 -0.9286  1.7019  0.3768
 5430TIP3    H237782   6.153   4.997   1.127 -0.7577 -0.3435 -0.8903
 5431TIP3   OH237783   3.579   6.694   0.138  0.0074 -0.2693 -0.0326
 5431TIP3    H137784   3.661   6.707   0.185  0.3704  0.3751 -0.8460
 5431TIP3    H237785   3.595   6.618   0.081 -0.3374 -0.8603  0.6370
 5432TIP3   OH237786   6.197   3.725   4.366 -0.0023  0.2016 -0.5535
 5432TIP3    H137787   6.175   3.739   4.274 -0.1815  0.4381 -0.4733
 5432TIP3    H237788   6.227   3.811   4.397 -0.4120  0.2356 -0.2565
 5433TIP3   OH237789   4.194   3.812   4.079 -0.3710  0.2844 -0.1825
 5433TIP3    H137790   4.245   3.890   4.102  2.0340 -2.0648  2.9876
 5433TIP3    H237791   4.232   3.783   3.996 -0.9269  2.1692 -1.1105
 5434TIP3   OH237792   1.905   0.675  12.646 -0.5629 -0.2170  0.0896
 5434TIP3    H137793   1.888   0.640  12.733 -0.6667 -0.5300 -0.0545
 5434TIP3    H237794   1.825   0.657  12.597 -1.1424  1.4437  0.3888
 5435TIP3   OH237795   5.417   6.352  12.817 -0.2970  0.2459  0.5551
 5435TIP3    H137796   5.364   6.361  12.896 -0.0619 -1.7485  0.9604
 5435TIP3    H237797   5.367   6.398  12.749 -2.2561 -1.0818  1.0677
 5436TIP3   OH237798   5.169   5.454   6.443  0.1750  0.4552 -0.4392
 5436TIP3    H137799   5.116   5.534   6.436 -0.3301  0.0466 -1.4468
 5436TIP3    H237800   5.114   5.394   6.494 -0.4264 -0.0173 -1.6022
 5437TIP3   OH237801   4.417   1.705   1.275  0.2302  0.3519  0.0269
 5437TIP3    H137802   4.489   1.753   1.233 -0.6237  0.7370 -1.0108
 5437TIP3    H237803   4.376   1.769   1.332  1.2980 -0.1310  1.3577
 5438TIP3   OH237804   6.759   5.296  11.136  0.1618  0.3245  0.2664
 5438TIP3    H137805   6.671   5.258  11.140  0.7582 -1.0446  0.5858
 5438TIP3    H237806   6.785   5.305  11.228  1.2740 -1.4736  0.1578
 5439TIP3   OH237807   6.342   5.403  10.266 -0.2285  0.9908 -0.4037
 5439TIP3    H137808   6.381   5.477  10.312  0.2890 -0.6613  1.8760
 5439TIP3    H237809   6.393   5.327  10.295 -1.3529 -0.4077 -1.9815
 5440TIP3   OH237810   1.748   6.212  11.937  0.3189 -0.3508  0.4341
 5440TIP3    H137811   1.788   6.137  11.892  0.8158 -1.0106  1.9512
 5440TIP3    H237812   1.802   6.287  11.910 -0.6463 -0.3862 -1.7010
 5441TIP3   OH237813   0.042   5.753   3.278  0.1355 -0.5075 -0.0019
 5441TIP3    H137814   0.076   5.739   3.189  0.9597 -0.0117  0.2277
 5441TIP3    H237815   0.026   5.847   3.282  0.7702 -0.4295  0.6188
 5442TIP3   OH237816   4.042   0.616   4.363 -0.2764  0.0438 -0.0469
 5442TIP3    H137817   4.128   0.614   4.404 -1.2387  1.5422  2.0706
 5442TIP3    H237818   3.980   0.610   4.435 -1.9761 -0.9008 -1.5355
 5443TIP3   OH237819   1.930   5.821   1.645  0.8528 -0.6689 -0.3447
 5443TIP3    H137820   1.988   5.758   1.602  0.4916 -1.2116 -0.0321
 5443TIP3    H237821   1.984   5.900   1.655  1.0416 -0.6432 -1.4965
 5444TIP3   OH237822   6.676   2.330   3.420 -0.0306 -0.7122 -0.2338
 5444TIP3    H137823   6.607   2.378   3.375  1.2026 -1.1297 -2.6766
 5444TIP3    H237824   6.756   2.351   3.370  1.1090 -2.4995  0.7831
 5445TIP3   OH237825   4.560   0.402  14.843 -0.0158  0.0105 -0.1025
 5445TIP3    H137826   4.581   0.453  14.765 -2.6646  0.7708 -0.3819
 5445TIP3    H237827   4.585   0.459  14.916  2.9543 -0.9146 -0.3363
 5446TIP3   OH237828   6.744   4.122  16.277  0.3034  0.2036  0.0056
 5446TIP3    H137829   6.728   4.094  16.187 -1.1812  1.8355 -0.2639
 5446TIP3    H237830   6.747   4.041  16.327 -0.7577 -0.6093 -1.2200
 5447TIP3   OH237831   2.283   5.247  13.744 -0.0470  0.1011 -0.4602
 5447TIP3    H137832   2.217   5.289  13.689  0.1069  1.0468  0.0763
 5447TIP3    H237833   2.235   5.218  13.821  0.0584  0.2986 -0.3206
 5448TIP3   OH237834   2.199   0.769   2.544 -0.4027 -0.1749 -0.0507
 5448TIP3    H137835   2.159   0.685   2.569 -1.2413  0.1411 -0.3032
 5448TIP3    H237836   2.220   0.810   2.628 -2.5377  0.5564  0.1587
 5449TIP3   OH237837   3.856   5.824  13.256 -0.4144  0.3730 -0.0906
 5449TIP3    H137838   3.763   5.839  13.273 -0.2950  1.1350 -0.0950
 5449TIP3    H237839   3.901   5.896  13.302  0.1840 -0.1239  0.1118
 5450TIP3   OH237840   4.721   6.543  13.179 -0.5159 -0.4763 -0.0086
 5450TIP3    H137841   4.688   6.624  13.142 -0.5405 -0.3680  0.2454
 5450TIP3    H237842   4.643   6.494  13.204 -0.5023 -0.5968 -0.1994
 5451TIP3   OH237843   4.419   1.101   2.772  0.1190 -0.2290 -0.2477
 5451TIP3    H137844   4.404   1.030   2.834 -1.0366  1.3912  1.3791
 5451TIP3    H237845   4.511   1.124   2.783  0.5699 -1.6410 -0.9855
 5452TIP3   OH237846   1.965   2.796   2.171 -0.5007 -0.3945 -0.0618
 5452TIP3    H137847   1.970   2.881   2.215  0.5565  0.6988 -2.1874
 5452TIP3    H237848   1.871   2.779   2.164 -0.7252  0.5196  0.5454
 5453TIP3   OH237849   5.442   0.820  13.043  0.1868 -0.3113  0.1416
 5453TIP3    H137850   5.532   0.843  13.021  0.4146 -1.0583  0.2977
 5453TIP3    H237851   5.417   0.884  13.110  0.0843  0.8556 -0.9811
 5454TIP3   OH237852   6.798   2.666   4.547 -0.1925 -0.1994 -0.1066
 5454TIP3    H137853   6.873   2.657   4.605 -0.7003 -0.3926  0.5243
 5454TIP3    H237854   6.805   2.591   4.487 -0.5473 -0.9077  0.7183
 5455TIP3   OH237855   5.663   3.631  14.782  0.8326  0.1724  0.1277
 5455TIP3    H137856   5.629   3.567  14.845  1.2072 -1.0460 -0.8687
 5455TIP3    H237857   5.738   3.671  14.826  1.7017 -1.3738  0.1035
 5456TIP3   OH237858   1.619   6.116   2.819  0.7724 -0.7104  0.3510
 5456TIP3    H137859   1.636   6.030   2.857  1.8793 -0.4946  0.3609
 5456TIP3    H237860   1.692   6.170   2.849  0.3557  0.0968 -0.0785
 5457TIP3   OH237861   6.699   6.567  11.387 -0.4141 -0.0491  0.5212
 5457TIP3    H137862   6.710   6.478  11.421  1.1374 -0.3120 -0.6352
 5457TIP3    H237863   6.738   6.623  11.454  0.7925 -0.4195  0.1372
 5458TIP3   OH237864   6.422   0.293   2.114 -0.4091 -0.3346 -0.2565
 5458TIP3    H137865   6.494   0.230   2.120 -0.2300 -0.0289  0.9369
 5458TIP3    H237866   6.440   0.341   2.033  1.5803  0.7584  0.7829
 5459TIP3   OH237867   2.840   4.137   1.084 -0.6551 -0.3610  0.0280
 5459TIP3    H137868   2.851   4.204   1.016  1.6432 -2.0933 -1.3846
 5459TIP3    H237869   2.840   4.187   1.166  0.7100  1.4159 -1.0079
 5460TIP3   OH237870   0.449   0.132   4.806 -0.4142 -0.0161  0.2115
 5460TIP3    H137871   0.398   0.166   4.732  2.2981  0.0113 -1.7315
 5460TIP3    H237872   0.477   0.045   4.778  1.0760  0.1949  1.0034
 5461TIP3   OH237873   6.764   5.877  15.826  0.0408  0.3555 -0.5148
 5461TIP3    H137874   6.717   5.797  15.799  0.4468 -0.1677  0.3058
 5461TIP3    H237875   6.832   5.845  15.886 -0.3190  1.4136  0.4595
 5462TIP3   OH237876   4.369   2.408   0.832 -0.8116 -0.3528  0.0089
 5462TIP3    H137877   4.416   2.404   0.915 -1.4515 -1.9977  0.3138
 5462TIP3    H237878   4.294   2.465   0.849 -1.2732 -1.1623  0.7394
 5463TIP3   OH237879   5.768   3.678  13.157  0.3092 -0.3642  0.6958
 5463TIP3    H137880   5.770   3.589  13.191  1.8176 -0.6779 -0.1892
 5463TIP3    H237881   5.714   3.726  13.221  0.7578 -1.5508  2.0077
 5464TIP3   OH237882   2.325   0.925  15.692 -0.0751  0.6066  0.1553
 5464TIP3    H137883   2.256   0.968  15.743 -1.5740 -2.5830  0.9880
 5464TIP3    H237884   2.294   0.835  15.681  2.9689 -0.3438 -1.3509
 5465TIP3   OH237885   4.459   2.830  15.342  0.2965 -0.1952  0.3170
 5465TIP3    H137886   4.404   2.813  15.265  0.1633  1.0822  0.1150
 5465TIP3    H237887   4.488   2.921  15.331  3.5495 -1.2218 -0.2593
 5466TIP3   OH237888   3.769   5.770   4.308 -0.0543 -0.1651 -0.3391
 5466TIP3    H137889   3.843   5.819   4.272  0.6108 -1.3375 -0.5842
 5466TIP3    H237890   3.804   5.729   4.387  0.0629 -2.1425 -1.3889
 5467TIP3   OH237891   4.885   3.757   0.480 -0.3745 -0.2309 -0.3558
 5467TIP3    H137892   4.816   3.807   0.524 -1.2931 -1.6739 -0.1073
 5467TIP3    H237893   4.862   3.666   0.497  0.9003 -0.7470 -1.3634
 5468TIP3   OH237894   0.584   5.407   1.404 -0.0419  0.0212 -0.0709
 5468TIP3    H137895   0.495   5.419   1.435 -0.0387 -2.7483  1.1450
 5468TIP3    H237896   0.577   5.407   1.308 -1.2639  0.1122  0.0175
 5469TIP3   OH237897   6.226   5.340  11.723  0.0808  0.6236  0.8718
 5469TIP3    H137898   6.227   5.281  11.798 -2.5162 -0.7035 -0.0456
 5469TIP3    H237899   6.142   5.385  11.729 -0.6501 -0.2658 -1.7485
 5470TIP3   OH237900   6.183   5.277   1.048  0.0483  0.1175  0.1130
 5470TIP3    H137901   6.255   5.248   0.992  0.4337  0.3648  0.4759
 5470TIP3    H237902   6.129   5.199   1.060  0.3576 -0.1179 -0.0128
 5471TIP3   OH237903   5.472   0.542   5.994  0.5324 -0.2922 -0.0166
 5471TIP3    H137904   5.547   0.600   6.008  0.4056 -0.4295  1.3034
 5471TIP3    H237905   5.466   0.533   5.899  0.9018  1.3837 -0.2144
 5472TIP3   OH237906   0.459   4.098  13.256 -0.2132 -0.2707  0.0964
 5472TIP3    H137907   0.544   4.089  13.299 -0.4740  1.2058  0.9979
 5472TIP3    H237908   0.402   4.036  13.302 -0.0640  0.0725  0.7627
 5473TIP3   OH237909   1.187   4.480  16.229  0.2875  0.0049  0.9141
 5473TIP3    H137910   1.276   4.450  16.249  0.4371  1.2569  2.1626
 5473TIP3    H237911   1.142   4.479  16.313 -0.0760  2.0071  0.7699
 5474TIP3   OH237912   4.401   5.571  15.144  0.3443  0.1681 -0.0969
 5474TIP3    H137913   4.465   5.625  15.097  0.3638  1.7937  1.7062
 5474TIP3    H237914   4.334   5.634  15.173 -0.0786 -0.9023  1.3115
 5475TIP3   OH237915   0.596   3.786  11.788  0.1594 -0.0344  0.0143
 5475TIP3    H137916   0.658   3.835  11.842  1.1478 -0.4650 -0.7346
 5475TIP3    H237917   0.516   3.784  11.840  1.1545 -0.5965  1.5559
 5476TIP3   OH237918   1.401   2.068   3.111 -0.4727 -0.2328 -0.2988
 5476TIP3    H137919   1.457   1.991   3.114  1.3712  1.0066 -1.6944
 5476TIP3    H237920   1.420   2.114   3.192  0.1765 -0.0839 -0.5278
 5477TIP3   OH237921   5.290   6.068   3.142 -0.2629  0.3693 -0.1802
 5477TIP3    H137922   5.223   6.126   3.104  0.1545  0.3701 -0.9338
 5477TIP3    H237923   5.247   5.982   3.146 -0.7038  0.6155  0.4384
 5478TIP3   OH237924   3.660   6.526  17.225  0.2706  0.4742 -0.0157
 5478TIP3    H137925   3.703   6.444  17.248 -0.0902  0.1009 -0.6441
 5478TIP3    H237926   3.629   6.512  17.136 -2.4910  0.1825  0.9558
 5479TIP3   OH237927   5.035   2.669  13.104 -0.4880 -0.4490  0.1571
 5479TIP3    H137928   5.130   2.658  13.101 -0.4602  0.0929 -1.3661
 5479TIP3    H237929   5.012   2.656  13.196  0.8722 -2.0980  0.2938
 5480TIP3   OH237930   0.796   3.433   4.785  0.0917  0.4812  0.0691
 5480TIP3    H137931   0.790   3.460   4.693  1.1862  0.8698  0.1052
 5480TIP3    H237932   0.837   3.508   4.829  0.7594 -0.2160  0.6416
 5481TIP3   OH237933   2.567   4.737   6.555  0.1431 -0.2015  0.2666
 5481TIP3    H137934   2.658   4.766   6.561 -0.2494  0.7454  1.9120
 5481TIP3    H237935   2.516   4.818   6.550 -0.7104 -0.6903  0.9719
 5482TIP3   OH237936   3.671   0.309   4.216  0.2245 -0.6873  0.6063
 5482TIP3    H137937   3.576   0.309   4.203  0.1007 -4.3148  0.9090
 5482TIP3    H237938   3.701   0.390   4.176 -3.0716  0.8713  1.1286
 5483TIP3   OH237939   4.702   4.652  14.593  0.0533  0.8040  0.1562
 5483TIP3    H137940   4.755   4.625  14.668  0.0924  0.5196  0.0285
 5483TIP3    H237941   4.765   4.684  14.529  0.1536 -0.3089 -0.3197
 5484TIP3   OH237942   6.025   3.246   6.762  0.0172 -0.4135  0.1154
 5484TIP3    H137943   5.959   3.179   6.778 -1.2696  0.6391 -0.7298
 5484TIP3    H237944   5.988   3.326   6.800  0.5462  0.3206 -0.8930
 5485TIP3   OH237945   1.679   1.520   5.490 -0.0329 -0.1178  0.3909
 5485TIP3    H137946   1.629   1.439   5.505 -0.0153  0.1673  2.1072
 5485TIP3    H237947   1.756   1.492   5.440 -0.1221 -1.1381  0.8055
 5486TIP3   OH237948   5.460   4.415   4.700 -0.8001 -0.1646  0.7532
 5486TIP3    H137949   5.401   4.458   4.638 -0.3824 -2.7310 -1.4774
 5486TIP3    H237950   5.548   4.438   4.669 -0.5781  0.4745  1.8140
 5487TIP3   OH237951   1.107   1.536  15.412  0.0295 -0.4598 -0.0614
 5487TIP3    H137952   1.093   1.517  15.505  3.3667  1.2510  0.8934
 5487TIP3    H237953   1.124   1.630  15.410  2.0362 -0.8372 -2.1088
 5488TIP3   OH237954   0.325   2.257  12.103  0.1409 -1.2591 -0.6225
 5488TIP3    H137955   0.236   2.223  12.093  0.4089 -1.9604 -0.6817
 5488TIP3    H237956   0.380   2.179  12.111  0.9154 -0.8799 -1.9626
 5489TIP3   OH237957   0.659   4.262   4.408  0.4086  0.1119  0.0196
 5489TIP3    H137958   0.739   4.243   4.457  0.9791  0.8256 -0.6168
 5489TIP3    H237959   0.588   4.246   4.470  1.0480 -0.4309  0.6204
 5490TIP3   OH237960   2.520   3.443  16.413 -0.1241  0.2304  0.3539
 5490TIP3    H137961   2.591   3.409  16.467  0.4364  1.5689  0.4852
 5490TIP3    H237962   2.563   3.506  16.355 -0.7865 -0.8450 -1.3437
 5491TIP3   OH237963   0.605   5.739  11.774 -0.0535  0.1736  0.4478
 5491TIP3    H137964   0.510   5.755  11.777  0.0277  0.5389  1.2236
 5491TIP3    H237965   0.612   5.644  11.762 -0.5225 -0.0133  1.5316
 5492TIP3   OH237966   6.803   0.291  14.817 -1.4501  0.3666  0.5672
 5492TIP3    H137967   6.818   0.385  14.830 -0.0000 -0.0596  2.2149
 5492TIP3    H237968   6.779   0.258  14.903 -3.2042 -0.5786 -0.2574
 5493TIP3   OH237969   4.543   3.072  10.464 -0.5250  0.2064 -0.2712
 5493TIP3    H137970   4.511   3.051  10.376 -2.0441 -1.9260  0.7577
 5493TIP3    H237971   4.466   3.070  10.519  0.0177  3.8946  0.8038
 5494TIP3   OH237972   6.284   3.499  13.173 -0.2430 -0.5128 -0.3129
 5494TIP3    H137973   6.377   3.505  13.194 -0.4669  0.2475  0.4880
 5494TIP3    H237974   6.275   3.546  13.091 -0.1938  0.8521  0.4596
 5495TIP3   OH237975   5.896   2.855   4.596  0.0099 -0.6193 -0.1892
 5495TIP3    H137976   5.889   2.825   4.687 -0.0834 -1.4959 -0.4803
 5495TIP3    H237977   5.947   2.936   4.601 -2.5856  1.0073  0.9960
 5496TIP3   OH237978   4.413   5.137   0.883 -0.2793  0.7169 -0.1619
 5496TIP3    H137979   4.331   5.097   0.912 -0.1737  0.6800  0.0881
 5496TIP3    H237980   4.480   5.096   0.938 -0.0714  0.6089 -0.4919
 5497TIP3   OH237981   1.050   2.668   1.073  0.2275 -0.3878 -0.6277
 5497TIP3    H137982   1.136   2.633   1.098 -1.2404 -1.5607  3.2970
 5497TIP3    H237983   1.005   2.595   1.033  0.5625 -0.1593 -1.4324
 5498TIP3   OH237984   3.325   0.786  14.779 -0.1238 -0.2875  0.0681
 5498TIP3    H137985   3.292   0.796  14.868  2.9580 -0.8259  1.3676
 5498TIP3    H237986   3.277   0.711  14.744 -0.2169 -1.1105  1.8846
 5499TIP3   OH237987   6.096   0.655   4.561 -0.0676 -0.4542 -0.0722
 5499TIP3    H137988   6.052   0.738   4.581 -1.6603 -1.2743 -0.0782
 5499TIP3    H237989   6.099   0.653   4.465  1.3794  0.3036 -0.0543
 5500TIP3   OH237990   0.738   0.977  13.903 -0.1737 -0.3265  0.1212
 5500TIP3    H137991   0.681   0.979  13.826  3.2792 -0.0103 -2.5267
 5500TIP3    H237992   0.753   1.069  13.924  0.8768 -0.3853 -0.3632
 5501TIP3   OH237993   2.292   0.992   0.825 -0.2266  0.1571  0.3079
 5501TIP3    H137994   2.199   0.992   0.803 -0.3790 -0.6230  0.9077
 5501TIP3    H237995   2.332   1.051   0.761 -1.1290  0.4970  0.0432
 5502TIP3   OH237996   4.219   4.948   5.178 -0.7487  0.1986  0.1791
 5502TIP3    H137997   4.301   4.976   5.217 -1.0180  0.1562  0.7931
 5502TIP3    H237998   4.230   4.960   5.084  0.7246 -1.7981  0.0633
 5503TIP3   OH237999   1.280   4.210  12.437 -0.3707 -0.3651 -0.0439
 5503TIP3    H138000   1.227   4.255  12.502  1.9838  2.6053 -0.0627
 5503TIP3    H238001   1.357   4.266  12.426  1.4352 -3.1085 -2.0423
 5504TIP3   OH238002   5.501   1.931  11.425  0.5957  0.0549  0.4506
 5504TIP3    H138003   5.466   1.970  11.505  0.5790  0.5058  0.2228
 5504TIP3    H238004   5.593   1.955  11.426  1.0432 -1.5951  1.3350
 5505TIP3   OH238005   3.672   4.947   2.739 -0.7747  0.6116  0.4801
 5505TIP3    H138006   3.724   4.875   2.773 -1.8809  0.2331  1.4190
 5505TIP3    H238007   3.696   4.954   2.647 -0.6588 -0.9578  0.3870
 5506TIP3   OH238008   5.957   2.208  16.708 -0.5225  0.1957 -0.2041
 5506TIP3    H138009   5.984   2.220  16.618  1.9236  1.2041  0.6255
 5506TIP3    H238010   5.949   2.296  16.743 -0.6309 -0.1953  0.7729
 5507TIP3   OH238011   1.653   3.018   2.754  0.0965 -0.9812  0.1550
 5507TIP3    H138012   1.573   3.051   2.712  1.2388 -0.7521 -1.9218
 5507TIP3    H238013   1.717   3.088   2.742  0.6089 -1.1191  1.9034
 5508TIP3   OH238014   5.898   6.629  13.841 -0.4625  0.4330  0.1840
 5508TIP3    H138015   5.982   6.642  13.886 -0.5078 -2.7112  1.3354
 5508TIP3    H238016   5.921   6.593  13.756 -0.5607  2.1435 -0.5801
 5509TIP3   OH238017   2.574   6.084  15.423 -0.1959 -0.7054  0.1296
 5509TIP3    H138018   2.521   6.096  15.344 -0.0550  2.3145  0.4288
 5509TIP3    H238019   2.637   6.157  15.421  1.4807 -2.0498  1.7294
 5510TIP3   OH238020   1.591   0.513   4.412 -0.2238 -0.1878 -0.2105
 5510TIP3    H138021   1.557   0.436   4.457 -1.1084  0.2944 -0.0424
 5510TIP3    H238022   1.517   0.546   4.361  0.7037 -0.6076 -1.8603
 5511TIP3   OH238023   5.083   1.568  14.931 -0.3405  0.2812 -0.8910
 5511TIP3    H138024   5.031   1.581  15.010 -1.0841 -0.3825 -1.2523
 5511TIP3    H238025   5.104   1.656  14.901  1.3935  0.5085  0.9664
 5512TIP3   OH238026   1.492   3.210   4.048 -0.1818  0.0138  0.7684
 5512TIP3    H138027   1.470   3.298   4.018  1.1058 -0.0236 -0.3405
 5512TIP3    H238028   1.458   3.152   3.979  1.2806 -0.1758  0.1813
 5513TIP3   OH238029   5.888   2.889  11.355  0.2576  0.3494 -0.5530
 5513TIP3    H138030   5.946   2.831  11.404 -1.5474  0.1493  1.4321
 5513TIP3    H238031   5.845   2.832  11.291  2.5863  0.6034 -2.4273
 5514TIP3   OH238032   0.924   2.833   4.068 -0.3573 -0.3616  0.0473
 5514TIP3    H138033   0.965   2.834   3.981 -3.0665  0.8088 -1.2951
 5514TIP3    H238034   0.838   2.793   4.053 -0.2821 -1.5471  2.5069
 5515TIP3   OH238035   4.480   2.246   1.404 -0.1777  0.2400 -0.2553
 5515TIP3    H138036   4.509   2.218   1.491  2.0716  0.9727 -0.7432
 5515TIP3    H238037   4.496   2.341   1.403 -2.1074  0.5828 -0.7557
 5516TIP3   OH238038   3.466   1.475   0.045  0.3076 -0.4216 -0.4217
 5516TIP3    H138039   3.494   1.453   0.134  1.1565 -0.3164 -0.6577
 5516TIP3    H238040   3.408   1.403   0.020 -0.4814 -0.1112  0.4661
 5517TIP3   OH238041   5.553   5.031   0.677  0.2726 -0.2807 -0.6495
 5517TIP3    H138042   5.478   5.022   0.618 -0.5995 -0.1595  0.4275
 5517TIP3    H238043   5.555   5.125   0.699  0.5467 -0.3380 -0.4244
 5518TIP3   OH238044   4.078   6.648   3.147  0.1073 -0.2380  0.7902
 5518TIP3    H138045   4.140   6.597   3.198  0.6270  0.8244  1.2387
 5518TIP3    H238046   4.022   6.690   3.213 -0.3744 -0.2943  0.4221
 5519TIP3   OH238047   5.675   0.180   5.064 -0.0648 -0.4008  0.1231
 5519TIP3    H138048   5.766   0.151   5.067  0.2580  0.5759  0.0986
 5519TIP3    H238049   5.626   0.103   5.036  1.0365 -0.2943 -2.1789
 5520TIP3   OH238050   1.118   1.314   3.650  0.4570 -0.1355  0.6003
 5520TIP3    H138051   1.137   1.238   3.704 -2.4329 -0.0257  1.8539
 5520TIP3    H238052   1.192   1.373   3.664  0.9774 -1.1867  2.4220
 5521TIP3   OH238053   5.610   4.474  13.282  0.0424 -0.5067  0.4168
 5521TIP3    H138054   5.662   4.542  13.239 -0.1025  0.5829  1.9246
 5521TIP3    H238055   5.555   4.521  13.345 -0.8547 -1.9103  0.7112
 5522TIP3   OH238056   0.440   0.847   1.691  0.3510 -0.0028  0.1041
 5522TIP3    H138057   0.373   0.896   1.738 -0.9063 -1.3809 -0.2404
 5522TIP3    H238058   0.522   0.871   1.735 -0.4018  1.3382  0.8074
 5523TIP3   OH238059   3.746   5.989   1.819  0.0780  0.2278 -0.0555
 5523TIP3    H138060   3.777   5.926   1.884  0.7656  1.2542  0.6284
 5523TIP3    H238061   3.820   6.002   1.760 -0.1139  0.2753 -0.2867
 5524TIP3   OH238062   2.732   0.956   5.729  0.0148  0.0512  0.5065
 5524TIP3    H138063   2.669   0.948   5.800  0.0237 -0.8858  0.4093
 5524TIP3    H238064   2.805   0.900   5.754  0.0044 -0.3134 -0.2517
 5525TIP3   OH238065   4.044   3.445  11.741  0.2428  0.5937  0.0843
 5525TIP3    H138066   4.011   3.378  11.681 -0.0222  0.8667 -0.0746
 5525TIP3    H238067   3.988   3.438  11.818  1.2716 -0.5047  0.7652
 5526TIP3   OH238068   0.869   2.600   3.195 -0.2801 -0.1922  0.5537
 5526TIP3    H138069   0.861   2.514   3.155 -2.1484 -0.2335  0.9861
 5526TIP3    H238070   0.788   2.611   3.245  1.2607  0.5218  3.0080
 5527TIP3   OH238071   1.137   3.527   2.595  0.1768  0.3716  0.2303
 5527TIP3    H138072   1.078   3.531   2.520 -0.6312 -0.1347  0.8277
 5527TIP3    H238073   1.196   3.456   2.575 -2.3908 -2.2888  1.7274
 5528TIP3   OH238074   6.048   4.318   6.195  0.0827  0.3030  0.1685
 5528TIP3    H138075   5.959   4.286   6.179  0.6638 -1.3029  0.0453
 5528TIP3    H238076   6.036   4.401   6.240 -1.4888  0.4236 -0.4281
 5529TIP3   OH238077   2.661   6.075   2.828  0.2137 -0.0596 -0.0951
 5529TIP3    H138078   2.648   6.126   2.748  2.6312  0.7028 -0.0192
 5529TIP3    H238079   2.730   6.013   2.806 -1.1399 -1.8429  0.5183
 5530TIP3   OH238080   5.737   4.572   6.141  0.7097 -0.2911 -0.0595
 5530TIP3    H138081   5.670   4.634   6.171 -0.8967 -1.2593 -1.5192
 5530TIP3    H238082   5.741   4.506   6.209 -0.3730 -0.6115 -0.2904
 5531TIP3   OH238083   5.644   1.770   1.901  0.1365  0.0612  0.0495
 5531TIP3    H138084   5.657   1.691   1.848 -2.6587 -0.9649  0.8394
 5531TIP3    H238085   5.581   1.823   1.852  1.0349  1.2419  0.1372
 5532TIP3   OH238086   6.535   4.439   4.476 -0.0246  0.2728  0.3332
 5532TIP3    H138087   6.583   4.443   4.394  0.6894 -1.7103  0.6149
 5532TIP3    H238088   6.603   4.432   4.543 -0.6500 -3.7855  0.6516
 5533TIP3   OH238089   1.246   0.183   1.417 -0.4538  0.2490  0.0914
 5533TIP3    H138090   1.206   0.171   1.331 -0.0687  1.9274 -0.3310
 5533TIP3    H238091   1.316   0.118   1.421 -1.6448 -1.0568 -0.1353
 5534TIP3   OH238092   3.390   3.738   5.562 -0.5750 -0.6228 -0.5163
 5534TIP3    H138093   3.382   3.818   5.509 -0.7639 -0.9693 -1.0236
 5534TIP3    H238094   3.475   3.745   5.604 -1.4241  0.8053  1.0433
 5535TIP3   OH238095   1.930   0.961   6.535 -0.3335  0.5326  0.2254
 5535TIP3    H138096   2.016   1.003   6.530 -0.0980  0.1417  0.9862
 5535TIP3    H238097   1.877   1.023   6.584  0.0693 -0.1412  1.5255
 5536TIP3   OH238098   2.425   2.087  14.519 -0.3718  0.3188 -0.7393
 5536TIP3    H138099   2.363   2.063  14.450 -0.0941  0.9969 -1.2315
 5536TIP3    H238100   2.499   2.028  14.508 -1.3042 -1.1090  0.4187
 5537TIP3   OH238101   4.902   2.635  14.251  0.4180 -0.5921  0.1290
 5537TIP3    H138102   4.879   2.554  14.297  0.2207 -1.4355 -1.4275
 5537TIP3    H238103   4.984   2.615  14.207  0.1846 -0.0659 -0.5559
 5538TIP3   OH238104   2.387   4.039   2.414 -0.0165 -0.0610  0.1011
 5538TIP3    H138105   2.443   4.005   2.484  0.5826  1.2673  0.2726
 5538TIP3    H238106   2.427   4.007   2.333 -0.6780 -1.5526  0.3460
 5539TIP3   OH238107   4.107   3.784   1.656 -0.2770  0.2397 -0.1220
 5539TIP3    H138108   4.039   3.717   1.659  1.0880 -1.1413  1.6120
 5539TIP3    H238109   4.111   3.817   1.745  0.1203  1.5464 -0.6237
 5540TIP3   OH238110   1.803   4.367   3.026  0.3295 -0.0556 -0.4231
 5540TIP3    H138111   1.894   4.388   3.007  0.3695 -0.0533 -0.2299
 5540TIP3    H238112   1.753   4.417   2.963  0.5385 -1.3671 -1.6519
 5541TIP3   OH238113   4.603   5.503  12.316  0.5664 -0.2010  0.0774
 5541TIP3    H138114   4.625   5.586  12.272 -0.5085  0.1999  0.2867
 5541TIP3    H238115   4.624   5.519  12.408 -0.8775  0.2804  0.3228
 5542TIP3   OH238116   6.360   0.128  11.840 -0.0221  0.2111  0.8740
 5542TIP3    H138117   6.273   0.144  11.804 -0.0857  0.6483  1.2105
 5542TIP3    H238118   6.402   0.070  11.777 -0.2927  0.5989  0.3304
 5543TIP3   OH238119   1.243   5.291  14.666 -0.1833 -0.3767  0.0550
 5543TIP3    H138120   1.164   5.334  14.634 -0.5045 -0.4676  0.7179
 5543TIP3    H238121   1.240   5.301  14.761  0.3442 -0.8234  0.1247
 5544TIP3   OH238122   5.840   0.114  12.715 -0.6025 -0.2461  0.5979
 5544TIP3    H138123   5.879   0.027  12.721 -0.4629 -0.1627  0.9042
 5544TIP3    H238124   5.846   0.149  12.804 -0.3163  0.2245  0.3945
 5545TIP3   OH238125   4.231   0.371   3.663  0.6046 -0.1419 -0.3525
 5545TIP3    H138126   4.262   0.287   3.697 -1.2600 -1.3659 -1.5931
 5545TIP3    H238127   4.302   0.432   3.683  1.4358 -1.7230  1.7421
 5546TIP3   OH238128   5.603   6.734  11.822 -0.4373  0.9858  0.7141
 5546TIP3    H138129   5.604   6.695  11.910 -1.1554  1.0772  0.7721
 5546TIP3    H238130   5.519   6.780  11.818 -1.1982 -0.4893 -0.6656
 5547TIP3   OH238131   0.882   0.181   4.069  0.2239  0.2879  0.0513
 5547TIP3    H138132   0.882   0.271   4.103 -0.5793 -0.2313  1.4128
 5547TIP3    H238133   0.954   0.181   4.005 -0.0623  2.0240 -0.3097
 5548TIP3   OH238134   3.630   5.647   1.842  0.1035  0.2905  0.2952
 5548TIP3    H138135   3.662   5.695   1.919  1.9045  1.6574 -1.2520
 5548TIP3    H238136   3.546   5.689   1.821  0.1929  0.7287  0.7864
 5549TIP3   OH238137   1.181   2.564   4.334 -0.1342 -0.6140 -0.3832
 5549TIP3    H138138   1.093   2.583   4.365 -0.1038 -0.0500 -0.6442
 5549TIP3    H238139   1.231   2.643   4.355  0.7190 -1.5663  1.3005
 5550TIP3   OH238140   4.426   2.171   5.416  0.2263 -0.1513 -0.6023
 5550TIP3    H138141   4.386   2.084   5.427  0.1132  0.2168  2.4105
 5550TIP3    H238142   4.361   2.221   5.366 -0.3493 -1.3851 -1.1178
 5551TIP3   OH238143   5.979   1.654   1.574  0.0612  0.0159  0.2263
 5551TIP3    H138144   5.977   1.720   1.644  2.0186 -0.4512  0.7493
 5551TIP3    H238145   5.981   1.705   1.493 -0.2455  0.5780  0.5679
 5552TIP3   OH238146   3.212   5.823  15.353  0.2060  0.6793  0.5163
 5552TIP3    H138147   3.248   5.735  15.361  0.0887  0.6970  1.2773
 5552TIP3    H238148   3.120   5.810  15.334  0.0915  0.6375  1.0978
 5553TIP3   OH238149   6.685   5.410  15.881  0.8231 -0.5355 -0.8832
 5553TIP3    H138150   6.721   5.405  15.969  0.9957  0.0089 -0.9190
 5553TIP3    H238151   6.760   5.433  15.826  0.5500 -0.0375 -1.0496
 5554TIP3   OH238152   6.114   1.199   1.751  0.3460  0.7688  0.2064
 5554TIP3    H138153   6.142   1.149   1.674  0.7544  0.0180  0.8270
 5554TIP3    H238154   6.044   1.146   1.789  1.2355  0.3232  1.2448
 5555TIP3   OH238155   3.873   2.441   1.153  0.1550 -0.1217  0.2023
 5555TIP3    H138156   3.961   2.420   1.121  0.5059 -1.6482  2.0107
 5555TIP3    H238157   3.876   2.534   1.173  1.8226 -0.4075  1.4767
 5556TIP3   OH238158   3.918   0.560   3.302  0.0126  0.0548 -0.3008
 5556TIP3    H138159   3.848   0.542   3.365 -0.5409  1.5955 -0.4621
 5556TIP3    H238160   3.997   0.523   3.343 -0.8193 -1.3867  0.0377
 5557TIP3   OH238161   6.600   0.852   3.111  0.1106  0.2546  0.0108
 5557TIP3    H138162   6.636   0.768   3.139  2.0180  0.7283 -0.8599
 5557TIP3    H238163   6.622   0.857   3.018 -0.2103  1.5986 -0.0044
 5558TIP3   OH238164   4.802   2.666   2.555 -0.8306  0.1397 -0.3840
 5558TIP3    H138165   4.738   2.717   2.506 -0.2170  0.8443 -0.4606
 5558TIP3    H238166   4.865   2.730   2.588 -0.9561 -0.3851  0.9029
 5559TIP3   OH238167   3.218   3.295   5.816 -0.2850  0.1955 -0.4062
 5559TIP3    H138168   3.309   3.303   5.788  0.7801 -0.8228  2.5293
 5559TIP3    H238169   3.209   3.204   5.842 -2.3659  0.1161 -1.3517
 5560TIP3   OH238170   1.170   3.601  11.341 -0.2241  0.0478  0.0355
 5560TIP3    H138171   1.085   3.556  11.333 -0.2381 -0.0398  0.6838
 5560TIP3    H238172   1.188   3.632  11.253 -0.6828 -0.3929 -0.2209
 5561TIP3   OH238173   6.433   1.839  11.088  0.2889  0.1443  0.0251
 5561TIP3    H138174   6.376   1.766  11.064  0.9543 -0.8616  1.4685
 5561TIP3    H238175   6.430   1.898  11.012 -1.3236 -0.7163 -0.5885
 5562TIP3   OH238176   1.829   6.054  13.489 -0.8626  0.7199  0.1330
 5562TIP3    H138177   1.759   6.119  13.492 -1.3589  0.1473  1.7338
 5562TIP3    H238178   1.792   5.978  13.534  0.6065  0.2353  0.5312
 5563TIP3   OH238179   3.226   5.661   0.856 -0.3665  0.6950 -0.0333
 5563TIP3    H138180   3.264   5.741   0.820 -0.1499  0.7559  0.3352
 5563TIP3    H238181   3.182   5.620   0.781  0.0010  0.8740 -0.3497
 5564TIP3   OH238182   5.095   5.801   4.580 -0.0775 -0.7475 -0.3228
 5564TIP3    H138183   5.150   5.870   4.544 -0.7275 -0.3768 -0.6127
 5564TIP3    H238184   5.133   5.720   4.546  0.2019 -0.4851 -0.6351
 5565TIP3   OH238185   4.815   1.045  16.745  0.3304 -0.3640  0.4000
 5565TIP3    H138186   4.824   0.969  16.802  2.2282  0.6567  1.4844
 5565TIP3    H238187   4.720   1.054  16.732 -0.1089 -0.8172  3.0916
 5566TIP3   OH238188   4.794   6.087  14.018 -0.1378  0.3923 -0.4362
 5566TIP3    H138189   4.728   6.143  14.057 -1.7109 -0.5028 -1.7531
 5566TIP3    H238190   4.754   6.054  13.937  1.5932 -0.8257 -0.8449
 5567TIP3   OH238191   4.855   6.478  16.342  1.0073  0.0993  0.1571
 5567TIP3    H138192   4.760   6.466  16.337  1.0447  0.2765 -1.2043
 5567TIP3    H238193   4.871   6.513  16.430 -0.4696  2.4180 -0.4379
 5568TIP3   OH238194   3.180   3.772   3.402 -0.3038  0.7760  0.2766
 5568TIP3    H138195   3.093   3.767   3.363  0.3508  1.5685 -1.3528
 5568TIP3    H238196   3.224   3.842   3.353  2.0553 -1.2498 -0.5982
 5569TIP3   OH238197   2.886   3.401  12.561 -0.4557 -0.8137  0.3602
 5569TIP3    H138198   2.865   3.393  12.654 -0.7424 -1.8312  0.2168
 5569TIP3    H238199   2.979   3.425  12.560 -0.4333 -0.8623  0.9057
 5570TIP3   OH238200   4.115   4.987  13.193  0.4078  0.2982  0.1130
 5570TIP3    H138201   4.094   4.965  13.283  2.2767  1.9276  1.0052
 5570TIP3    H238202   4.154   4.907  13.157  1.6406  0.2677  1.4492
 5571TIP3   OH238203   1.908   1.183  16.786 -0.0634  0.1327  0.0834
 5571TIP3    H138204   1.944   1.122  16.722  1.9909  0.9219  0.4636
 5571TIP3    H238205   1.934   1.148  16.871 -1.1857  0.0907  0.4152
 5572TIP3   OH238206   4.166   3.330  14.337 -0.4312  0.6600 -0.3803
 5572TIP3    H138207   4.141   3.417  14.306  2.4491  1.5307 -0.4050
 5572TIP3    H238208   4.150   3.333  14.432  1.7177  2.0364 -0.0111
 5573TIP3   OH238209   3.109   5.642  15.785  0.1893  0.0588  0.1953
 5573TIP3    H138210   3.063   5.717  15.746  0.8034  0.0140 -0.6271
 5573TIP3    H238211   3.136   5.672  15.871 -3.3841 -0.6568  1.6614
 5574TIP3   OH238212   1.733   5.025   0.309  0.1228  0.1740  0.0594
 5574TIP3    H138213   1.693   5.017   0.222  0.1742 -0.9668  0.1373
 5574TIP3    H238214   1.807   4.965   0.308 -0.5252 -0.6832  1.2559
 5575TIP3   OH238215   6.588   1.824   1.500  0.6281  0.1412  0.4008
 5575TIP3    H138216   6.550   1.855   1.582  1.2736 -1.6141  1.3937
 5575TIP3    H238217   6.610   1.732   1.517  1.3340 -0.0714 -1.5405
 5576TIP3   OH238218   3.813   2.253  11.315  0.5339 -0.5120  0.5888
 5576TIP3    H138219   3.778   2.226  11.400  1.2981 -0.8660  0.7933
 5576TIP3    H238220   3.903   2.220  11.315  0.3884 -0.9034 -0.5399
 5577TIP3   OH238221   1.030   6.413  16.817 -0.1874 -0.0760  0.1176
 5577TIP3    H138222   0.983   6.357  16.755 -0.9551 -1.6061  2.0337
 5577TIP3    H238223   1.086   6.468  16.762 -2.1279 -0.1710 -2.0356
 5578TIP3   OH238224   5.830   4.167  15.588  0.1590 -0.2287  0.3172
 5578TIP3    H138225   5.856   4.100  15.524 -1.2653  0.7630 -1.3798
 5578TIP3    H238226   5.794   4.118  15.661  3.4162 -1.4578  1.1445
 5579TIP3   OH238227   6.807   0.336  13.108 -0.3896  0.3374  0.0324
 5579TIP3    H138228   6.786   0.244  13.121  0.4003 -0.1867 -2.2172
 5579TIP3    H238229   6.880   0.352  13.168  1.6021 -1.3828 -1.8581
 5580TIP3   OH238230   5.283   3.678  16.566  0.3698  0.1441 -0.3528
 5580TIP3    H138231   5.253   3.759  16.524 -1.4468 -0.8635 -1.0452
 5580TIP3    H238232   5.244   3.680  16.654  1.7507  0.8326  0.2628
 5581TIP3   OH238233   3.963   0.777  13.047 -0.1067 -1.2466  0.4527
 5581TIP3    H138234   3.907   0.806  13.118 -2.7112 -0.0215 -1.9913
 5581TIP3    H238235   4.026   0.848  13.036 -1.7367  0.0842 -0.5419
 5582TIP3   OH238236   5.455   3.899  12.896  0.2996  0.1244  0.3716
 5582TIP3    H138237   5.393   3.908  12.824 -0.4577 -1.3444  0.8228
 5582TIP3    H238238   5.541   3.898  12.854 -0.0588  0.6201 -0.3886
 5583TIP3   OH238239   5.665   6.019  16.878  0.0709  0.5963  0.1556
 5583TIP3    H138240   5.671   5.929  16.844  0.0604  0.3180  0.8800
 5583TIP3    H238241   5.603   6.013  16.950 -1.1625  1.5045 -0.8185
 5584TIP3   OH238242   4.286   2.268   1.649 -0.2606  0.1166 -0.1346
 5584TIP3    H138243   4.238   2.324   1.709  0.9175  0.3459  0.6252
 5584TIP3    H238244   4.275   2.180   1.685  2.2795  0.4987  1.7573
 5585TIP3   OH238245   0.665   4.734  11.649 -0.0751 -0.2733  0.0145
 5585TIP3    H138246   0.709   4.669  11.704  1.9351  1.4037  0.4731
 5585TIP3    H238247   0.735   4.770  11.595 -1.2148  1.2367 -0.4838
 5586TIP3   OH238248   3.417   3.643   2.742 -0.2367  0.2184  0.0135
 5586TIP3    H138249   3.333   3.685   2.759 -0.9835 -1.2924  0.2339
 5586TIP3    H238250   3.413   3.562   2.794  0.3182 -1.0886 -1.9223
 5587TIP3   OH238251   6.641   3.451   2.254 -0.3553  0.2654 -0.1559
 5587TIP3    H138252   6.639   3.482   2.163  0.8126  1.3065  0.1520
 5587TIP3    H238253   6.693   3.372   2.251  0.7982  1.0165 -0.1981
 5588TIP3   OH238254   5.277   3.494   5.370 -0.5756  0.7494  0.3118
 5588TIP3    H138255   5.347   3.559   5.363 -0.8188  0.9544 -0.2768
 5588TIP3    H238256   5.322   3.413   5.395 -0.0285  0.7054 -0.7692
 5589TIP3   OH238257   5.325   1.206   2.068  0.3126  0.1815 -0.4128
 5589TIP3    H138258   5.292   1.119   2.044  2.5440 -0.5013 -1.1009
 5589TIP3    H238259   5.286   1.265   2.004 -1.1984 -0.3030  0.0362
 5590TIP3   OH238260   5.715   6.441  13.507 -0.5155  0.6938  0.0749
 5590TIP3    H138261   5.694   6.508  13.442  0.0104 -0.2316 -1.0589
 5590TIP3    H238262   5.675   6.361  13.474  0.7242 -0.0384  0.3098
 5591TIP3   OH238263   4.564   6.108  11.443  0.7932 -0.1092 -0.1542
 5591TIP3    H138264   4.504   6.064  11.503  0.6380 -1.2527 -1.1231
 5591TIP3    H238265   4.644   6.054  11.444  1.0334  0.2350 -0.4489
 5592TIP3   OH238266   4.190   5.597  16.985  0.0745  0.4847 -0.4154
 5592TIP3    H138267   4.124   5.624  17.050  0.3058 -0.7199  0.3345
 5592TIP3    H238268   4.240   5.677  16.967 -0.5712  1.0384  0.2022
 5593TIP3   OH238269   2.236   2.497  15.182  0.5005  0.3005  0.0869
 5593TIP3    H138270   2.169   2.541  15.130  0.6769 -2.0466 -2.2395
 5593TIP3    H238271   2.193   2.475  15.264 -0.0191  3.3624  0.6999
 5594TIP3   OH238272   4.870   1.371  12.803  0.3628 -0.6899 -0.0113
 5594TIP3    H138273   4.850   1.462  12.779  1.6118 -0.1246  0.9949
 5594TIP3    H238274   4.871   1.324  12.720  0.4505  0.3796 -0.6269
 5595TIP3   OH238275   5.443   6.012   0.502  0.4091  0.1770 -0.3387
 5595TIP3    H138276   5.355   6.022   0.465  1.1517  0.8827 -1.9309
 5595TIP3    H238277   5.496   5.980   0.430  1.5957  0.3123  0.4650
 5596TIP3   OH238278   3.644   4.570  17.264  0.3912 -0.0138 -0.0334
 5596TIP3    H138279   3.692   4.555  17.345 -0.4261 -0.6795  0.3267
 5596TIP3    H238280   3.564   4.615  17.291 -0.1588 -0.7657 -0.4070
 5597TIP3   OH238281   3.209   4.050   3.091  0.1779  0.1340  0.0036
 5597TIP3    H138282   3.114   4.038   3.091  0.0546  1.0399 -0.8336
 5597TIP3    H238283   3.243   3.973   3.135 -0.9114 -0.5581 -0.3507
 5598TIP3   OH238284   2.214   0.859   5.062 -0.2165 -0.2974 -0.1315
 5598TIP3    H138285   2.231   0.953   5.058 -0.3217 -0.3588 -3.4035
 5598TIP3    H238286   2.120   0.850   5.048 -0.3914 -0.8386  1.3378
 5599TIP3   OH238287   4.231   4.331   4.919  0.0907  0.0391  0.4264
 5599TIP3    H138288   4.289   4.295   4.986  0.0538  1.2283  1.1122
 5599TIP3    H238289   4.271   4.415   4.896  0.1118 -0.3605 -1.0605
 5600TIP3   OH238290   1.694   4.679  16.189 -0.4320  0.8091  0.0381
 5600TIP3    H138291   1.740   4.599  16.166 -1.0604  0.3021  0.5329
 5600TIP3    H238292   1.740   4.748  16.141  1.0431  0.3602  0.7767
 5601TIP3   OH238293   4.782   1.079   2.438 -0.3333 -0.1484 -0.6768
 5601TIP3    H138294   4.871   1.049   2.421 -0.0389  1.1531 -1.5109
 5601TIP3    H238295   4.733   0.998   2.456  0.9587 -0.8906 -0.3874
 5602TIP3   OH238296   3.177   6.810   5.116 -0.1098 -0.9055  0.2592
 5602TIP3    H138297   3.168   6.781   5.207 -0.7959 -0.5894  0.2984
 5602TIP3    H238298   3.255   6.866   5.116 -1.6621  1.3613  1.2602
 5603TIP3   OH238299   5.968   5.581  15.453 -0.0926 -0.2040  0.0822
 5603TIP3    H138300   6.029   5.509  15.436  0.9134  1.0234 -1.6387
 5603TIP3    H238301   5.980   5.601  15.546  1.8141 -0.2992 -0.1222
 5604TIP3   OH238302   4.635   4.603   5.389  0.1696  0.6843  0.3007
 5604TIP3    H138303   4.672   4.514   5.382  0.3278  0.6771  1.1733
 5604TIP3    H238304   4.706   4.655   5.427  0.5227  1.4835 -1.3773
 5605TIP3   OH238305   0.142   3.139   4.963  0.0239  1.2415 -0.1123
 5605TIP3    H138306   0.086   3.172   5.034 -0.3001 -2.0045  1.2146
 5605TIP3    H238307   0.091   3.155   4.884 -2.1478 -0.2698  0.9389
 5606TIP3   OH238308   0.026   5.218  13.320 -0.3902 -0.0721  0.1957
 5606TIP3    H138309   0.067   5.144  13.364  1.8764  1.2252  0.3456
 5606TIP3    H238310   0.006   5.280  13.390 -0.4855  0.2816 -0.1396
 5607TIP3   OH238311   1.147   6.164   2.446 -0.2891 -0.0106  0.2903
 5607TIP3    H138312   1.089   6.238   2.466 -1.3614 -0.1916 -1.9310
 5607TIP3    H238313   1.158   6.119   2.529 -2.1602  0.8787  1.0525
 5608TIP3   OH238314   5.140   6.792   3.473  0.0875  0.4029 -0.3498
 5608TIP3    H138315   5.165   6.884   3.468  4.8261 -0.7811 -0.7191
 5608TIP3    H238316   5.147   6.760   3.383 -0.5052 -0.5595 -0.0577
 5609TIP3   OH238317   0.071   0.077   1.327  0.5944 -0.3559  0.1868
 5609TIP3    H138318   0.152   0.028   1.316  1.0595  0.7424 -1.3275
 5609TIP3    H238319   0.096   0.168   1.315 -0.9899 -0.0604 -1.0438
 5610TIP3   OH238320   0.299   0.966  15.174  0.3843 -0.1772  0.1316
 5610TIP3    H138321   0.262   1.053  15.191  1.4910 -0.0645  2.2564
 5610TIP3    H238322   0.288   0.919  15.257  1.7303 -1.3269 -0.3175
 5611TIP3   OH238323   4.208   5.416   3.204  0.5017 -0.8239  0.3097
 5611TIP3    H138324   4.267   5.365   3.148  0.4592 -1.0897  0.5027
 5611TIP3    H238325   4.140   5.353   3.229 -0.6812 -0.1407 -1.1016
 5612TIP3   OH238326   4.086   4.096   2.851  0.2023 -0.0107 -0.1522
 5612TIP3    H138327   4.133   4.035   2.794 -0.4871 -0.2474 -0.4638
 5612TIP3    H238328   4.023   4.042   2.898 -2.5464  0.8567 -2.6385
 5613TIP3   OH238329   5.832   0.631  16.919 -0.2327 -0.0723  0.2102
 5613TIP3    H138330   5.909   0.575  16.930 -0.0093  0.1948  0.0006
 5613TIP3    H238331   5.866   0.720  16.921 -0.5297  0.0452  0.0613
 5614TIP3   OH238332   4.598   3.442   1.396 -0.4119 -0.0342  0.3701
 5614TIP3    H138333   4.593   3.348   1.407 -1.1757 -0.0144  0.2304
 5614TIP3    H238334   4.687   3.458   1.363  0.3997 -0.4962  2.2638
 5615TIP3   OH238335   0.837   0.437   1.596  0.1448  0.5607  0.7444
 5615TIP3    H138336   0.768   0.430   1.530  1.2415 -0.1682 -0.3326
 5615TIP3    H238337   0.857   0.530   1.600  0.4835  0.5507 -0.3972
 5616TIP3   OH238338   1.099   6.768  15.904  0.4057 -0.3992 -0.1149
 5616TIP3    H138339   1.017   6.813  15.886 -0.6761 -2.5816 -0.7949
 5616TIP3    H238340   1.124   6.729  15.820  0.7072 -2.0087  0.6917
 5617TIP3   OH238341   3.354   3.123  13.941  0.0922  0.6058 -0.2909
 5617TIP3    H138342   3.299   3.061  13.987  0.8300  0.0785 -0.1051
 5617TIP3    H238343   3.403   3.168  14.010  0.9550  0.0489 -0.5329
 5618TIP3   OH238344   0.169   2.115  12.622 -0.2888 -0.0025 -0.1022
 5618TIP3    H138345   0.075   2.133  12.628 -0.2484  0.2289 -0.1624
 5618TIP3    H238346   0.209   2.173  12.687 -0.1224  0.4085 -0.5677
 5619TIP3   OH238347   6.593   6.632  11.699 -0.0180  0.1263 -0.2465
 5619TIP3    H138348   6.521   6.682  11.661  0.3324 -0.1420 -1.2808
 5619TIP3    H238349   6.627   6.579  11.626 -0.0545 -1.2398  0.7034
 5620TIP3   OH238350   1.209   0.863  11.809  0.0263 -0.3117 -0.3667
 5620TIP3    H138351   1.228   0.771  11.792  0.4356 -0.2845 -0.0620
 5620TIP3    H238352   1.192   0.901  11.722 -1.6312 -0.9940 -0.3599
 5621TIP3   OH238353   4.940   3.003  11.888  0.4910 -0.3583  0.2438
 5621TIP3    H138354   4.862   3.010  11.834 -0.2152  0.3095  1.3487
 5621TIP3    H238355   4.970   2.913  11.876 -0.2285 -0.4991 -0.4770
 5622TIP3   OH238356   1.015   3.940   3.932  0.0142 -0.2303 -0.4564
 5622TIP3    H138357   1.021   4.032   3.959  0.0150 -0.2014 -0.5566
 5622TIP3    H238358   0.928   3.932   3.895 -0.3562 -0.5071  0.4564
 5623TIP3   OH238359   0.641   6.286   2.836 -0.1748  0.1828 -0.4437
 5623TIP3    H138360   0.572   6.241   2.789  0.1711 -0.5287 -0.2727
 5623TIP3    H238361   0.611   6.288   2.927 -0.3682  0.6400 -0.5175
 5624TIP3   OH238362   0.486   0.656  15.384 -0.4643  0.0708 -0.3555
 5624TIP3    H138363   0.519   0.609  15.461  1.0310 -0.8624 -1.5385
 5624TIP3    H238364   0.400   0.688  15.411  0.0776 -0.1470  1.7422
 5625TIP3   OH238365   1.851   4.446  16.593 -0.2489  0.1831  0.0425
 5625TIP3    H138366   1.762   4.411  16.586 -0.6277  1.2357 -0.5358
 5625TIP3    H238367   1.893   4.392  16.659 -1.3834 -0.1979  0.4594
 5626TIP3   OH238368   4.106   6.783  16.413  0.3309 -0.6426  0.3624
 5626TIP3    H138369   4.078   6.848  16.348 -0.0420 -1.8363 -0.6894
 5626TIP3    H238370   4.038   6.716  16.411  0.4999 -0.8737  1.7397
 5627TIP3   OH238371   3.660   4.669   2.525 -0.7233  0.2920 -0.3520
 5627TIP3    H138372   3.678   4.619   2.446  1.2629  1.5646 -0.7131
 5627TIP3    H238373   3.700   4.754   2.511 -0.3428  0.5530  2.0032
 5628TIP3   OH238374   3.354   2.204  11.297  0.4565 -0.3422 -0.5134
 5628TIP3    H138375   3.377   2.208  11.204  1.5670 -0.8600 -0.2620
 5628TIP3    H238376   3.274   2.256  11.303 -0.0091 -0.8662 -1.8781
 5629TIP3   OH238377   3.798   5.444   5.447 -0.3586  0.0978 -0.4449
 5629TIP3    H138378   3.841   5.401   5.373 -0.3008  0.2631 -0.5096
 5629TIP3    H238379   3.707   5.417   5.441  0.0514 -1.5364  0.6325
 5630TIP3   OH238380   5.627   0.146  14.336 -0.0170  0.2863  0.2293
 5630TIP3    H138381   5.659   0.169  14.249 -0.1989  0.9437  0.3350
 5630TIP3    H238382   5.561   0.213  14.356 -0.7303 -0.4696  0.4339
 5631TIP3   OH238383   2.207   6.633  13.009  0.0384  0.1599  0.2827
 5631TIP3    H138384   2.152   6.557  13.027 -0.1510  0.6990  2.1297
 5631TIP3    H238385   2.288   6.615  13.057 -0.1442  1.2797  1.0342
 5632TIP3   OH238386   2.438   5.438  16.506  0.3131 -0.5987  0.8433
 5632TIP3    H138387   2.475   5.497  16.572  0.4182 -0.1330  0.3789
 5632TIP3    H238388   2.506   5.430  16.440 -1.3575  2.4440 -1.3842
 5633TIP3   OH238389   1.834   1.457   1.458  0.8039 -0.0561 -0.1636
 5633TIP3    H138390   1.828   1.469   1.553  0.8881 -1.4291  0.0192
 5633TIP3    H238391   1.744   1.465   1.427  0.9857  2.1538 -0.1938
 5634TIP3   OH238392   0.996   2.721   1.878 -0.3045  0.7287 -0.0679
 5634TIP3    H138393   0.905   2.748   1.864 -0.9882 -1.5867 -0.3054
 5634TIP3    H238394   0.989   2.641   1.929  1.5368 -0.3227 -1.4082
 5635TIP3   OH238395   0.935   3.618   5.589 -0.0736  0.8018  0.7145
 5635TIP3    H138396   0.848   3.631   5.552 -0.7925 -1.9331  1.2581
 5635TIP3    H238397   0.928   3.649   5.679 -0.4361  0.7848  0.6912
 5636TIP3   OH238398   5.169   5.893  14.808 -0.6097 -0.1007  0.2857
 5636TIP3    H138399   5.131   5.980  14.817 -0.3319  0.1345 -0.7924
 5636TIP3    H238400   5.094   5.833  14.814 -0.8512  0.2296  0.5826
 5637TIP3   OH238401   0.502   1.601  14.324 -0.5223 -0.3186  0.2061
 5637TIP3    H138402   0.465   1.653  14.395 -0.6299  0.4729 -0.4213
 5637TIP3    H238403   0.535   1.666  14.262 -2.5384 -0.9559 -1.5919
 5638TIP3   OH238404   6.718   0.236  17.192  0.0950 -0.4693  0.5458
 5638TIP3    H138405   6.736   0.142  17.200 -0.2121 -0.8793 -2.9076
 5638TIP3    H238406   6.638   0.241  17.139  2.8207  1.7773 -3.5866
 5639TIP3   OH238407   2.451   3.515   3.900 -0.7587  0.4170  0.3127
 5639TIP3    H138408   2.412   3.540   3.983 -0.0413 -1.0398  1.1026
 5639TIP3    H238409   2.508   3.442   3.921  1.7247  1.9103 -0.9486
 5640TIP3   OH238410   1.325   0.916  14.587 -0.7762 -0.2902  0.3943
 5640TIP3    H138411   1.401   0.863  14.610  1.0263  0.5794 -3.0975
 5640TIP3    H238412   1.272   0.859  14.531 -1.5937 -0.1726  1.0410
 5641TIP3   OH238413   6.094   2.268   2.550 -1.1331  0.4797 -0.4231
 5641TIP3    H138414   6.161   2.258   2.483  0.5568  0.7952  1.1791
 5641TIP3    H238415   6.058   2.356   2.536  0.2246  1.1070 -0.0242
 5642TIP3   OH238416   3.921   5.430  11.317  0.7154 -0.2617  0.1320
 5642TIP3    H138417   3.966   5.489  11.257  0.2982  0.2523  0.3238
 5642TIP3    H238418   3.931   5.471  11.403  0.6226 -0.5864  0.2988
 5643TIP3   OH238419   3.583   5.816   2.941 -0.6310  0.4189  0.1092
 5643TIP3    H138420   3.558   5.803   2.850 -0.0014 -0.1522  0.0141
 5643TIP3    H238421   3.603   5.909   2.948  0.6381  0.2059 -0.6589
 5644TIP3   OH238422   6.006   6.472  15.244  0.2679  0.6669  0.0762
 5644TIP3    H138423   5.938   6.470  15.177 -0.2658 -0.1590  0.6223
 5644TIP3    H238424   6.068   6.405  15.217  0.0910  0.3850  0.3635
 5645TIP3   OH238425   5.787   2.207  11.982 -0.1397  0.2778  0.5590
 5645TIP3    H138426   5.806   2.243  12.069  1.4169 -1.5035  0.9798
 5645TIP3    H238427   5.861   2.234  11.928 -1.2968  1.7199 -0.3435
 5646TIP3   OH238428   3.622   5.450  15.518  0.2194  0.2140 -0.3986
 5646TIP3    H138429   3.586   5.525  15.565  0.6632 -0.0283  0.3488
 5646TIP3    H238430   3.664   5.487  15.441 -0.8500  0.5875 -0.8053
 5647TIP3   OH238431   1.290   2.692  11.595  0.3611 -0.3144 -0.2195
 5647TIP3    H138432   1.268   2.709  11.503  1.0114  1.4413 -0.0828
 5647TIP3    H238433   1.375   2.735  11.607  0.7050 -1.3012  0.9682
 5648TIP3   OH238434   3.380   6.573   2.960 -0.2896  0.2101 -0.0491
 5648TIP3    H138435   3.421   6.653   2.929 -0.3009 -0.3845 -1.7042
 5648TIP3    H238436   3.290   6.598   2.982 -0.8108  0.3579 -2.1797
 5649TIP3   OH238437   3.804   2.249  12.081  0.5718  0.7740  0.8627
 5649TIP3    H138438   3.816   2.180  12.016  0.5761  1.0972  0.5187
 5649TIP3    H238439   3.711   2.245  12.103  0.9723 -0.6631  2.3312
 5650TIP3   OH238440   6.743   1.044   5.666  0.0656 -0.0951  0.3312
 5650TIP3    H138441   6.752   0.977   5.599  1.8310  0.5280 -0.0957
 5650TIP3    H238442   6.650   1.045   5.688 -0.1955 -1.6985 -0.6595
 5651TIP3   OH238443   5.690   0.284  14.081 -0.4239  0.1142 -0.0706
 5651TIP3    H138444   5.653   0.274  13.994 -1.7394 -2.8768  0.7640
 5651TIP3    H238445   5.774   0.327  14.067 -1.1827  0.8485 -2.6439
 5652TIP3   OH238446   6.153   5.235   2.189  0.2338  0.0399 -0.1775
 5652TIP3    H138447   6.127   5.146   2.212  0.1701  0.1683  0.2514
 5652TIP3    H238448   6.249   5.234   2.189  0.2363 -0.2032 -0.8607
 5653TIP3   OH238449   4.585   2.607  13.408 -0.5014 -0.3537 -0.4812
 5653TIP3    H138450   4.636   2.529  13.387  0.7520  0.0581  0.9087
 5653TIP3    H238451   4.640   2.654  13.471 -3.4653 -0.9122  2.6369
 5654TIP3   OH238452   6.057   6.191   1.880 -0.2759 -0.3810 -0.2607
 5654TIP3    H138453   6.146   6.226   1.883 -0.7524  0.8097  0.3783
 5654TIP3    H238454   6.068   6.099   1.857  1.1738 -0.4449  0.6299
 5655TIP3   OH238455   6.426   3.670   0.704  0.2238  0.2177 -0.2904
 5655TIP3    H138456   6.393   3.740   0.647  0.2890 -0.8236 -1.6343
 5655TIP3    H238457   6.430   3.593   0.647 -0.1057 -0.9506  1.2452
 5656TIP3   OH238458   6.476   4.972  13.883 -0.1724 -0.1161 -0.0202
 5656TIP3    H138459   6.550   4.911  13.884 -0.2533 -0.1950  1.1696
 5656TIP3    H238460   6.433   4.959  13.967 -1.0903  0.4968 -0.3868
 5657TIP3   OH238461   0.837   1.188  15.602  0.3345  0.1428  0.3060
 5657TIP3    H138462   0.822   1.154  15.690 -2.1300  0.2767 -0.0135
 5657TIP3    H238463   0.838   1.110  15.546 -1.1499  0.2608  0.0933
 5658TIP3   OH238464   6.676   3.681   5.770  0.3825 -0.0003  0.5235
 5658TIP3    H138465   6.739   3.728   5.715 -0.5692  0.9059  0.1915
 5658TIP3    H238466   6.622   3.750   5.809  0.3213 -0.7066  1.7094
 5659TIP3   OH238467   4.497   6.002  16.858 -0.3369  0.3068 -0.3616
 5659TIP3    H138468   4.482   6.096  16.850  1.4010  0.5196 -1.5589
 5659TIP3    H238469   4.590   5.992  16.837 -0.3988 -1.6283  0.2405
 5660TIP3   OH238470   3.786   2.893   0.763 -0.2300  0.5575 -0.3201
 5660TIP3    H138471   3.749   2.979   0.742  0.4225  1.1479  0.9445
 5660TIP3    H238472   3.713   2.845   0.803  0.2823  1.6220  1.9045
 5661TIP3   OH238473   5.928   4.282  12.370 -0.9368  0.4720  0.3571
 5661TIP3    H138474   5.845   4.281  12.418 -1.1062  0.6962  0.0722
 5661TIP3    H238475   5.921   4.359  12.313 -2.1149 -1.6542 -2.4743
 5662TIP3   OH238476   0.207   5.608   6.240 -0.3869 -0.5698  0.1932
 5662TIP3    H138477   0.245   5.638   6.323 -0.6473  2.4802 -0.7384
 5662TIP3    H238478   0.204   5.686   6.185 -3.5254 -1.7672 -1.4778
 5663TIP3   OH238479   0.544   5.167   0.542  1.0176  0.0340  0.1391
 5663TIP3    H138480   0.486   5.094   0.518  1.0101 -0.0850  0.5198
 5663TIP3    H238481   0.537   5.228   0.469 -1.1846  1.0062  1.1477
 5664TIP3   OH238482   3.827   3.145  16.755  0.1898 -0.1966  0.0850
 5664TIP3    H138483   3.852   3.053  16.755  1.2916  0.0989 -0.5901
 5664TIP3    H238484   3.736   3.145  16.725  0.3194 -1.0260 -0.3114
 5665TIP3   OH238485   2.335   3.224   4.767 -0.6785  0.1767 -0.2526
 5665TIP3    H138486   2.404   3.258   4.710  0.4030  1.3381  1.6802
 5665TIP3    H238487   2.371   3.143   4.803  0.0926  1.2620  1.4790
 5666TIP3   OH238488   3.092   1.640   6.249 -0.2263  0.1609  0.8826
 5666TIP3    H138489   3.132   1.568   6.200 -1.1087  0.4700 -0.3163
 5666TIP3    H238490   3.156   1.711   6.246  0.7644 -0.6449  2.2955
 5667TIP3   OH238491   4.428   6.002   2.961 -0.5294  0.1666 -0.3922
 5667TIP3    H138492   4.384   5.953   2.892 -2.1176 -1.1865  1.5647
 5667TIP3    H238493   4.364   6.066   2.991 -0.7735 -0.9883  1.6190
 5668TIP3   OH238494   4.961   0.589  11.742 -0.1446  0.1823  0.1512
 5668TIP3    H138495   4.909   0.667  11.725 -2.4344 -1.6813 -1.6854
 5668TIP3    H238496   4.901   0.530  11.789  1.5990 -0.4332  1.6766
 5669TIP3   OH238497   5.514   2.266  12.016  0.4377 -0.4009 -0.4416
 5669TIP3    H138498   5.605   2.250  11.990  0.5891 -0.7788  0.3134
 5669TIP3    H238499   5.489   2.346  11.969  0.5764 -1.2847 -2.0701
 5670TIP3   OH238500   5.929   4.054  11.615  0.4778  0.0624  0.1589
 5670TIP3    H138501   5.883   4.138  11.620 -1.1856 -0.6917 -1.9156
 5670TIP3    H238502   5.996   4.068  11.548 -0.6509 -0.6310 -1.1370
 5671TIP3   OH238503   4.096   6.612  16.784  0.0702 -0.1284 -0.4602
 5671TIP3    H138504   4.069   6.563  16.862 -0.3494  1.1134  0.1810
 5671TIP3    H238505   4.094   6.547  16.713 -1.6142 -0.7779  0.1568
 5672TIP3   OH238506   4.196   2.000  11.253  0.1779  0.2230 -0.1122
 5672TIP3    H138507   4.254   1.959  11.189 -0.6454  0.5546 -1.0798
 5672TIP3    H238508   4.109   1.966  11.232 -0.2553  1.1450  0.1569
 5673TIP3   OH238509   1.221   1.263   1.408  0.0990  0.2256  0.1729
 5673TIP3    H138510   1.256   1.175   1.423 -2.7229 -1.0299 -0.2577
 5673TIP3    H238511   1.207   1.267   1.313 -0.2987  0.9198  0.2579
 5674TIP3   OH238512   2.181   2.074   1.479 -0.0203  0.0716 -0.6256
 5674TIP3    H138513   2.205   2.163   1.450  0.4409  0.3455  0.5704
 5674TIP3    H238514   2.090   2.064   1.452  0.6041  0.0326 -2.8256
 5675TIP3   OH238515   5.093   4.020   3.212 -0.4480  0.0673  0.2290
 5675TIP3    H138516   5.032   3.961   3.169 -0.2392  0.2746 -0.3565
 5675TIP3    H238517   5.037   4.090   3.248 -0.5409  0.3859 -0.5141
 5676TIP3   OH238518   3.789   3.007   1.884 -0.1838 -0.0604 -0.3957
 5676TIP3    H138519   3.873   2.966   1.905 -1.3580 -1.5547  1.5717
 5676TIP3    H238520   3.767   3.058   1.962 -2.2772 -1.7118  0.1372
 5677TIP3   OH238521   2.425   4.643   3.695  0.0032  0.6018  0.1601
 5677TIP3    H138522   2.332   4.623   3.690  0.0601  0.0851  1.0093
 5677TIP3    H238523   2.457   4.631   3.606 -0.4302 -0.7916  0.1766
 5678TIP3   OH238524   4.329   4.879  16.831 -0.0936  0.4494  0.0990
 5678TIP3    H138525   4.416   4.858  16.797 -0.5020 -0.1660 -0.5920
 5678TIP3    H238526   4.345   4.915  16.918  0.8747  0.6823 -0.1663
 5679TIP3   OH238527   5.694   1.386   0.281 -0.1500  0.5474 -0.3034
 5679TIP3    H138528   5.782   1.349   0.277  1.2769  3.5765  1.2726
 5679TIP3    H238529   5.679   1.420   0.193  0.5948  0.7500 -0.3559
 5680TIP3   OH238530   0.175   4.539  15.468 -0.0235  0.1261 -0.3766
 5680TIP3    H138531   0.193   4.623  15.425 -0.7356  0.5125  0.0669
 5680TIP3    H238532   0.233   4.539  15.545 -0.9778  0.8030  0.3498
 5681TIP3   OH238533   2.027   5.936   1.088 -0.7246 -0.1191  0.2742
 5681TIP3    H138534   1.969   5.872   1.047  1.4986 -1.6606 -0.5034
 5681TIP3    H238535   2.053   5.994   1.017 -1.5517  0.7723  0.6881
 5682TIP3   OH238536   0.641   2.110   1.235 -0.2817  0.4126  0.2700
 5682TIP3    H138537   0.571   2.116   1.300 -1.1797  0.0380 -0.6516
 5682TIP3    H238538   0.598   2.128   1.152  0.4949 -0.9174 -0.4396
 5683TIP3   OH238539   2.530   1.974  13.648 -0.0739  1.0650 -0.4057
 5683TIP3    H138540   2.623   1.957  13.661  0.0479  0.7258 -1.6860
 5683TIP3    H238541   2.488   1.889  13.657 -0.2521  1.1907 -0.0008
 5684TIP3   OH238542   5.016   1.491   5.845  0.3564  0.0633 -0.2347
 5684TIP3    H138543   5.057   1.574   5.868 -1.1535  0.8028 -0.1758
 5684TIP3    H238544   5.017   1.441   5.927  4.3833 -1.3751 -1.0457
 5685TIP3   OH238545   3.196   3.883  16.825  0.0403  0.1254  0.1679
 5685TIP3    H138546   3.166   3.965  16.785 -2.0998 -0.0161  1.3902
 5685TIP3    H238547   3.121   3.853  16.876  0.8074 -2.6215 -0.2767
 5686TIP3   OH238548   4.313   3.262  16.433 -0.0347 -0.1914  0.0944
 5686TIP3    H138549   4.226   3.269  16.473 -0.1464  0.1830 -0.2163
 5686TIP3    H238550   4.371   3.245  16.507 -0.0029  2.2175  0.6682
 5687TIP3   OH238551   2.313   2.416  12.048  0.1283 -0.1261  0.3015
 5687TIP3    H138552   2.257   2.339  12.055 -0.2872  0.0659 -0.8148
 5687TIP3    H238553   2.374   2.408  12.121  0.1169 -1.5266  0.1643
 5688TIP3   OH238554   1.931   6.090  14.029  0.4917 -0.6604 -0.2984
 5688TIP3    H138555   1.862   6.152  14.005  0.1033 -0.8562  0.2996
 5688TIP3    H238556   2.004   6.145  14.057  0.2263 -0.4622  0.0168
 5689TIP3   OH238557   3.168   2.668  16.721 -0.4018  0.3357 -0.0006
 5689TIP3    H138558   3.102   2.660  16.789  0.3170  1.7360  0.8887
 5689TIP3    H238559   3.133   2.735  16.661 -2.0226 -2.3845 -2.2198
 5690TIP3   OH238560   5.105   0.019  17.250 -0.1302 -0.6583  0.1292
 5690TIP3    H138561   5.159   0.086  17.292 -1.1696 -1.7074  3.3182
 5690TIP3    H238562   5.167  -0.052  17.230  0.5451  0.2483 -1.0789
 5691TIP3   OH238563   4.559   0.682   0.775 -0.4506  0.1163 -0.2741
 5691TIP3    H138564   4.520   0.599   0.802 -0.5646 -0.4284 -2.0457
 5691TIP3    H238565   4.645   0.658   0.740  0.5602  1.0489  1.4949
 5692TIP3   OH238566   6.541   5.281  16.593 -0.0353 -0.3182 -0.3706
 5692TIP3    H138567   6.475   5.306  16.658  0.0814  0.5294 -0.5681
 5692TIP3    H238568   6.565   5.191  16.616 -2.2880 -1.1671 -1.1399
 5693TIP3   OH238569   2.602   5.004  16.268  0.6650 -0.0163  0.2143
 5693TIP3    H138570   2.604   5.042  16.180  2.1870  0.9579  0.6441
 5693TIP3    H238571   2.644   4.919  16.259 -0.4033 -0.5023 -0.2505
 5694TIP3   OH238572   2.590   0.543   3.658 -0.6202 -0.4559 -0.3586
 5694TIP3    H138573   2.548   0.525   3.742  2.4079  0.9727  1.5630
 5694TIP3    H238574   2.677   0.502   3.666  0.8727  2.3190 -1.5299
 5695TIP3   OH238575   5.567   3.955   3.674  0.2068  0.7660  0.1400
 5695TIP3    H138576   5.577   4.042   3.712 -2.3364  1.9487 -1.7410
 5695TIP3    H238577   5.481   3.926   3.705 -0.0730  0.0073 -1.3263
 5696TIP3   OH238578   4.818   0.294  17.287 -0.1341  0.2624  0.0654
 5696TIP3    H138579   4.759   0.325  17.219 -0.4088  0.7081  0.5020
 5696TIP3    H238580   4.906   0.308  17.252 -0.2706  0.7613 -0.0796
 5697TIP3   OH238581   5.764   2.223   3.285  0.0825 -0.3139 -0.1030
 5697TIP3    H138582   5.683   2.177   3.303  0.0825 -0.4873 -0.5306
 5697TIP3    H238583   5.833   2.160   3.307  0.0901 -0.3527 -0.2335
 5698TIP3   OH238584   1.185   6.344  13.839 -0.0468  0.1317  0.4219
 5698TIP3    H138585   1.227   6.381  13.761 -0.1035 -1.7275 -0.5339
 5698TIP3    H238586   1.250   6.353  13.908  0.8246 -0.1170 -0.3599
 5699TIP3   OH238587   0.287   4.547  10.743  0.3405  0.4589  0.1069
 5699TIP3    H138588   0.240   4.511  10.668 -3.1115  1.0029  1.8999
 5699TIP3    H238589   0.307   4.470  10.797  0.9855  0.2872 -0.3763
 5700TIP3   OH238590   5.009   0.560   1.953  0.1840  0.0376  0.2388
 5700TIP3    H138591   4.967   0.475   1.966 -0.5019  0.3218 -0.0717
 5700TIP3    H238592   4.975   0.591   1.869  0.7877  0.4123  0.1284
 5701TIP3   OH238593   3.981   0.193  11.124  0.0197  0.6257 -0.6943
 5701TIP3    H138594   3.948   0.145  11.200 -1.3281 -0.0603 -1.6808
 5701TIP3    H238595   4.076   0.192  11.134 -0.0916 -0.4586  0.3821
 5702TIP3   OH238596   1.538   0.677  13.409  0.2114 -0.2187 -0.9026
 5702TIP3    H138597   1.585   0.595  13.397 -2.4277 -1.9437 -0.0319
 5702TIP3    H238598   1.466   0.672  13.346 -0.3145  1.1721 -0.4289
 5703TIP3   OH238599   4.330   6.120  12.851 -0.4244 -0.1627 -0.6161
 5703TIP3    H138600   4.265   6.154  12.913 -1.2151 -1.3002 -0.8154
 5703TIP3    H238601   4.404   6.181  12.859 -0.4928 -0.3151  1.4610
 5704TIP3   OH238602   5.287   2.968   1.958  0.0005  0.2357 -0.0197
 5704TIP3    H138603   5.338   2.899   1.915  0.4970 -0.3607  1.4970
 5704TIP3    H238604   5.203   2.926   1.978 -0.0237  0.3416  0.0992
 5705TIP3   OH238605   1.140   1.786  13.373 -0.1790 -0.3211  0.2808
 5705TIP3    H138606   1.138   1.716  13.308 -0.8529 -0.4034  0.3854
 5705TIP3    H238607   1.048   1.798  13.399  0.1188 -0.5706  1.5148
 5706TIP3   OH238608   3.375   3.941   2.054 -0.3590 -0.7277 -0.4138
 5706TIP3    H138609   3.426   4.015   2.022  1.0372 -0.6244  1.9523
 5706TIP3    H238610   3.417   3.864   2.015 -0.3677 -0.4363 -1.0023
 5707TIP3   OH238611   3.893   4.764  12.324  0.2573  0.7289 -0.1903
 5707TIP3    H138612   3.984   4.736  12.317  0.3835  1.3674 -1.3722
 5707TIP3    H238613   3.873   4.759  12.417  1.7186  1.2321  0.1657
 5708TIP3   OH238614   4.695   2.284   5.757  0.1898 -0.5204  0.2323
 5708TIP3    H138615   4.675   2.207   5.811  2.2194 -0.6597  0.8479
 5708TIP3    H238616   4.614   2.335   5.756 -0.8705 -2.1409  0.6858
 5709TIP3   OH238617   1.964   5.960  15.109  0.1325 -0.1790  0.4777
 5709TIP3    H138618   1.881   6.007  15.116  0.3588  0.4000 -0.5423
 5709TIP3    H238619   1.986   5.965  15.016  1.0308 -0.8129  0.6535
 5710TIP3   OH238620   6.768   6.053   1.140 -0.4022 -0.2914  0.1527
 5710TIP3    H138621   6.849   6.034   1.092 -0.8322  0.8526 -1.0210
 5710TIP3    H238622   6.756   6.147   1.131 -0.3511 -0.0045  2.7358
 5711TIP3   OH238623   4.554   1.841  14.242  0.1605 -0.4366  0.3773
 5711TIP3    H138624   4.498   1.837  14.164  0.1242  0.9519  0.3114
 5711TIP3    H238625   4.567   1.750  14.267  0.8653 -0.9401 -1.7565
 5712TIP3   OH238626   3.395   5.454   2.011  0.4416 -0.9982  0.0418
 5712TIP3    H138627   3.480   5.417   1.987  0.8453 -1.3196  1.8801
 5712TIP3    H238628   3.352   5.385   2.061 -0.9605 -0.8714 -0.9499
 5713TIP3   OH238629   0.796   0.058  14.459 -0.0850 -0.0844 -0.3365
 5713TIP3    H138630   0.718   0.019  14.499  0.0513 -0.0004  0.0141
 5713TIP3    H238631   0.861  -0.013  14.461 -0.1367 -0.1362 -0.5731
 5714TIP3   OH238632   5.573   4.347   2.544  0.9720 -0.6765 -0.5230
 5714TIP3    H138633   5.585   4.425   2.599  1.2591 -1.2718  0.2753
 5714TIP3    H238634   5.609   4.371   2.459  1.0423  0.0657 -0.2874
 5715TIP3   OH238635   2.265   4.017  16.659 -0.2303  0.0769  0.3039
 5715TIP3    H138636   2.214   4.091  16.690 -1.4570 -0.5683 -0.1410
 5715TIP3    H238637   2.355   4.036  16.687 -0.7448  1.1189  1.2701
 5716TIP3   OH238638   2.173   5.025   5.291 -0.0865 -0.0194  0.1796
 5716TIP3    H138639   2.209   4.987   5.371  0.2311  0.3116  0.1957
 5716TIP3    H238640   2.125   4.953   5.249  0.3022 -0.3669  0.3324
 5717TIP3   OH238641   6.451   1.895  12.869  0.1182 -0.1362 -0.1252
 5717TIP3    H138642   6.471   1.952  12.794 -0.5753  3.4810  2.2732
 5717TIP3    H238643   6.534   1.886  12.916 -0.2392  0.9370  0.7548
 5718TIP3   OH238644   4.474   5.781   4.546  0.2094  0.3051 -0.2587
 5718TIP3    H138645   4.529   5.831   4.486  0.1005 -1.0886 -1.5444
 5718TIP3    H238646   4.536   5.724   4.592  0.2322  1.0306  0.6251
 5719TIP3   OH238647   0.258   3.704  14.596  0.1309 -0.4102 -0.0042
 5719TIP3    H138648   0.229   3.709  14.505  0.9681 -0.2903 -0.2754
 5719TIP3    H238649   0.335   3.761  14.599  1.3991 -2.1053  0.2619
 5720TIP3   OH238650   4.073   4.603   4.516  0.1797 -0.0345 -0.1078
 5720TIP3    H138651   3.982   4.603   4.547  0.0994 -1.4720 -0.3008
 5720TIP3    H238652   4.090   4.694   4.491 -0.8369  0.4766  1.0033
 5721TIP3   OH238653   0.561   2.128  14.925 -0.2833  0.3858 -0.2893
 5721TIP3    H138654   0.614   2.125  15.005  0.1154  2.9482 -0.4051
 5721TIP3    H238655   0.475   2.157  14.954 -0.2400  0.9593 -0.7183
 5722TIP3   OH238656   3.195   5.987  13.873 -0.2015  0.0656  0.0533
 5722TIP3    H138657   3.123   5.941  13.829 -0.5501  0.1816  0.5038
 5722TIP3    H238658   3.257   5.918  13.896 -0.0304 -0.0034 -0.5860
 5723TIP3   OH238659   4.901   6.682  11.178  0.0576  0.1321 -0.2724
 5723TIP3    H138660   4.966   6.613  11.172 -0.4910 -0.2174 -2.8465
 5723TIP3    H238661   4.817   6.638  11.164 -0.2718  1.3201 -2.2301
 5724TIP3   OH238662   4.591   0.555   6.241  0.1231 -0.2953 -0.3438
 5724TIP3    H138663   4.561   0.611   6.170  1.3090 -0.1328 -0.7258
 5724TIP3    H238664   4.666   0.507   6.204  0.6390 -0.3379  0.7348
 5725TIP3   OH238665   5.259   1.786  13.628  0.0180 -0.8224  0.0947
 5725TIP3    H138666   5.246   1.876  13.658 -2.0514 -1.2157  0.4798
 5725TIP3    H238667   5.317   1.748  13.694  1.0308  0.2617 -0.1532
 5726TIP3   OH238668   3.081   4.431   4.441  0.3694 -0.5036 -0.7107
 5726TIP3    H138669   3.065   4.369   4.511  0.7303  0.9510  0.6994
 5726TIP3    H238670   3.175   4.422   4.421  0.3592 -0.6237 -0.7002
 5727TIP3   OH238671   0.336   1.787  13.857  0.3606 -0.4413  0.4774
 5727TIP3    H138672   0.329   1.822  13.946  0.1326 -1.0111  0.6801
 5727TIP3    H238673   0.297   1.854  13.802  1.8310  0.5909  0.6508
 5728TIP3   OH238674   5.450   6.321   4.362 -0.0588 -0.1972 -0.1484
 5728TIP3    H138675   5.387   6.252   4.342  1.1261 -1.7236  1.2407
 5728TIP3    H238676   5.477   6.354   4.276 -2.6048  0.3877 -0.7614
 5729TIP3   OH238677   2.825   1.751  12.029 -0.1203 -0.4311  0.0685
 5729TIP3    H138678   2.886   1.709  11.969 -0.5361 -2.8280  1.2443
 5729TIP3    H238679   2.825   1.843  12.003  0.8595 -1.1235 -2.5850
 5730TIP3   OH238680   0.725   5.585   5.424  0.2313  0.0348 -0.0772
 5730TIP3    H138681   0.733   5.570   5.330  0.5926  1.3900 -0.2758
 5730TIP3    H238682   0.637   5.622   5.435  1.9211  4.5896 -0.5759
 5731TIP3   OH238683   5.332   3.636  12.473 -0.0050 -0.0838  0.8241
 5731TIP3    H138684   5.388   3.654  12.549 -0.3425 -1.8621  1.5133
 5731TIP3    H238685   5.296   3.549  12.490 -2.1430  0.5908 -0.1358
 5732TIP3   OH238686   1.171   0.316   5.615 -0.1942 -0.7684 -0.0964
 5732TIP3    H138687   1.235   0.262   5.569  1.1981 -0.3409  1.3088
 5732TIP3    H238688   1.201   0.406   5.600 -0.9311 -0.5270 -0.1160
 5733TIP3   OH238689   4.292   0.964  12.409 -0.0814 -0.4991 -0.1236
 5733TIP3    H138690   4.291   0.989  12.502 -0.2524  0.2298 -0.3160
 5733TIP3    H238691   4.334   0.878  12.408  0.8647 -0.0554  0.5113
 5734TIP3   OH238692   2.869   3.417   4.714 -0.1595 -0.3351 -0.0907
 5734TIP3    H138693   2.825   3.479   4.657  0.3867  0.4719  0.3519
 5734TIP3    H238694   2.898   3.346   4.656  1.3308  0.9815 -1.0051
 5735TIP3   OH238695   1.857   6.541   4.699  0.2601 -0.6027 -0.3333
 5735TIP3    H138696   1.779   6.492   4.725 -0.5702  0.3568 -0.9713
 5735TIP3    H238697   1.826   6.631   4.688  1.8133  0.1062  1.0294
 5736TIP3   OH238698   3.045   5.881   4.520 -0.6402 -0.1667 -0.6942
 5736TIP3    H138699   3.042   5.969   4.483 -0.4294  0.4626  0.7129
 5736TIP3    H238700   2.960   5.843   4.499 -1.6999  1.2806  0.7755
 5737TIP3   OH238701   5.299   2.784  16.051  0.0872  0.0940 -0.1021
 5737TIP3    H138702   5.273   2.875  16.068  1.6145  0.8386 -1.5652
 5737TIP3    H238703   5.308   2.745  16.138  0.7230  1.7405  0.5890
 5738TIP3   OH238704   6.727   6.649  13.290  0.0523 -0.5393 -0.3998
 5738TIP3    H138705   6.678   6.590  13.348  0.9816 -1.4699 -0.5357
 5738TIP3    H238706   6.781   6.590  13.236  0.3022  0.3902 -1.1827
 5739TIP3   OH238707   5.769   2.009   0.594  0.2921 -0.0579 -0.0026
 5739TIP3    H138708   5.819   1.981   0.671 -1.8589 -1.2487  1.0023
 5739TIP3    H238709   5.775   1.936   0.534 -0.3474 -0.2672  0.1829
 5740TIP3   OH238710   5.131   2.817  14.533 -0.9992  0.4002 -0.0889
 5740TIP3    H138711   5.107   2.908  14.550 -0.6316  0.2915  1.0169
 5740TIP3    H238712   5.184   2.791  14.608 -1.0768 -0.7178 -0.4104
 5741TIP3   OH238713   4.972   2.674  11.902  0.2602 -0.4122  0.4075
 5741TIP3    H138714   5.059   2.672  11.942  0.7727  0.8572 -0.5989
 5741TIP3    H238715   4.912   2.668  11.976  1.2069  0.1304  1.2431
 5742TIP3   OH238716   5.192   0.841  15.573  0.3232 -0.2218 -0.0483
 5742TIP3    H138717   5.154   0.920  15.611  0.0110  0.3494 -1.5105
 5742TIP3    H238718   5.117   0.785  15.555  0.4000 -0.1741 -0.5229
 5743TIP3   OH238719   5.511   0.183   2.287  0.5398  0.1479  0.3460
 5743TIP3    H138720   5.603   0.171   2.310  0.6629 -0.4864 -0.4767
 5743TIP3    H238721   5.506   0.274   2.256  1.2195 -0.2992 -1.1325
 5744TIP3   OH238722   4.499   1.400   2.728  0.1346 -0.1168 -0.9014
 5744TIP3    H138723   4.526   1.308   2.735  2.2253  0.6239  1.5409
 5744TIP3    H238724   4.499   1.418   2.634  3.1509 -1.6573 -1.2681
 5745TIP3   OH238725   3.095   4.723  14.883  0.4929  0.2636  0.8200
 5745TIP3    H138726   3.019   4.701  14.937  0.4881  0.6221  0.9629
 5745TIP3    H238727   3.163   4.746  14.947  0.4044  0.9599  0.6662
 5746TIP3   OH238728   4.317   0.659   6.141 -0.2139 -0.3929  0.0029
 5746TIP3    H138729   4.335   0.577   6.187 -0.5222 -1.4492 -1.7339
 5746TIP3    H238730   4.226   0.652   6.113 -0.6786  1.1655  1.0703
 5747TIP3   OH238731   2.050   1.847   2.497 -0.4127 -0.0804 -0.0942
 5747TIP3    H138732   2.090   1.905   2.562 -0.1306  0.6293 -0.8938
 5747TIP3    H238733   2.116   1.781   2.480 -1.2935 -1.5313  1.9318
 5748TIP3   OH238734   0.695   1.879  16.019  0.4462  0.4190  0.4073
 5748TIP3    H138735   0.786   1.874  15.988  1.0894  2.6220  1.8573
 5748TIP3    H238736   0.702   1.890  16.114 -1.2988  1.9539  0.3864
 5749TIP3   OH238737   4.330   3.055  13.524  0.1387 -0.1951  0.0605
 5749TIP3    H138738   4.251   3.084  13.569  0.9791 -1.9031  2.7416
 5749TIP3    H238739   4.316   2.962  13.510  2.3818 -0.8771  2.1456
 5750TIP3   OH238740   2.108   4.749   2.285  0.6090 -0.0209  0.7157
 5750TIP3    H138741   2.110   4.778   2.194  1.7114  0.8392  1.0167
 5750TIP3    H238742   2.049   4.673   2.284 -0.2695  0.6645 -0.5051
 5751TIP3   OH238743   0.803   4.485  16.881 -0.7046 -0.1401  0.2767
 5751TIP3    H138744   0.869   4.486  16.811 -0.8961  0.6101  0.1019
 5751TIP3    H238745   0.832   4.415  16.940  0.4538  0.4278  0.3921
 5752TIP3   OH238746   3.048   0.551  10.383  0.4184  0.5425  0.3922
 5752TIP3    H138747   3.021   0.641  10.364  0.4509  0.2098 -1.3579
 5752TIP3    H238748   2.965   0.502  10.391  0.4133  0.5567  0.4284
 5753TIP3   OH238749   1.792   1.111   3.390  0.0298  0.2791  0.1298
 5753TIP3    H138750   1.784   1.198   3.428  1.1064 -0.0556  1.1460
 5753TIP3    H238751   1.724   1.059   3.434  0.1653  0.3133  0.3815
 5754TIP3   OH238752   5.651   1.576  14.484 -0.4136 -0.5315  0.3512
 5754TIP3    H138753   5.679   1.603  14.572  0.3302 -0.0336 -0.0410
 5754TIP3    H238754   5.706   1.626  14.424 -1.7034  0.0035 -0.4197
 5755TIP3   OH238755   6.033   2.609  12.369  0.3553 -0.2612 -0.0200
 5755TIP3    H138756   6.097   2.637  12.303  0.0215 -2.0112 -1.1355
 5755TIP3    H238757   5.964   2.675  12.365  0.9822  0.3764 -0.4693
 5756TIP3   OH238758   5.402   1.980   2.087  0.5408 -0.3655 -0.2337
 5756TIP3    H138759   5.321   1.952   2.130  0.9630  0.4400  1.1243
 5756TIP3    H238760   5.464   1.909   2.104 -0.0948 -1.3599 -1.9737
 5757TIP3   OH238761   5.229   5.726   1.238  0.2596  0.6312 -0.3751
 5757TIP3    H138762   5.191   5.764   1.317 -1.4711  2.2088 -1.8988
 5757TIP3    H238763   5.278   5.798   1.198  1.3919 -0.2442 -0.5793
 5758TIP3   OH238764   1.623   5.811  15.343 -0.1764  0.2183  0.0878
 5758TIP3    H138765   1.577   5.795  15.425 -0.6522 -1.1057 -0.4052
 5758TIP3    H238766   1.711   5.838  15.368 -0.7554  1.2188  1.0362
 5759TIP3   OH238767   6.186   3.867   1.542  0.3094  0.2585  0.0980
 5759TIP3    H138768   6.116   3.829   1.487 -0.9184 -0.1618  1.9163
 5759TIP3    H238769   6.242   3.914   1.480 -3.0210  2.8016 -1.1398
 5760TIP3   OH238770   4.719   0.724   1.873  0.3894  0.2369 -0.1002
 5760TIP3    H138771   4.772   0.754   1.947  1.7330  0.0722 -0.9858
 5760TIP3    H238772   4.777   0.666   1.824 -0.8642 -0.5551 -0.6630
 5761TIP3   OH238773   2.827   6.166   0.082 -0.0293  0.2435  0.2409
 5761TIP3    H138774   2.906   6.214   0.104  0.8478 -0.4512 -1.3052
 5761TIP3    H238775   2.757   6.214   0.126  0.7525  3.2301 -1.6023
 5762TIP3   OH238776   4.445   3.445  13.244 -0.3816 -0.5201  0.4113
 5762TIP3    H138777   4.531   3.435  13.205 -0.2061 -1.6661  1.0835
 5762TIP3    H238778   4.434   3.540  13.254  0.0019 -0.2764 -1.4195
 5763TIP3   OH238779   4.278   2.159   2.596 -0.3549  0.1909 -0.6070
 5763TIP3    H138780   4.186   2.184   2.587 -1.0493 -2.4314 -1.1988
 5763TIP3    H238781   4.299   2.180   2.687 -1.8725 -0.1938 -0.1527
 5764TIP3   OH238782   4.771   1.727   3.256  0.0154 -0.3342 -0.7132
 5764TIP3    H138783   4.806   1.759   3.173  1.3302 -1.9241 -0.7939
 5764TIP3    H238784   4.828   1.763   3.323 -1.1193  1.0502 -0.4704
 5765TIP3   OH238785   3.144   4.922  14.465  0.4334 -0.0832 -0.6878
 5765TIP3    H138786   3.108   4.966  14.542 -1.7781  0.1540 -1.8092
 5765TIP3    H238787   3.145   4.990  14.397 -0.4720 -1.0350 -1.6794
 5766TIP3   OH238788   2.850   2.980   5.520  0.0316 -0.4004  0.0878
 5766TIP3    H138789   2.836   2.889   5.545  0.3804 -0.1820  1.1009
 5766TIP3    H238790   2.938   2.982   5.484 -0.6389 -0.8042 -1.6246
 5767TIP3   OH238791   6.607   2.917  11.143 -0.5139 -0.0832 -0.6929
 5767TIP3    H138792   6.625   3.003  11.105 -1.2691  0.0723 -0.7120
 5767TIP3    H238793   6.643   2.854  11.080  0.9455  0.2383 -0.1830
 5768TIP3   OH238794   6.183   2.795   1.742 -0.2566 -0.1820  0.0469
 5768TIP3    H138795   6.169   2.885   1.713  0.5854 -0.5651 -1.6183
 5768TIP3    H238796   6.277   2.790   1.761 -0.0655 -1.0053 -1.0198
 5769TIP3   OH238797   6.458   6.090   3.385  0.6990 -0.3755 -0.5038
 5769TIP3    H138798   6.413   6.099   3.301  1.7120 -2.7517 -1.3687
 5769TIP3    H238799   6.537   6.143   3.377  0.3235  0.1458 -0.7089
 5770TIP3   OH238800   4.247   6.586  11.454  0.0327 -0.0666 -0.4735
 5770TIP3    H138801   4.214   6.532  11.382  1.9780 -0.6027 -0.9936
 5770TIP3    H238802   4.339   6.601  11.432  0.2573  1.0179  1.1619
 5771TIP3   OH238803   2.235   4.942   0.098  0.4602 -0.2461 -0.0558
 5771TIP3    H138804   2.193   4.985   0.172  0.4428  0.6417 -0.5797
 5771TIP3    H238805   2.260   4.856   0.131 -1.3471 -0.6054  0.3963
 5772TIP3   OH238806   6.637   1.808   4.529 -0.1529 -0.1025  0.0129
 5772TIP3    H138807   6.616   1.767   4.445 -1.0897  1.5897 -0.5998
 5772TIP3    H238808   6.729   1.832   4.522 -0.1779 -0.1507 -0.4626
 5773TIP3   OH238809   6.475   4.044   6.141  0.1308 -0.1353  0.3468
 5773TIP3    H138810   6.422   4.076   6.214 -0.9027 -0.0036 -0.4462
 5773TIP3    H238811   6.552   4.101   6.140 -1.4831  2.0814 -0.7694
 5774TIP3   OH238812   0.124   5.826   4.499  0.1568 -0.1511  0.8041
 5774TIP3    H138813   0.217   5.808   4.486  0.6895  0.8642  2.9635
 5774TIP3    H238814   0.109   5.810   4.592 -1.7300  0.1504  0.5692
 5775TIP3   OH238815   3.603   1.345  12.514  0.2336  0.0740 -0.0483
 5775TIP3    H138816   3.538   1.356  12.445  1.6977 -3.0126 -2.0433
 5775TIP3    H238817   3.651   1.428  12.515 -2.6755  1.8211  0.4144
 5776TIP3   OH238818   6.819   0.211   5.716 -1.0276 -0.1151  0.2947
 5776TIP3    H138819   6.765   0.151   5.666 -0.2500 -0.6988  0.1505
 5776TIP3    H238820   6.839   0.282   5.655  1.3226 -1.6452 -0.7912
 5777TIP3   OH238821   1.676   6.197   4.637  0.2894 -0.0194 -0.2849
 5777TIP3    H138822   1.676   6.251   4.558  1.1308 -0.1633 -0.3911
 5777TIP3    H238823   1.644   6.255   4.706  0.3613  0.3575 -0.5667
 5778TIP3   OH238824   0.250   0.229   3.882  0.4486  0.2965  0.6911
 5778TIP3    H138825   0.243   0.292   3.810 -0.3286 -1.0168 -0.4184
 5778TIP3    H238826   0.334   0.249   3.923 -0.0344  2.3910  0.7141
 5779TIP3   OH238827   1.352   1.797   0.023  0.3855  0.3820  0.1089
 5779TIP3    H138828   1.347   1.711   0.065  0.4211  0.3030 -0.0487
 5779TIP3    H238829   1.445   1.812   0.010  0.4690  1.0451  1.3733
 5780TIP3   OH238830   3.201   0.923   6.434  0.2603  0.1989 -0.4834
 5780TIP3    H138831   3.262   0.996   6.444 -0.5820  1.0481 -1.3776
 5780TIP3    H238832   3.156   0.940   6.351 -0.8319 -0.6657 -0.0889
 5781TIP3   OH238833   0.770   1.943  13.454  0.7216 -0.7705 -0.3776
 5781TIP3    H138834   0.735   1.902  13.375 -0.5216  0.5205 -0.5161
 5781TIP3    H238835   0.792   2.032  13.427 -0.2245 -0.1445  0.8443
 5782TIP3   OH238836   5.197   2.392   5.832 -0.3444 -0.0971 -0.1524
 5782TIP3    H138837   5.199   2.355   5.744  0.9790 -0.6013  0.0797
 5782TIP3    H238838   5.176   2.318   5.889 -1.4440  0.2750 -0.0562
 5783TIP3   OH238839   5.497   1.060   2.750  0.0963 -0.0694  0.4925
 5783TIP3    H138840   5.487   1.096   2.662 -0.0226 -0.7782  0.2116
 5783TIP3    H238841   5.581   1.093   2.780 -0.7517  1.7920  0.8885
 5784TIP3   OH238842   3.789   0.830  14.271 -0.3038  0.0463 -0.7652
 5784TIP3    H138843   3.713   0.789  14.231  0.0909 -0.2386 -1.2408
 5784TIP3    H238844   3.860   0.813  14.209  0.0600  0.6540 -0.5242
 5785TIP3   OH238845   4.486   6.691   4.306  0.1286 -0.0509  0.3057
 5785TIP3    H138846   4.508   6.710   4.397 -1.5622  1.0641  0.5036
 5785TIP3    H238847   4.512   6.769   4.258  2.0098 -1.0509 -0.3632
 5786TIP3   OH238848   0.865   5.511   6.042 -0.1716  0.1077 -0.1925
 5786TIP3    H138849   0.943   5.553   6.076 -0.5967  0.6137  0.1622
 5786TIP3    H238850   0.793   5.553   6.088 -0.7864  1.0979 -2.0064
 5787TIP3   OH238851   0.948   4.843  14.430 -0.0713  0.2819 -0.0369
 5787TIP3    H138852   0.874   4.872  14.483 -0.5703 -1.2527  0.0994
 5787TIP3    H238853   1.015   4.910  14.446 -1.6630  2.0724 -0.7392
 5788TIP3   OH238854   2.711   5.266   1.495 -0.0147  0.0861 -0.1542
 5788TIP3    H138855   2.740   5.181   1.462  0.9069  0.4613 -0.3491
 5788TIP3    H238856   2.737   5.328   1.427  0.5161  0.6811  0.5811
 5789TIP3   OH238857   1.530   3.193   2.366 -0.5681 -0.1243 -0.1519
 5789TIP3    H138858   1.621   3.185   2.394 -0.8891 -0.4706  0.7888
 5789TIP3    H238859   1.530   3.266   2.304  0.7931 -1.6741 -2.0376
 5790TIP3   OH238860   5.110   3.837  17.260  0.5537  0.1496  0.4144
 5790TIP3    H138861   5.043   3.905  17.256 -0.5995 -1.0121  0.0398
 5790TIP3    H238862   5.074   3.771  17.320  1.0158 -0.8532 -0.4045
 5791TIP3   OH238863   0.888   3.249  16.464 -0.0726  0.2713 -0.8581
 5791TIP3    H138864   0.920   3.287  16.382  0.7454 -0.0177 -0.6767
 5791TIP3    H238865   0.959   3.264  16.527  0.4796 -1.9974 -0.9007
 5792TIP3   OH238866   5.938   0.331  13.900 -0.3764 -0.2714  0.3934
 5792TIP3    H138867   5.892   0.320  13.817 -0.7090 -0.2647  0.5781
 5792TIP3    H238868   5.914   0.419  13.930  0.3301  0.0120  0.1315
 5793TIP3   OH238869   3.894   5.256   4.312  0.3851 -0.6066 -0.1392
 5793TIP3    H138870   3.970   5.213   4.351  0.5039 -1.0749 -0.8632
 5793TIP3    H238871   3.901   5.236   4.219  1.1245  2.0293 -0.7008
 5794TIP3   OH238872   2.894   3.500   2.430 -0.1280 -0.4945  0.0984
 5794TIP3    H138873   2.988   3.510   2.447  0.1347  1.4999 -2.3142
 5794TIP3    H238874   2.851   3.536   2.508  1.0915  1.0634  0.0712
 5795TIP3   OH238875   3.378   2.547  15.065 -0.1091  0.2350 -0.1147
 5795TIP3    H138876   3.293   2.508  15.087 -0.9041  1.6695 -0.5638
 5795TIP3    H238877   3.425   2.552  15.148  0.3498 -2.4470 -0.1788
 5796TIP3   OH238878   6.332   2.842   1.440 -0.1436  0.9052  0.4012
 5796TIP3    H138879   6.283   2.915   1.478 -0.4802 -0.3111  2.3480
 5796TIP3    H238880   6.417   2.845   1.484 -0.3868 -0.2535  0.9742
 5797TIP3   OH238881   0.034   6.260   0.175 -0.0584  0.0885 -0.1909
 5797TIP3    H138882   0.077   6.263   0.090  0.3940 -0.8287 -0.0002
 5797TIP3    H238883   0.023   6.167   0.193 -4.0656  0.2667 -1.1998
 5798TIP3   OH238884   6.381   2.890   3.555  0.1425 -0.3936  0.1348
 5798TIP3    H138885   6.354   2.847   3.636 -1.3769  1.6613  0.7563
 5798TIP3    H238886   6.314   2.867   3.491 -0.5138  0.7755  0.3909
 5799TIP3   OH238887   0.235   3.030  17.193 -0.2013 -0.2912  1.0348
 5799TIP3    H138888   0.303   3.079  17.237 -0.9593  1.3762  0.4028
 5799TIP3    H238889   0.153   3.067  17.226 -0.7913 -1.3204  0.7535
 5800TIP3   OH238890   5.714   3.836  16.131  0.2577  0.0916  0.1313
 5800TIP3    H138891   5.763   3.776  16.187  1.7315  2.5243  1.4844
 5800TIP3    H238892   5.699   3.786  16.051  0.9974 -2.2653  1.3990
 5801TIP3   OH238893   0.360   2.059  16.760 -0.2950  0.0724  0.5915
 5801TIP3    H138894   0.455   2.072  16.748 -0.3254  1.6591  1.8278
 5801TIP3    H238895   0.326   2.148  16.771 -1.7403 -0.5857  1.4741
 5802TIP3   OH238896   2.745   2.498   1.687 -0.1397 -0.1102 -0.1498
 5802TIP3    H138897   2.732   2.404   1.680 -0.5717 -0.1331  0.9144
 5802TIP3    H238898   2.818   2.517   1.628 -0.2254 -1.0659 -0.5655
 5803TIP3   OH238899   0.095   6.293   4.109 -0.4441  0.0867  0.2275
 5803TIP3    H138900   0.183   6.316   4.079 -0.1249  0.0270  1.1160
 5803TIP3    H238901   0.041   6.294   4.029  0.4851 -0.4821 -0.4127
 5804TIP3   OH238902   6.504   1.440   6.241  0.0619 -0.1496  0.4702
 5804TIP3    H138903   6.559   1.385   6.297  0.9701  0.3331  0.0717
 5804TIP3    H238904   6.459   1.498   6.301  2.1287  1.3492  0.6420
 5805TIP3   OH238905   3.056   0.268  12.048 -0.6776 -0.3641 -0.1933
 5805TIP3    H138906   3.105   0.337  12.092 -1.9424  0.0472  0.6057
 5805TIP3    H238907   3.084   0.187  12.091  0.0458 -0.2369 -0.4277
 5806TIP3   OH238908   0.863   4.236  13.900 -0.3163  0.1876  0.1679
 5806TIP3    H138909   0.938   4.177  13.900 -1.6656 -1.5763 -0.7599
 5806TIP3    H238910   0.821   4.222  13.986 -0.7240 -0.3198 -0.1128
 5807TIP3   OH238911   6.803   1.468   3.992 -0.3115  0.2173  0.7038
 5807TIP3    H138912   6.772   1.420   4.069  1.8292 -0.0476  1.4440
 5807TIP3    H238913   6.854   1.541   4.028 -0.8490  1.1789 -0.4545
 5808TIP3   OH238914   3.870   3.875  14.166  0.0313  0.0714 -0.6566
 5808TIP3    H138915   3.834   3.917  14.243 -0.5172 -0.4646 -0.6187
 5808TIP3    H238916   3.800   3.819  14.133  0.5708 -0.4096 -1.0091
 5809TIP3   OH238917   0.933   4.423  13.383  0.1168 -0.1335  0.6338
 5809TIP3    H138918   0.960   4.352  13.441  1.1066 -0.3751 -0.1119
 5809TIP3    H238919   1.007   4.435  13.324  0.0681  1.6961  0.9124
 5810TIP3   OH238920   1.939   6.040   6.390 -0.3239  0.2016 -0.4496
 5810TIP3    H138921   1.915   5.947   6.394 -0.1810  0.0663 -2.2101
 5810TIP3    H238922   2.027   6.044   6.427 -1.0435 -0.0695  1.3511
 5811TIP3   OH238923   4.919   2.782   0.767 -0.4566 -0.4909  0.4358
 5811TIP3    H138924   4.955   2.850   0.710  3.3957 -3.1306 -0.5020
 5811TIP3    H238925   4.828   2.773   0.739 -0.1866  2.0923 -1.5067
 5812TIP3   OH238926   0.458   2.836   6.837 -0.3770 -0.0218 -0.2516
 5812TIP3    H138927   0.490   2.925   6.851 -2.3033  0.4183  1.6566
 5812TIP3    H238928   0.535   2.787   6.810  1.8438  1.1774  3.4684
 5813TIP3   OH238929   5.979   1.748  15.600 -0.4781 -0.1267 -0.0000
 5813TIP3    H138930   6.039   1.809  15.557 -0.1144 -0.4145  0.0961
 5813TIP3    H238931   6.015   1.736  15.687 -0.3272 -0.7860 -0.1497
 5814TIP3   OH238932   2.745   3.132  15.303  0.3575  0.3526 -0.0342
 5814TIP3    H138933   2.744   3.080  15.223  1.9284  1.4037 -0.7594
 5814TIP3    H238934   2.792   3.078  15.367 -1.9352 -0.9922  0.5594
 5815TIP3   OH238935   1.910   3.949  16.432  0.3045 -0.3643 -0.6364
 5815TIP3    H138936   1.842   3.963  16.498  0.3151  0.3575 -0.7732
 5815TIP3    H238937   1.881   3.872  16.384  0.4145 -1.0314  0.3657
 5816TIP3   OH238938   3.009   3.794  14.551 -0.6297  0.2648 -0.1495
 5816TIP3    H138939   2.931   3.846  14.569 -0.9579 -0.1406 -0.3885
 5816TIP3    H238940   2.986   3.706  14.580  0.2267  0.4265  1.0541
 5817TIP3   OH238941   0.582   4.748  12.943 -0.3151 -0.4384  0.3142
 5817TIP3    H138942   0.674   4.729  12.923 -0.2839  1.0178 -0.9925
 5817TIP3    H238943   0.534   4.718  12.865 -0.6467  1.2988 -0.1628
 5818TIP3   OH238944   2.492   2.315   3.477  0.5393 -0.5872 -0.2143
 5818TIP3    H138945   2.507   2.302   3.571  0.3855 -1.5163 -0.3106
 5818TIP3    H238946   2.510   2.229   3.438 -0.2117 -0.4220 -0.9341
 5819TIP3   OH238947   1.197   6.747   4.409  0.1168 -0.7793  0.0070
 5819TIP3    H138948   1.163   6.739   4.320 -1.1522 -0.9955  0.5005
 5819TIP3    H238949   1.130   6.706   4.464  0.7070 -0.3072  1.0920
 5820TIP3   OH238950   1.001   2.154  13.611 -0.1351 -0.1668 -0.0075
 5820TIP3    H138951   1.062   2.095  13.566  0.4601 -0.1323  0.7555
 5820TIP3    H238952   0.927   2.163  13.550  0.6784 -0.0971 -1.0069
 5821TIP3   OH238953   0.204   1.338   2.328  0.9902 -0.7611  0.0336
 5821TIP3    H138954   0.114   1.366   2.310  0.9680 -1.5260 -1.1446
 5821TIP3    H238955   0.253   1.367   2.251  1.8696  0.1214  0.9093
 5822TIP3   OH238956   2.749   0.586   5.240  0.1806 -0.7375 -0.1127
 5822TIP3    H138957   2.713   0.673   5.222  0.0754 -0.8775 -0.5881
 5822TIP3    H238958   2.692   0.526   5.192  0.8879 -0.9848 -0.6485
 5823TIP3   OH238959   6.816   5.537   4.300 -0.3371  0.0173  0.5514
 5823TIP3    H138960   6.781   5.622   4.275 -0.6879  0.2669  1.8580
 5823TIP3    H238961   6.911   5.549   4.300 -0.3520  0.1361 -0.2103
 5824TIP3   OH238962   0.256   2.070   4.059  0.1046  0.2557 -0.2775
 5824TIP3    H138963   0.209   2.001   4.104 -1.5241  2.0308  0.8326
 5824TIP3    H238964   0.245   2.050   3.966 -0.5765 -0.8076  0.0305
 5825TIP3   OH238965   2.239   4.061  13.822 -0.0608  0.3271  0.4343
 5825TIP3    H138966   2.192   4.043  13.903 -0.0652 -2.2145 -0.1132
 5825TIP3    H238967   2.292   3.983  13.806 -0.3515  0.6119 -2.2063
 5826TIP3   OH238968   1.686   4.557   2.120 -0.3295 -0.5834  0.0644
 5826TIP3    H138969   1.667   4.631   2.176 -0.6500 -1.9028  1.7473
 5826TIP3    H238970   1.778   4.538   2.136 -0.1622 -0.3354 -0.6130
 5827TIP3   OH238971   3.939   5.603  15.599  0.1039  0.2615  0.3197
 5827TIP3    H138972   3.994   5.525  15.598 -0.3163 -0.0302 -0.6940
 5827TIP3    H238973   3.859   5.575  15.643 -0.0840  0.0932 -0.1273
 5828TIP3   OH238974   3.310   1.463   1.069 -0.1681 -0.4197  0.7112
 5828TIP3    H138975   3.313   1.436   0.978  1.0109  1.2298  0.2291
 5828TIP3    H238976   3.258   1.544   1.068 -1.3819 -1.1602  1.7261
 5829TIP3   OH238977   2.154   5.622  12.074 -0.1371  0.1756  0.5792
 5829TIP3    H138978   2.060   5.635  12.088 -0.2239  1.5919 -1.1106
 5829TIP3    H238979   2.162   5.606  11.980  1.3693  0.8294  0.5834
 5830TIP3   OH238980   4.745   3.758  13.730 -0.1668 -0.3349  0.2219
 5830TIP3    H138981   4.786   3.742  13.645  0.1890 -1.1812  0.5460
 5830TIP3    H238982   4.692   3.679  13.746  2.1719 -1.5449  2.1726
 5831TIP3   OH238983   3.776   5.507  15.319  0.0253  0.0220  0.0477
 5831TIP3    H138984   3.832   5.452  15.265 -0.3636  1.3193 -1.7507
 5831TIP3    H238985   3.754   5.581  15.262 -1.1556  0.9708  1.6933
 5832TIP3   OH238986   4.697   6.445  11.167 -0.0309  0.7954 -0.1403
 5832TIP3    H138987   4.649   6.364  11.148  0.4489  0.6600 -0.7880
 5832TIP3    H238988   4.772   6.417  11.220  0.6131  0.6926 -1.0909
 5833TIP3   OH238989   1.727   4.490   0.234 -0.8684  0.5164 -0.0435
 5833TIP3    H138990   1.671   4.567   0.245 -0.8487  0.4433  0.6304
 5833TIP3    H238991   1.815   4.521   0.257 -0.7217  0.4971 -0.5750
 5834TIP3   OH238992   5.567   3.849  11.783 -0.0058  0.2121  0.5136
 5834TIP3    H138993   5.496   3.912  11.800  0.7605  0.7615  1.7214
 5834TIP3    H238994   5.583   3.807  11.867 -1.4044 -2.5981 -0.5696
 5835TIP3   OH238995   0.075   2.808   3.893 -0.3460 -0.6407  0.0976
 5835TIP3    H138996   0.111   2.843   3.974 -0.0297 -1.2746  0.2310
 5835TIP3    H238997   0.005   2.749   3.921 -1.0603  0.0898 -0.1385
 5836TIP3   OH238998   0.752   2.698  12.235 -0.0556  0.2018  0.2193
 5836TIP3    H138999   0.736   2.757  12.309  0.6412  1.7001 -0.7899
 5836TIP3    H239000   0.720   2.747  12.159 -1.2260 -1.5307 -0.4114
 5837TIP3   OH239001   3.137   0.223   1.548  0.0607 -0.1003  0.1295
 5837TIP3    H139002   3.172   0.282   1.482 -1.0189  0.2341 -0.1598
 5837TIP3    H239003   3.078   0.277   1.600 -0.3702 -0.7470  0.3288
 5838TIP3   OH239004   4.478   2.432  12.471 -0.2402  1.0396  0.6298
 5838TIP3    H139005   4.394   2.477  12.478 -1.7645 -1.3861 -1.3061
 5838TIP3    H239006   4.508   2.449  12.382  0.0406 -0.2218  0.4656
 5839TIP3   OH239007   5.971   4.242  14.134 -0.1013 -0.2636  0.1418
 5839TIP3    H139008   5.990   4.302  14.207 -2.3527  0.0507  0.4897
 5839TIP3    H239009   5.914   4.176  14.171  0.0105 -1.0061 -0.9753
 5840TIP3   OH239010   4.108   2.629  16.880  0.2523 -0.2069 -0.1804
 5840TIP3    H139011   4.027   2.659  16.920  1.3845  0.6952  1.5295
 5840TIP3    H239012   4.175   2.689  16.914  1.6512 -1.0092 -1.4459
 5841TIP3   OH239013   2.052   3.525  16.422 -0.6680 -0.1201  0.4053
 5841TIP3    H139014   2.097   3.609  16.424 -1.0224  0.1064 -0.8344
 5841TIP3    H239015   2.118   3.462  16.451  0.5112  0.1857 -1.5154
 5842TIP3   OH239016   0.287   2.781   5.108 -1.1864  0.8653 -0.2035
 5842TIP3    H139017   0.295   2.720   5.036  0.9672  0.8915 -0.0485
 5842TIP3    H239018   0.319   2.864   5.073  1.1437  0.5776  1.0860
 5843TIP3   OH239019   6.818   3.910  12.310 -0.1340  0.1755 -0.4680
 5843TIP3    H139020   6.781   3.853  12.242 -0.1939 -2.6072  1.7957
 5843TIP3    H239021   6.753   3.980  12.320 -1.8560 -1.3314 -0.7992
 5844TIP3   OH239022   2.672   2.061  10.859  0.1590 -0.4185 -0.2283
 5844TIP3    H139023   2.638   1.971  10.860 -0.9761 -0.0151 -1.8626
 5844TIP3    H239024   2.595   2.116  10.843  1.2260  0.6717 -1.6835
 5845TIP3   OH239025   2.546   3.798   4.742 -0.1938  0.5380  0.3660
 5845TIP3    H139026   2.498   3.728   4.697 -0.4007  0.7711  0.2225
 5845TIP3    H239027   2.496   3.814   4.821 -0.2400  0.6430  0.3151
 5846TIP3   OH239028   4.629   5.164  16.407  0.1785  0.0320  0.4288
 5846TIP3    H139029   4.679   5.226  16.355 -0.3991  0.1167 -0.0248
 5846TIP3    H239030   4.543   5.205  16.418  0.1379 -0.2042  1.0332
 5847TIP3   OH239031   1.629   1.976  11.543 -0.2631  0.1626 -0.3453
 5847TIP3    H139032   1.711   1.928  11.548 -0.4189  0.0142  1.0896
 5847TIP3    H239033   1.598   1.980  11.634 -1.8827  0.1300 -0.8778
 5848TIP3   OH239034   2.517   1.813  12.021  0.1607  0.0755  0.0430
 5848TIP3    H139035   2.515   1.903  11.991 -0.0428 -0.2478 -0.9308
 5848TIP3    H239036   2.610   1.793  12.033  0.2990 -0.1118 -1.3487
 5849TIP3   OH239037   2.240   5.918  16.959  0.1591 -0.0604  0.4137
 5849TIP3    H139038   2.182   5.932  17.034  0.9338  0.0276  0.9976
 5849TIP3    H239039   2.282   6.003  16.944  0.6639 -0.3013  0.4384
 5850TIP3   OH239040   0.789   3.703  11.276 -0.1133  0.2514 -0.0863
 5850TIP3    H139041   0.743   3.705  11.360  0.1987  0.9593  0.0747
 5850TIP3    H239042   0.762   3.784  11.232  1.3562  0.9244  0.2240
 5851TIP3   OH239043   5.385   5.752   1.904  0.6717 -0.1050 -0.2077
 5851TIP3    H139044   5.476   5.723   1.916  1.1156  1.3723  0.0885
 5851TIP3    H239045   5.334   5.671   1.908  1.8671 -0.8379  0.7756
 5852TIP3   OH239046   0.050   4.643  12.344 -0.1696 -0.1937  0.0363
 5852TIP3    H139047   0.116   4.573  12.340  0.4175  0.3905 -0.7950
 5852TIP3    H239048   0.046   4.666  12.437  1.3205  0.2220  0.0264
 5853TIP3   OH239049   1.648   5.298  15.368  0.4927  0.3137 -0.2608
 5853TIP3    H139050   1.707   5.226  15.344 -0.9285 -0.8801 -0.2190
 5853TIP3    H239051   1.706   5.374  15.376  1.9999 -0.7835 -0.4518
 5854TIP3   OH239052   3.106   2.438  15.113  0.1648 -0.0675 -0.6789
 5854TIP3    H139053   3.011   2.443  15.122  0.2380  0.4379 -0.1614
 5854TIP3    H239054   3.120   2.384  15.036 -0.5473  0.0936 -0.9220
 5855TIP3   OH239055   5.725   2.442  12.541  0.5525 -0.1858  0.3843
 5855TIP3    H139056   5.710   2.515  12.482 -0.1991  0.6146  1.5352
 5855TIP3    H239057   5.756   2.482  12.622  0.2016 -1.1391  1.0039
 5856TIP3   OH239058   6.127   1.470  11.642 -0.2446 -0.2714  0.3116
 5856TIP3    H139059   6.136   1.377  11.663 -2.2489 -0.3606  0.9201
 5856TIP3    H239060   6.074   1.471  11.562 -2.0909  0.3867  1.5132
 5857TIP3   OH239061   3.837   1.784   3.137  0.1383  0.0924 -0.3637
 5857TIP3    H139062   3.882   1.830   3.208 -1.1270  0.5488  0.1499
 5857TIP3    H239063   3.906   1.765   3.073  1.2791 -0.2743  0.9528
 5858TIP3   OH239064   1.697   1.917  15.770  0.4248 -0.3762 -0.2987
 5858TIP3    H139065   1.719   1.947  15.858  1.2151 -1.3282 -0.1555
 5858TIP3    H239066   1.683   1.823  15.780 -1.5668 -0.1668 -0.8129
 5859TIP3   OH239067   5.185   0.456  10.602  0.6417 -0.2700  0.1200
 5859TIP3    H139068   5.241   0.525  10.565  0.4309  0.1362  0.5581
 5859TIP3    H239069   5.130   0.429  10.529  1.1811 -0.4379 -0.2281
 5860TIP3   OH239070   2.657   4.437   5.347  0.9552  0.2551  0.2270
 5860TIP3    H139071   2.585   4.411   5.290 -0.6766 -0.7447  2.6262
 5860TIP3    H239072   2.632   4.523   5.381  1.2975  0.2859  0.4061
 5861TIP3   OH239073   6.790   0.862  15.199  0.3137  0.1466  0.3790
 5861TIP3    H139074   6.820   0.923  15.267  0.7976 -0.9924  1.2114
 5861TIP3    H239075   6.740   0.796  15.247 -2.9794  1.6160 -0.8979
 5862TIP3   OH239076   3.291   2.679  14.192 -0.2935 -0.3963 -0.2348
 5862TIP3    H139077   3.318   2.697  14.282 -0.2372  2.4893 -0.7887
 5862TIP3    H239078   3.198   2.703  14.190 -0.6275 -1.6645 -0.6453
 5863TIP3   OH239079   1.005   2.501   0.772  0.1480  0.0080  0.8425
 5863TIP3    H139080   0.939   2.436   0.745 -0.9703  1.5566 -0.2225
 5863TIP3    H239081   1.083   2.449   0.789 -1.2399 -1.8445  1.8492
 5864TIP3   OH239082   0.335   5.490  15.399  0.0648  0.3308 -0.1009
 5864TIP3    H139083   0.304   5.530  15.481 -0.2826 -0.4874  0.1669
 5864TIP3    H239084   0.301   5.548  15.331 -0.3529  0.5594  0.2920
 5865TIP3   OH239085   1.332   1.228   3.303  0.0710  0.0315 -0.3657
 5865TIP3    H139086   1.364   1.190   3.221  0.9662  1.3417 -0.6368
 5865TIP3    H239087   1.335   1.323   3.289  1.0610  0.3030  1.4760
 5866TIP3   OH239088   0.927   5.281   4.484 -0.5987  0.7276  0.6074
 5866TIP3    H139089   0.859   5.269   4.417 -0.7561  0.1833  0.8612
 5866TIP3    H239090   0.884   5.257   4.566 -0.2943  1.0297  0.8535
 5867TIP3   OH239091   5.911   3.150   5.116 -0.4386  0.1747 -0.2730
 5867TIP3    H139092   5.823   3.180   5.138  0.1512  1.8886 -0.1568
 5867TIP3    H239093   5.969   3.217   5.154  0.9315 -1.2406  0.1711
 5868TIP3   OH239094   0.413   6.043  12.257 -0.0693  0.1489  0.0983
 5868TIP3    H139095   0.399   6.016  12.347  0.8850  1.1183  0.5413
 5868TIP3    H239096   0.361   6.123  12.248  0.9662  0.8419  0.2126
 5869TIP3   OH239097   0.470   1.322   0.718  0.1220  0.7445  0.1018
 5869TIP3    H139098   0.561   1.299   0.738  0.7919  2.1997 -1.1335
 5869TIP3    H239099   0.431   1.241   0.687  0.4946 -0.3082  2.2975
 5870TIP3   OH239100   6.081   0.681   4.284  0.6293  0.4996 -0.0159
 5870TIP3    H139101   6.144   0.675   4.212  0.9844 -1.4466  0.4397
 5870TIP3    H239102   6.033   0.762   4.266  0.5322 -0.0733 -2.5880
 5871TIP3   OH239103   0.181   4.275  14.141 -0.0827  0.2650 -0.1882
 5871TIP3    H139104   0.220   4.338  14.201 -0.4376 -1.7596  2.2374
 5871TIP3    H239105   0.107   4.238  14.189 -1.1233 -0.5455 -2.3313
 5872TIP3   OH239106   3.660   5.007  15.621 -0.7153 -0.0046  0.2197
 5872TIP3    H139107   3.576   5.016  15.577 -0.9069 -0.1476  0.5569
 5872TIP3    H239108   3.716   5.071  15.578 -1.0805  0.3047  0.2057
 5873TIP3   OH239109   6.283   3.596   1.860 -0.0776  0.4177 -0.4201
 5873TIP3    H139110   6.219   3.529   1.836  0.2393 -0.7727  1.9976
 5873TIP3    H239111   6.329   3.615   1.778 -0.9940 -1.4228 -1.3905
 5874TIP3   OH239112   1.371   4.808   1.220  0.2456  0.7487  0.0672
 5874TIP3    H139113   1.373   4.794   1.315  0.5166  0.2609 -0.0099
 5874TIP3    H239114   1.331   4.894   1.209 -0.2998  0.5639  0.6049
 5875TIP3   OH239115   2.382   4.649  15.033  0.1089 -0.2646 -0.3535
 5875TIP3    H139116   2.396   4.660  15.127  0.1723  1.6703 -0.5687
 5875TIP3    H239117   2.292   4.679  15.019  1.0461  2.1816 -1.3185
 5876TIP3   OH239118   6.284   0.754   0.852  0.5791  0.3306 -0.2929
 5876TIP3    H139119   6.230   0.764   0.930  0.8885  0.0636 -0.0414
 5876TIP3    H239120   6.367   0.796   0.875  1.2250 -1.1129  0.0918
 5877TIP3   OH239121   4.672   4.342  16.857 -0.2118 -0.0123 -0.0210
 5877TIP3    H139122   4.589   4.374  16.893 -0.4168 -0.9113  0.3056
 5877TIP3    H239123   4.739   4.391  16.904 -0.4041 -2.1553  2.6451
 5878TIP3   OH239124   1.975   1.555  10.600 -0.3865 -0.9003  0.1467
 5878TIP3    H139125   2.051   1.497  10.611  0.4505  0.0079 -0.6882
 5878TIP3    H239126   1.900   1.496  10.596  0.2753 -1.8198  0.9433
 5879TIP3   OH239127   1.589   4.282  11.948 -0.1779  0.1728  0.2932
 5879TIP3    H139128   1.662   4.337  11.977 -0.7731 -0.1813  2.5616
 5879TIP3    H239129   1.515   4.342  11.939 -0.3365  0.0603  0.8467
 5880TIP3   OH239130   0.934   1.222  16.434  0.1842  0.2673 -0.4390
 5880TIP3    H139131   0.915   1.156  16.500  0.6861 -0.0301 -0.5914
 5880TIP3    H239132   0.944   1.172  16.352 -0.7251  0.6597 -0.7995
 5881TIP3   OH239133   0.610   4.084   0.377 -0.2972  0.7076 -0.0259
 5881TIP3    H139134   0.620   4.024   0.302  0.0478  0.7429 -0.0073
 5881TIP3    H239135   0.526   4.059   0.415  0.2187 -0.3188  0.4736
 5882TIP3   OH239136   6.245   6.656  16.968  0.1526  0.3381  0.2863
 5882TIP3    H139137   6.256   6.751  16.978 -0.8761  0.5359 -0.4439
 5882TIP3    H239138   6.175   6.646  16.904  1.3360 -0.9231 -0.8319
 5883TIP3   OH239139   0.287   0.224   0.404 -0.1656 -0.0844  0.2417
 5883TIP3    H139140   0.268   0.151   0.346 -0.1192 -0.8906  1.2328
 5883TIP3    H239141   0.220   0.220   0.472 -0.8358  1.4664 -0.2954
 5884TIP3   OH239142   6.644   6.181   4.264 -0.5861 -0.0276 -0.1754
 5884TIP3    H139143   6.588   6.109   4.237 -3.4167  2.3253 -0.7679
 5884TIP3    H239144   6.654   6.235   4.186  1.5923  0.2050  0.2209
 5885TIP3   OH239145   3.408   0.778  17.245  0.3503 -0.2078 -0.2553
 5885TIP3    H139146   3.317   0.808  17.242 -0.3439 -2.3582 -1.2488
 5885TIP3    H239147   3.441   0.811  17.329 -1.3356  0.5473  0.1377
 5886TIP3   OH239148   1.642   0.091  10.598 -0.4094 -0.2813 -0.1775
 5886TIP3    H139149   1.732   0.072  10.626  0.6687  1.5648 -2.2063
 5886TIP3    H239150   1.636   0.187  10.601 -2.5048 -0.4016  0.4074
 5887TIP3   OH239151   3.807   6.090   0.290  0.1006  0.3509  0.5516
 5887TIP3    H139152   3.739   6.034   0.327 -1.0512  1.4421  0.1293
 5887TIP3    H239153   3.822   6.157   0.356  1.6020 -0.5230  1.1315
 5888TIP3   OH239154   6.368   3.066  17.110 -0.0619  0.4262  0.3094
 5888TIP3    H139155   6.365   2.993  17.048 -0.5506  1.5790 -1.0754
 5888TIP3    H239156   6.447   3.115  17.086 -0.1592  0.7800  0.7059
 5889TIP3   OH239157   2.965   4.927  15.063  0.3413 -0.1940  0.2419
 5889TIP3    H139158   2.896   4.962  15.007  1.5608  0.2183 -1.0231
 5889TIP3    H239159   2.942   4.835  15.076  1.1210 -0.8107 -2.5999
 5890TIP3   OH239160   3.303   0.612   0.208  0.0848  0.5823  0.0277
 5890TIP3    H139161   3.396   0.589   0.207  0.0938  0.4976 -2.5426
 5890TIP3    H239162   3.299   0.699   0.247  1.0051 -0.2320  1.9962
 5891TIP3   OH239163   1.242   1.085  14.377  0.1656  0.7607 -0.3637
 5891TIP3    H139164   1.227   1.013  14.316 -0.2511  0.3243  0.2539
 5891TIP3    H239165   1.251   1.043  14.462 -2.5464  1.6272  0.3907
 5892TIP3   OH239166   0.209   4.811   6.263 -0.5736 -0.1163  0.4557
 5892TIP3    H139167   0.123   4.768   6.264 -0.2507 -0.8743 -1.5447
 5892TIP3    H239168   0.227   4.830   6.355 -1.8378 -2.0913  1.1606
 5893TIP3   OH239169   0.915   4.357   4.999 -0.2411 -0.4916  0.3695
 5893TIP3    H139170   0.981   4.321   4.940  0.4378  0.2419  0.6662
 5893TIP3    H239171   0.868   4.281   5.032  0.8546 -1.0864  0.6025
 5894TIP3   OH239172   5.628   0.742  10.769  0.7640  0.0583  0.0558
 5894TIP3    H139173   5.550   0.688  10.754  0.6175  0.4248 -0.5434
 5894TIP3    H239174   5.608   0.790  10.849 -0.0957  0.9435 -0.6656
 5895TIP3   OH239175   3.251   0.048  13.658 -0.4909 -0.7664  0.4731
 5895TIP3    H139176   3.267   0.059  13.564  1.9994  2.0218  1.1709
 5895TIP3    H239177   3.268  -0.045  13.674 -0.5119 -1.1785 -1.7341
 5896TIP3   OH239178   4.094   6.588   1.072 -0.2701 -0.2549  0.4634
 5896TIP3    H139179   4.040   6.553   1.143 -0.0113 -0.5848  0.4985
 5896TIP3    H239180   4.132   6.668   1.107 -0.7056 -0.0402  0.4532
 5897TIP3   OH239181   4.508   3.508   5.961 -0.3171 -0.3366  0.2510
 5897TIP3    H139182   4.562   3.537   5.887 -1.4619 -0.9359 -0.8401
 5897TIP3    H239183   4.566   3.515   6.037  0.4771  1.5166 -0.4982
 5898TIP3   OH239184   1.690   4.089   2.012  0.2697  0.6672 -0.3358
 5898TIP3    H139185   1.768   4.092   2.067  0.6733 -2.1355 -0.7103
 5898TIP3    H239186   1.630   4.030   2.058 -1.1749  1.8545 -0.6586
 5899TIP3   OH239187   6.756   2.039   3.434 -0.2046  0.7789  0.2342
 5899TIP3    H139188   6.709   2.112   3.474  0.0340 -0.0144  2.0054
 5899TIP3    H239189   6.727   2.040   3.342 -0.1044  3.1555  0.1777
 5900TIP3   OH239190   1.158   3.452  13.196  0.1846  0.2761  0.2207
 5900TIP3    H139191   1.118   3.446  13.109 -0.5973 -2.2990  0.7115
 5900TIP3    H239192   1.251   3.434  13.180  0.8235  4.0315 -0.6169
 5901TIP3   OH239193   4.484   0.197   6.246 -0.2243  0.0099  0.0009
 5901TIP3    H139194   4.532   0.221   6.167  0.4669  2.0106  0.9927
 5901TIP3    H239195   4.422   0.269   6.259 -0.4471 -0.3816  1.1787
 5902TIP3   OH239196   5.037   0.081  12.415  0.6168 -0.6604  0.2580
 5902TIP3    H139197   5.006  -0.009  12.413 -0.5133 -0.2952  0.7226
 5902TIP3    H239198   5.004   0.116  12.497 -0.1057  0.5718 -0.5418
 5903TIP3   OH239199   2.693   5.324   1.997  0.1399  0.0102 -0.2797
 5903TIP3    H139200   2.733   5.411   1.998  0.5900 -0.1168 -3.1989
 5903TIP3    H239201   2.655   5.316   1.910 -3.9734 -0.9412  1.5001
 5904TIP3   OH239202   5.284   2.909  11.874  0.3656 -0.2364 -0.4390
 5904TIP3    H139203   5.307   3.002  11.878 -0.9287  0.0919 -0.3980
 5904TIP3    H239204   5.354   2.870  11.821  1.0087  0.7259 -0.3247
 5905TIP3   OH239205   4.842   6.805  17.131 -0.3142  0.3462  1.4249
 5905TIP3    H139206   4.928   6.819  17.170  0.4784 -2.7489  0.9006
 5905TIP3    H239207   4.819   6.715  17.153 -1.7191 -0.1195 -1.6259
 5906TIP3   OH239208   1.079   2.340  16.301  0.3922 -0.0018 -0.5626
 5906TIP3    H139209   0.998   2.390  16.309  1.0420  0.8333  0.9669
 5906TIP3    H239210   1.110   2.357  16.212  0.0964  1.5456 -0.3748
 5907TIP3   OH239211   4.569   1.693   2.215  0.0145  0.3864 -0.2478
 5907TIP3    H139212   4.660   1.709   2.189 -0.2040  0.7654 -0.7877
 5907TIP3    H239213   4.546   1.767   2.270 -0.2700  0.7852 -0.8937
 5908TIP3   OH239214   3.295   6.498  11.338 -0.5724  0.1367  0.3002
 5908TIP3    H139215   3.389   6.482  11.330 -0.3047  1.1819  1.2104
 5908TIP3    H239216   3.267   6.519  11.249  0.7128  3.1952  0.5702
 5909TIP3   OH239217   0.185   2.116   2.411  0.3127 -0.0323  0.1019
 5909TIP3    H139218   0.107   2.163   2.439  1.0767  1.9806 -0.9722
 5909TIP3    H239219   0.182   2.121   2.315  0.2872 -2.4441 -0.0394
 5910TIP3   OH239220   2.974   4.442  12.832  0.1084  0.3491  0.3734
 5910TIP3    H139221   2.977   4.531  12.798 -0.0591  0.4118  0.5254
 5910TIP3    H239222   2.900   4.441  12.893 -0.9334 -0.3259 -0.8679
 5911TIP3   OH239223   3.788   4.768   2.927  0.2375 -0.5860 -0.4277
 5911TIP3    H139224   3.754   4.808   3.007 -1.7938 -2.3188 -0.3709
 5911TIP3    H239225   3.882   4.780   2.932  0.1571 -0.7767  2.2992
 5912TIP3   OH239226   5.378   5.551   5.700 -0.2442 -0.4140 -0.0704
 5912TIP3    H139227   5.304   5.503   5.662 -0.1106 -1.2178  0.6645
 5912TIP3    H239228   5.356   5.643   5.688 -1.8460 -0.6248  1.0513
 5913TIP3   OH239229   4.000   4.531  14.107  0.9641  0.0978  0.0079
 5913TIP3    H139230   4.071   4.512  14.168  0.8437  0.0837  0.1453
 5913TIP3    H239231   3.920   4.507  14.155  0.8637  0.1648 -0.1238
 5914TIP3   OH239232   3.327   2.412   3.356 -0.3623  0.0539 -0.4905
 5914TIP3    H139233   3.288   2.389   3.271 -0.3040  0.8851 -0.7558
 5914TIP3    H239234   3.319   2.508   3.359  1.0675  0.1656 -0.2596
 5915TIP3   OH239235   3.313   2.944   1.534 -0.0181  0.5588 -0.4256
 5915TIP3    H139236   3.276   2.859   1.560 -0.4695  0.7554 -0.4101
 5915TIP3    H239237   3.237   3.003   1.532  0.3040  0.9771 -0.3728
 5916TIP3   OH239238   0.455   5.285   5.313 -0.5140  0.1909  0.1025
 5916TIP3    H139239   0.362   5.268   5.296 -0.2102 -0.6615 -0.8240
 5916TIP3    H239240   0.467   5.266   5.406 -1.0584 -0.7799 -0.0144
 5917TIP3   OH239241   2.427   6.805  13.564 -0.2066 -0.5050 -0.1522
 5917TIP3    H139242   2.486   6.795  13.490  1.6957 -1.4339  1.4611
 5917TIP3    H239243   2.432   6.897  13.588  2.6448 -1.0849  1.6257
 5918TIP3   OH239244   0.632   3.488   5.287 -0.1121  0.4146  0.2035
 5918TIP3    H139245   0.577   3.465   5.212 -0.7407  0.8570  0.5148
 5918TIP3    H239246   0.721   3.487   5.254 -0.3235 -0.1493 -0.3582
 5919TIP3   OH239247   0.181   3.922  10.199  0.1630 -0.0341  0.1861
 5919TIP3    H139248   0.100   3.967  10.176 -0.6316 -1.5436 -0.0287
 5919TIP3    H239249   0.223   3.979  10.263 -2.4776 -0.6132  2.5265
 5920TIP3   OH239250   2.427   2.491   4.255  0.5052  0.0402  0.0647
 5920TIP3    H139251   2.383   2.492   4.169  0.0247  0.6724  0.3101
 5920TIP3    H239252   2.386   2.563   4.303 -0.4083 -1.3536  1.4228
 5921TIP3   OH239253   6.787   2.895  17.265 -0.3464 -0.1183  0.6036
 5921TIP3    H139254   6.800   2.845  17.185 -0.8071  0.1996  0.3294
 5921TIP3    H239255   6.804   2.986  17.240  0.3104 -0.1104  1.0546
 5922TIP3   OH239256   2.981   0.158   6.124 -0.2007  0.0607 -0.7415
 5922TIP3    H139257   2.982   0.104   6.203  0.5993 -0.9672 -1.4407
 5922TIP3    H239258   3.040   0.230   6.144 -0.3185  0.0237 -0.2480
 5923TIP3   OH239259   4.651   4.889  12.168  0.6335  0.2657  0.1395
 5923TIP3    H139260   4.654   4.793  12.170  2.0848  0.2833 -0.9032
 5923TIP3    H239261   4.728   4.916  12.217  0.5775  0.9159 -0.1316
 5924TIP3   OH239262   0.390   2.038  13.700 -0.0721 -0.4817  0.3989
 5924TIP3    H139263   0.397   2.133  13.710  0.2422 -0.2693 -1.5786
 5924TIP3    H239264   0.297   2.019  13.709 -0.4361  0.3263 -1.3732
 5925TIP3   OH239265   0.204   5.360   3.379 -0.1955  0.1582 -0.3977
 5925TIP3    H139266   0.217   5.349   3.474 -0.3297  0.1352 -0.3815
 5925TIP3    H239267   0.217   5.273   3.343  1.5928  0.4931 -0.6066
 5926TIP3   OH239268   1.682   0.910  13.293 -0.1755  0.2719  0.7592
 5926TIP3    H139269   1.619   0.953  13.235 -0.3563 -1.8057 -0.6334
 5926TIP3    H239270   1.628   0.864  13.357 -0.0363 -0.1274  0.5885
 5927TIP3   OH239271   4.103   4.415   3.444 -0.0847 -0.2023  0.1831
 5927TIP3    H139272   4.075   4.327   3.469  0.8959 -0.5827 -0.0269
 5927TIP3    H239273   4.083   4.420   3.350 -1.8729  0.4883  0.5789
 5928TIP3   OH239274   1.760   1.235  16.303 -0.3715 -0.0605  0.3318
 5928TIP3    H139275   1.839   1.181  16.315 -0.6941 -0.4269  0.8221
 5928TIP3    H239276   1.710   1.222  16.384 -0.7439  0.4960  0.1909
 5929TIP3   OH239277   1.492   1.575   2.218 -0.2485  0.1052  0.1914
 5929TIP3    H139278   1.500   1.479   2.222  0.5703  0.2363  1.7172
 5929TIP3    H239279   1.574   1.604   2.177 -0.4310  0.1665 -0.1305
 5930TIP3   OH239280   2.286   2.816   1.585 -0.1323  0.2233 -0.1818
 5930TIP3    H139281   2.219   2.751   1.603 -2.2810  1.4149 -3.3158
 5930TIP3    H239282   2.303   2.808   1.491  0.6002  3.1529 -0.3672
 5931TIP3   OH239283   3.537   5.783  10.871  0.8312  0.3322  0.1227
 5931TIP3    H139284   3.524   5.862  10.924  2.3902  0.4648  0.3326
 5931TIP3    H239285   3.484   5.796  10.793  0.1296  1.0524  0.7227
 5932TIP3   OH239286   2.835   1.989  16.500 -0.2299 -0.1464 -0.0889
 5932TIP3    H139287   2.903   2.009  16.563 -0.4590 -1.3356  0.5361
 5932TIP3    H239288   2.810   2.074  16.464  0.0089  0.5192  1.3033
 5933TIP3   OH239289   4.246   0.961  10.688  0.2642  0.4960 -0.0371
 5933TIP3    H139290   4.187   0.895  10.650 -1.1123  0.6367  1.7738
 5933TIP3    H239291   4.305   0.985  10.617 -1.5738 -0.0117 -1.7640
 5934TIP3   OH239292   4.619   6.205  14.982 -0.3616  0.0826  0.2334
 5934TIP3    H139293   4.573   6.144  15.040 -0.5924 -0.3355 -0.3859
 5934TIP3    H239294   4.625   6.159  14.898 -0.6636  0.9625 -0.2771
 5935TIP3   OH239295   1.763   0.094  16.898  0.2446 -0.2664 -0.2897
 5935TIP3    H139296   1.858   0.082  16.891  0.2247 -0.3438 -0.4386
 5935TIP3    H239297   1.752   0.161  16.965  0.3920 -0.5104 -0.0233
 5936TIP3   OH239298   0.514   6.462  15.766  0.0239  0.1702 -0.5328
 5936TIP3    H139299   0.555   6.425  15.688  1.4115  0.0503  0.2214
 5936TIP3    H239300   0.570   6.536  15.789  0.2413 -0.4163  0.9233
 5937TIP3   OH239301   6.513   3.128   3.542 -0.3500 -0.4555  0.4864
 5937TIP3    H139302   6.486   3.036   3.552 -0.6236 -0.4422 -0.1104
 5937TIP3    H239303   6.440   3.170   3.497  0.0429 -0.0869  0.1815
 5938TIP3   OH239304   0.834   2.193   0.982  0.5094  0.5983  0.1969
 5938TIP3    H139305   0.844   2.166   0.891 -0.3523 -0.3817  0.3765
 5938TIP3    H239306   0.903   2.145   1.029  1.1692  1.3629  0.0177
 5939TIP3   OH239307   0.461   4.206   5.523  0.1215  0.0383  0.0533
 5939TIP3    H139308   0.420   4.157   5.595  1.0633 -0.7043  0.1042
 5939TIP3    H239309   0.499   4.138   5.467  1.7156  0.7042  0.2913
 5940TIP3   OH239310   2.389   4.476   5.700  0.1892  0.5986  0.0262
 5940TIP3    H139311   2.450   4.404   5.688 -1.4089 -0.5918 -1.0350
 5940TIP3    H239312   2.441   4.544   5.744  2.0846 -0.6243 -0.2786
 5941TIP3   OH239313   4.948   4.926   0.478 -0.0310 -0.0952 -0.1172
 5941TIP3    H139314   5.003   4.997   0.509 -1.1210  0.9209 -0.4729
 5941TIP3    H239315   4.858   4.957   0.492 -0.5243 -1.8925  0.8550
 5942TIP3   OH239316   5.769   6.116  15.670  0.4079  0.5439 -1.0198
 5942TIP3    H139317   5.859   6.139  15.694  0.3441 -0.4753  0.2580
 5942TIP3    H239318   5.779   6.051  15.601  0.6844 -0.4902 -0.0213
 5943TIP3   OH239319   0.757   4.868  14.652 -0.1763  0.1398 -0.2762
 5943TIP3    H139320   0.669   4.840  14.680 -0.5909  0.2974 -1.4094
 5943TIP3    H239321   0.747   4.961  14.633  1.0107  0.9293  2.7045
 5944TIP3   OH239322   4.626   5.639   3.783 -0.1312 -0.1759 -0.8202
 5944TIP3    H139323   4.652   5.727   3.755 -0.6630 -0.1496 -1.2445
 5944TIP3    H239324   4.707   5.588   3.781 -0.0072  0.0384 -1.6140
 5945TIP3   OH239325   5.261   1.850   0.742  0.2166  0.0324 -0.6251
 5945TIP3    H139326   5.242   1.826   0.651  0.8187 -0.7412 -0.5448
 5945TIP3    H239327   5.350   1.884   0.740 -0.1942  1.1435 -0.5272
 5946TIP3   OH239328   1.721   2.304   4.600  0.8277  0.0094 -0.2130
 5946TIP3    H139329   1.640   2.300   4.651  1.2562  3.3677  0.8051
 5946TIP3    H239330   1.780   2.243   4.646 -0.4876 -1.0660  0.1131
 5947TIP3   OH239331   2.252   6.014  13.685  0.1528  0.0899 -0.3062
 5947TIP3    H139332   2.180   5.987  13.628  0.7827  2.7487 -2.4825
 5947TIP3    H239333   2.298   5.933  13.706 -1.4809 -1.2233 -1.6870
 5948TIP3   OH239334   2.951   4.716  12.772  0.1063  0.4907  0.1753
 5948TIP3    H139335   2.862   4.716  12.738 -0.0583 -0.7972  0.5784
 5948TIP3    H239336   3.004   4.751  12.700 -0.4829 -0.3893 -0.7016
 5949TIP3   OH239337   2.078   1.151   2.976 -0.3358  0.4092 -0.1867
 5949TIP3    H139338   2.066   1.115   3.064  1.8528  0.0558 -0.0139
 5949TIP3    H239339   2.010   1.109   2.924 -1.4701  0.3969  1.2594
 5950TIP3   OH239340   1.183   5.347   4.115 -0.6059  0.7255  0.0173
 5950TIP3    H139341   1.218   5.277   4.059 -0.3328  0.6398  0.2992
 5950TIP3    H239342   1.164   5.303   4.198  0.4184  1.1827  0.4940
 5951TIP3   OH239343   4.412   3.061  16.248 -0.1671  0.0713  0.0961
 5951TIP3    H139344   4.368   2.978  16.265  1.1777 -0.5069  0.8651
 5951TIP3    H239345   4.385   3.117  16.320 -0.1392 -0.0886  0.2332
 5952TIP3   OH239346   3.785   5.386  17.038  0.0209 -0.0590  0.2998
 5952TIP3    H139347   3.849   5.381  17.109 -0.0872 -0.3037  0.3815
 5952TIP3    H239348   3.726   5.458  17.063  0.6582  0.6160 -0.1006
 5953TIP3   OH239349   5.611   5.386  12.309  0.3612  0.4141  0.0310
 5953TIP3    H139350   5.700   5.422  12.308 -0.5533  2.8027 -1.4072
 5953TIP3    H239351   5.612   5.317  12.243  1.3338 -0.1271  0.5889
 5954TIP3   OH239352   4.890   0.559   1.700  1.0550  0.0959  0.5208
 5954TIP3    H139353   4.859   0.472   1.724 -0.5734  1.1978  2.5919
 5954TIP3    H239354   4.878   0.564   1.606 -0.5538 -1.2751  0.6329
 5955TIP3   OH239355   0.194   0.725  13.875 -0.3618  0.7689 -0.2030
 5955TIP3    H139356   0.218   0.735  13.783 -1.0479 -1.9881 -0.7412
 5955TIP3    H239357   0.257   0.661  13.908 -1.8839 -0.3998  0.4841
 5956TIP3   OH239358   5.801   0.170   4.785 -0.0182  0.0852 -0.4108
 5956TIP3    H139359   5.760   0.140   4.704 -0.7331  0.0650 -0.0475
 5956TIP3    H239360   5.838   0.091   4.824  1.4853  0.3013 -1.3651
 5957TIP3   OH239361   4.755   2.249   3.610  0.4846 -0.5312  0.7069
 5957TIP3    H139362   4.824   2.230   3.674  1.3085 -0.6516 -0.1978
 5957TIP3    H239363   4.703   2.169   3.604  1.4374 -1.1130 -0.0212
 5958TIP3   OH239364   3.246   1.556  15.226 -0.0197  0.0588 -0.5177
 5958TIP3    H139365   3.303   1.535  15.299 -0.7689 -0.4022 -0.0572
 5958TIP3    H239366   3.260   1.485  15.163 -0.8687 -0.6479  0.0637
 5959TIP3   OH239367   1.586   5.451  13.509  0.6687 -0.3849 -0.0808
 5959TIP3    H139368   1.580   5.499  13.592 -0.9998 -1.0062  0.1951
 5959TIP3    H239369   1.516   5.487  13.455  1.5995 -0.1480 -1.1459
 5960TIP3   OH239370   5.634   3.504   5.042 -0.7100  0.5108  0.0428
 5960TIP3    H139371   5.698   3.550   4.988  0.5160 -2.0007 -0.7067
 5960TIP3    H239372   5.683   3.477   5.120 -0.6849 -1.7729 -0.7182
 5961TIP3   OH239373   4.761   0.470   4.966 -0.7653  0.7337 -0.3908
 5961TIP3    H139374   4.832   0.528   4.938 -0.2793 -0.3656 -1.4740
 5961TIP3    H239375   4.700   0.471   4.893 -0.5056 -0.5207 -0.6256
 5962TIP3   OH239376   1.897   0.742  13.291  0.1375  0.3204  0.7054
 5962TIP3    H139377   1.906   0.714  13.382 -0.8451  0.9274  1.0029
 5962TIP3    H239378   1.847   0.823  13.297  0.8829  0.8618 -0.3151
 5963TIP3   OH239379   2.333   6.683   3.375  0.4954 -0.3009 -0.5625
 5963TIP3    H139380   2.394   6.682   3.449 -0.6782  0.8249  0.4137
 5963TIP3    H239381   2.357   6.761   3.325  1.1616 -0.9568 -1.2990
 5964TIP3   OH239382   0.285   2.765  16.871  0.1507  0.1487 -0.0874
 5964TIP3    H139383   0.196   2.789  16.897  0.7747  0.3318  1.9702
 5964TIP3    H239384   0.330   2.849  16.860  0.8466  0.0204  1.7212
 5965TIP3   OH239385   2.461   6.271   0.665  0.1525  0.4289 -0.3812
 5965TIP3    H139386   2.504   6.250   0.747  0.2114 -1.0967 -0.8015
 5965TIP3    H239387   2.367   6.275   0.686  0.1408 -0.2809 -0.3167
 5966TIP3   OH239388   1.935   6.222  10.508  0.0264 -0.2021  0.0982
 5966TIP3    H139389   1.976   6.136  10.510 -1.5686 -0.9817  2.7726
 5966TIP3    H239390   2.007   6.284  10.498  1.2793 -1.8039 -0.8168
 5967TIP3   OH239391   4.122   1.854  12.231  0.0666  0.1917 -0.2957
 5967TIP3    H139392   4.177   1.823  12.159  0.4059 -0.2036  0.1386
 5967TIP3    H239393   4.068   1.922  12.191 -0.6436 -0.9043 -1.2435
 5968TIP3   OH239394   6.195   2.757  12.800  0.1391  0.7878 -0.3323
 5968TIP3    H139395   6.289   2.744  12.784  0.0513  1.8678 -1.7742
 5968TIP3    H239396   6.176   2.701  12.875  1.9691  0.6559  0.0556
 5969TIP3   OH239397   0.424   3.211   0.492 -0.1507  0.0052 -0.3532
 5969TIP3    H139398   0.418   3.306   0.498 -0.6731  0.0598 -1.5184
 5969TIP3    H239399   0.361   3.179   0.556  0.7329  0.4256  0.7413
 5970TIP3   OH239400   3.386   2.935  14.655  0.0563 -0.1471  0.2158
 5970TIP3    H139401   3.374   2.925  14.749  1.5376  0.5439  0.4953
 5970TIP3    H239402   3.434   3.017  14.646 -1.1342  0.4096 -1.2261
 5971TIP3   OH239403   3.991   3.402  13.512  0.1752 -0.2461  0.3144
 5971TIP3    H139404   4.042   3.443  13.442 -0.7777  1.4234  0.5680
 5971TIP3    H239405   4.058   3.369  13.573  1.0094 -2.0882 -1.5532
 5972TIP3   OH239406   1.522   6.787  15.556 -0.4438 -0.4787  0.3758
 5972TIP3    H139407   1.487   6.819  15.638  0.1024 -1.2396  0.9178
 5972TIP3    H239408   1.590   6.725  15.582  1.4373  1.1005 -0.6359
 5973TIP3   OH239409   2.984   0.342   5.142  0.4709 -0.0673  0.0751
 5973TIP3    H139410   2.909   0.287   5.166  0.1485  0.3466  0.0218
 5973TIP3    H239411   3.015   0.306   5.059 -0.0311  0.1156 -0.1975
 5974TIP3   OH239412   0.544   6.750   1.836  0.1530  0.0457 -0.0465
 5974TIP3    H139413   0.515   6.661   1.816 -1.1759  0.4971 -0.1756
 5974TIP3    H239414   0.512   6.803   1.763  2.7692  0.3058 -1.0361
 5975TIP3   OH239415   2.382   2.798   2.401  0.1971 -0.3021 -0.0512
 5975TIP3    H139416   2.326   2.791   2.323 -0.1670  0.3008  0.1490
 5975TIP3    H239417   2.325   2.774   2.474 -0.7653  3.3423  0.5190
 5976TIP3   OH239418   1.264   3.842   1.548 -0.0711  0.7078  0.1946
 5976TIP3    H139419   1.290   3.869   1.636 -1.5053 -0.4415  0.9928
 5976TIP3    H239420   1.191   3.899   1.527 -0.6273  0.0486  0.3245
 5977TIP3   OH239421   5.256   0.392  14.934 -0.0469 -0.1968 -0.3458
 5977TIP3    H139422   5.270   0.349  15.018 -2.3116 -0.1826  0.0892
 5977TIP3    H239423   5.200   0.331  14.886  0.5020  0.1976 -1.5015
 5978TIP3   OH239424   1.727   6.796  13.581  0.1123 -0.0032  0.0990
 5978TIP3    H139425   1.706   6.754  13.498  0.3799  1.5016 -0.7484
 5978TIP3    H239426   1.772   6.729  13.632 -0.9028 -1.2270 -0.5906
 5979TIP3   OH239427   6.271   2.260   0.424  0.1150  0.7885 -0.0188
 5979TIP3    H139428   6.178   2.238   0.429  0.5495 -1.3051 -0.6132
 5979TIP3    H239429   6.309   2.220   0.502  0.5923  1.3460  0.0392
 5980TIP3   OH239430   2.174   2.943   5.310  0.0259 -0.1113 -0.3620
 5980TIP3    H139431   2.087   2.919   5.343 -1.2487  1.4455 -2.4786
 5980TIP3    H239432   2.233   2.879   5.349 -2.0311 -0.9973  1.3690
 5981TIP3   OH239433   4.694   3.013  11.762  0.0717 -0.4779  0.2245
 5981TIP3    H139434   4.629   2.978  11.823 -0.2060 -0.2917  0.0324
 5981TIP3    H239435   4.709   2.943  11.699  1.3604 -1.1877  1.2802
 5982TIP3   OH239436   2.923   1.745   2.063  0.1412 -0.3178  0.1622
 5982TIP3    H139437   2.997   1.801   2.088 -0.4760  0.6992 -0.2937
 5982TIP3    H239438   2.949   1.708   1.979  0.9518 -1.4575  0.9000
 5983TIP3   OH239439   5.210   6.351  14.545 -0.2934  0.1453 -0.0754
 5983TIP3    H139440   5.208   6.333  14.451 -0.6012  0.1774 -0.0771
 5983TIP3    H239441   5.126   6.319  14.576  0.4167 -1.2807  0.4526
 5984TIP3   OH239442   4.553   3.773  13.032 -0.0240  0.3716  0.5802
 5984TIP3    H139443   4.533   3.749  13.123  0.2319  2.0996  1.1075
 5984TIP3    H239444   4.558   3.869  13.033 -0.5127  0.4384 -1.3603
 5985TIP3   OH239445   1.604   3.276   0.250 -0.4925  0.2104  0.3245
 5985TIP3    H139446   1.557   3.192   0.260  1.6781 -1.0429  0.2713
 5985TIP3    H239447   1.566   3.315   0.171 -2.1321 -0.3107  0.8314
 5986TIP3   OH239448   4.156   3.176   0.711  0.1693 -0.1410 -0.4436
 5986TIP3    H139449   4.233   3.226   0.684  0.3745 -1.3579 -2.2512
 5986TIP3    H239450   4.189   3.112   0.774  0.5372 -0.2250 -0.7202
 5987TIP3   OH239451   6.561   1.739  13.873 -0.1242 -0.0090 -0.4609
 5987TIP3    H139452   6.473   1.763  13.844 -0.1732  0.9124  0.4369
 5987TIP3    H239453   6.585   1.665  13.817 -0.8438  0.7280 -1.7755
 5988TIP3   OH239454   5.609   5.651  11.062  0.1470  0.2405 -0.5018
 5988TIP3    H139455   5.634   5.578  11.006 -0.3486 -0.1848 -0.1694
 5988TIP3    H239456   5.610   5.616  11.151  1.2455  1.0059 -0.2129
 5989TIP3   OH239457   6.696   5.717   3.987 -0.3720 -0.1322  0.1437
 5989TIP3    H139458   6.774   5.712   4.042  0.0708  0.2581 -0.4363
 5989TIP3    H239459   6.682   5.628   3.957  0.5006 -0.0218 -0.6264
 5990TIP3   OH239460   2.644   2.241   5.412 -0.2179 -0.0963 -0.2483
 5990TIP3    H139461   2.727   2.216   5.453 -0.1171 -0.3960 -0.6393
 5990TIP3    H239462   2.667   2.312   5.352 -0.3609  0.3156  0.1727
 5991TIP3   OH239463   0.224   0.021  15.829  0.0693  0.0370  0.1936
 5991TIP3    H139464   0.275   0.037  15.749 -1.3791  0.2881 -0.6999
 5991TIP3    H239465   0.255  -0.064  15.861  1.4201  0.4347 -0.0280
 5992TIP3   OH239466   1.985   1.731   3.376  0.2312 -0.3859  0.0314
 5992TIP3    H139467   2.009   1.797   3.441 -1.5464 -0.5622  0.8921
 5992TIP3    H239468   2.062   1.725   3.319  1.2140  0.9067  1.1751
 5993TIP3   OH239469   6.342   4.826  13.265  0.4712 -0.1769  0.5851
 5993TIP3    H139470   6.366   4.875  13.186 -1.7246  0.9387  0.5642
 5993TIP3    H239471   6.293   4.751  13.232  1.5129 -0.9631  0.7844
 5994TIP3   OH239472   6.213   3.435   4.682 -0.2658 -0.0868 -0.0259
 5994TIP3    H139473   6.196   3.525   4.653 -0.2506 -0.6246 -1.7259
 5994TIP3    H239474   6.145   3.419   4.748 -0.3440  1.1302  0.2181
 5995TIP3   OH239475   2.362   4.700   1.913  0.0396  0.4597  0.9021
 5995TIP3    H139476   2.359   4.699   1.817  1.1442  1.9976  0.8321
 5995TIP3    H239477   2.279   4.661   1.940  0.9042 -2.5612 -0.6714
 5996TIP3   OH239478   2.021   5.219  12.997  0.2733 -0.3363 -0.0178
 5996TIP3    H139479   2.050   5.143  12.946  1.9734  0.1659  0.1539
 5996TIP3    H239480   2.068   5.211  13.080 -1.8283 -0.6882  1.1653
 5997TIP3   OH239481   3.099   1.699   0.158  0.4404 -0.0791 -0.0513
 5997TIP3    H139482   3.046   1.778   0.174  1.4891  1.1283 -2.3143
 5997TIP3    H239483   3.187   1.732   0.143  1.4714 -1.9269  1.6664
 5998TIP3   OH239484   1.180   2.653  15.652 -0.2463 -0.1799  0.0784
 5998TIP3    H139485   1.261   2.679  15.607 -0.1130  0.8157  0.8594
 5998TIP3    H239486   1.202   2.658  15.745 -1.2399  0.2433  0.3009
 5999TIP3   OH239487   3.267   1.452   6.117  0.8901  0.2426  0.0485
 5999TIP3    H139488   3.234   1.375   6.163  1.9338  0.8121  1.7791
 5999TIP3    H239489   3.357   1.462   6.148  0.8179  2.0640 -0.2645
 6000TIP3   OH239490   5.259   0.276  16.360 -0.4045 -0.1284  0.1157
 6000TIP3    H139491   5.216   0.280  16.275  2.7623 -1.3600 -1.6378
 6000TIP3    H239492   5.343   0.319  16.346 -0.6456  1.4654  3.1909
 6001TIP3   OH239493   4.691   2.695   5.263 -0.2643  0.4621 -0.9883
 6001TIP3    H139494   4.667   2.622   5.320  0.9256  1.7149  1.1688
 6001TIP3    H239495   4.611   2.748   5.257 -0.1300  0.8292  0.3150
 6002TIP3   OH239496   4.941   4.307  12.484  0.3229  0.3787 -0.5341
 6002TIP3    H139497   4.974   4.277  12.399  0.1143 -1.6181  0.0592
 6002TIP3    H239498   4.851   4.336  12.466 -0.0146 -0.8303 -0.8640
 6003TIP3   OH239499   6.190   5.259   1.885  0.6093  0.0124 -0.0283
 6003TIP3    H139500   6.150   5.301   1.962 -2.1346 -0.2442 -1.2372
 6003TIP3    H239501   6.163   5.167   1.892  0.1738  0.0297 -1.3723
 6004TIP3   OH239502   0.189   6.747  15.220  0.2554  0.2623  0.0622
 6004TIP3    H139503   0.137   6.705  15.289  1.7758 -1.1164  0.3987
 6004TIP3    H239504   0.125   6.770  15.153 -0.8043 -1.2898  0.5195
 6005TIP3   OH239505   0.356   3.201  11.470 -0.1223  0.4541  0.0147
 6005TIP3    H139506   0.405   3.281  11.449 -0.2032  0.3994 -0.3904
 6005TIP3    H239507   0.322   3.172  11.386  0.2735 -0.2521  0.0992
 6006TIP3   OH239508   0.017   4.462   5.466  0.8077  0.3890  0.2201
 6006TIP3    H139509  -0.015   4.452   5.555 -0.8709  0.8535 -0.3127
 6006TIP3    H239510   0.070   4.384   5.450  0.6099  0.0064  1.4067
 6007TIP3   OH239511   1.966   6.438  11.771 -0.2996  0.1665 -0.0115
 6007TIP3    H139512   1.958   6.515  11.715 -1.3123 -0.1355 -0.2945
 6007TIP3    H239513   2.060   6.419  11.773  0.0922  2.0861  0.9901
 6008TIP3   OH239514   1.327   5.264   2.888 -0.1620  0.4083  0.9841
 6008TIP3    H139515   1.339   5.170   2.901 -1.5820  0.3003  1.6233
 6008TIP3    H239516   1.294   5.296   2.972 -5.3013  0.4371 -0.8298
 6009TIP3   OH239517   3.815   2.400  15.931 -0.0306 -0.1148 -0.1316
 6009TIP3    H139518   3.873   2.431  16.000  1.8010 -1.9074 -0.8249
 6009TIP3    H239519   3.824   2.305  15.934 -0.7847 -0.2579 -2.1295
 6010TIP3   OH239520   2.646   3.294   2.708 -0.0910  0.0108  0.5296
 6010TIP3    H139521   2.649   3.370   2.766 -0.1198  0.5099 -0.1201
 6010TIP3    H239522   2.726   3.301   2.656 -1.4711  1.1632 -1.5006
 6011TIP3   OH239523   2.545   2.721  16.171 -0.0280  0.7520  0.6019
 6011TIP3    H139524   2.579   2.810  16.162  1.1421  0.1608 -1.2156
 6011TIP3    H239525   2.478   2.727  16.238 -1.0983  3.3170 -0.6484
 6012TIP3   OH239526   3.126   0.447  15.246 -0.1388 -0.3904 -0.2506
 6012TIP3    H139527   3.143   0.419  15.335  1.3257  0.3131 -0.2936
 6012TIP3    H239528   3.034   0.424  15.230 -1.5630  2.8224  2.7111
 6013TIP3   OH239529   0.666   3.027  13.276 -0.0117 -0.4269  0.1545
 6013TIP3    H139530   0.660   2.984  13.191  0.4639 -0.6167  0.2186
 6013TIP3    H239531   0.665   3.121  13.255 -0.3431 -0.4688 -0.0280
 6014TIP3   OH239532   6.631   3.976  13.816 -0.0934  0.4237  0.1814
 6014TIP3    H139533   6.682   4.031  13.757 -0.7589  0.2640 -0.5615
 6014TIP3    H239534   6.687   3.901  13.834  0.6190  1.1033  0.7913
 6015TIP3   OH239535   2.782   1.262  16.393  0.3835  0.0136 -0.3394
 6015TIP3    H139536   2.793   1.341  16.340  1.1845  0.3996  0.3993
 6015TIP3    H239537   2.694   1.231  16.371 -0.9103  2.4719  1.1892
 6016TIP3   OH239538   3.483   6.697   2.165 -0.3706 -0.3443 -0.8230
 6016TIP3    H139539   3.511   6.640   2.094  1.2975 -0.0561 -0.4096
 6016TIP3    H239540   3.564   6.723   2.209 -1.2607  0.7404  0.2151
 6017TIP3   OH239541   5.283   5.660   0.220  0.0306 -0.0343 -0.0165
 6017TIP3    H139542   5.293   5.634   0.128 -2.1309 -0.2904 -0.2126
 6017TIP3    H239543   5.368   5.697   0.244  0.6813 -0.1340 -2.0609
 6018TIP3   OH239544   2.065   2.384   3.366  0.0141 -0.5131 -0.5296
 6018TIP3    H139545   2.096   2.296   3.344  0.0810 -0.8747  0.9353
 6018TIP3    H239546   2.125   2.443   3.321  1.0226 -1.2196 -0.1309
 6019TIP3   OH239547   4.543   1.273  13.856  0.0860  0.0911 -0.9295
 6019TIP3    H139548   4.618   1.216  13.836  1.1587  0.3549  2.0284
 6019TIP3    H239549   4.553   1.294  13.949 -3.8951 -0.1437 -0.3618
 6020TIP3   OH239550   2.745   6.087  16.873 -0.1470 -0.1575  0.0801
 6020TIP3    H139551   2.820   6.058  16.925  0.0660  0.2176 -0.0199
 6020TIP3    H239552   2.779   6.156  16.817  0.0734 -1.8097 -1.8861
 6021TIP3   OH239553   0.743   3.333  13.344 -0.7571  0.0303 -0.3311
 6021TIP3    H139554   0.704   3.411  13.304 -1.4765 -0.5645 -0.7958
 6021TIP3    H239555   0.691   3.317  13.422  0.9779  1.5081  1.2055
 6022TIP3   OH239556   2.517   2.641   1.529 -0.0266  0.0696  0.0447
 6022TIP3    H139557   2.587   2.622   1.592 -0.2364 -0.4366  0.1283
 6022TIP3    H239558   2.507   2.560   1.479 -0.7317  0.0554  0.2068
 6023TIP3   OH239559   5.253   2.002  16.222 -0.9512  0.6803 -0.4964
 6023TIP3    H139560   5.186   2.067  16.202 -1.4111 -0.0335 -1.3168
 6023TIP3    H239561   5.223   1.922  16.179  0.9913  0.6333 -1.8337
 6024TIP3   OH239562   1.771   2.705  12.137  0.0022 -0.1356  0.1740
 6024TIP3    H139563   1.781   2.695  12.042  2.3001 -0.7043  0.4452
 6024TIP3    H239564   1.694   2.653  12.158  0.0585 -0.8357 -1.2542
 6025TIP3   OH239565   4.692   4.233   0.385  0.1729 -0.2248  0.1191
 6025TIP3    H139566   4.662   4.251   0.474 -0.8268 -0.2652 -0.2011
 6025TIP3    H239567   4.786   4.250   0.386  0.1236 -0.0438  1.1318
 6026TIP3   OH239568   5.937   2.486  10.878 -0.1653  0.4492  0.1223
 6026TIP3    H139569   5.972   2.565  10.920 -0.7822  2.0469 -2.3025
 6026TIP3    H239570   6.014   2.433  10.860  0.3226  0.7902  1.1348
 6027TIP3   OH239571   1.916   0.888   2.591  0.5562  0.0605 -0.6282
 6027TIP3    H139572   1.881   0.887   2.502  0.7040 -1.6520 -0.6852
 6027TIP3    H239573   1.888   0.805   2.629  1.8382  0.0733  0.3964
 6028TIP3   OH239574   2.923   4.304   2.423 -0.2003 -0.0268 -0.0567
 6028TIP3    H139575   2.985   4.331   2.491 -1.2294  0.6417  0.6185
 6028TIP3    H239576   2.914   4.210   2.436  0.4880 -0.0951 -0.0136
 6029TIP3   OH239577   2.900   5.314  17.007  0.3779  0.4961  0.5655
 6029TIP3    H139578   2.840   5.376  16.965 -1.0292 -1.2830 -0.1399
 6029TIP3    H239579   2.987   5.351  16.994 -0.4745  2.4969  0.4764
 6030TIP3   OH239580   0.435   6.252  15.096  0.1856  0.1400  0.2466
 6030TIP3    H139581   0.490   6.204  15.159 -2.2070 -1.9780  0.7813
 6030TIP3    H239582   0.446   6.205  15.014  1.6511  1.6528 -0.4539
 6031TIP3   OH239583   4.727   2.401   1.785  0.3616  0.4723 -0.5630
 6031TIP3    H139584   4.765   2.478   1.826  2.5603 -1.6424  1.5907
 6031TIP3    H239585   4.638   2.396   1.818  0.5439  1.4883  0.0893
 6032TIP3   OH239586   5.549   3.759   1.973  0.1422  0.0641 -0.5747
 6032TIP3    H139587   5.617   3.784   1.910  0.8136  1.6806  0.7437
 6032TIP3    H239588   5.594   3.756   2.057 -0.9544 -1.0980 -0.0141
 6033TIP3   OH239589   4.666   0.574  15.046  0.0471 -0.3470  0.2379
 6033TIP3    H139590   4.694   0.665  15.047  0.5018 -0.4836  0.2019
 6033TIP3    H239591   4.687   0.542  15.134  2.9755 -1.3276 -0.7417
 6034TIP3   OH239592   3.962   5.472  16.829  0.4748  0.0626  0.0904
 6034TIP3    H139593   4.049   5.451  16.862  0.3253  0.1192  0.5236
 6034TIP3    H239594   3.902   5.445  16.898  0.2109  0.9212  0.2113
 6035TIP3   OH239595   2.147   4.222  15.416  0.2133  0.1619 -0.0094
 6035TIP3    H139596   2.201   4.250  15.342  0.2593  1.1501  0.3888
 6035TIP3    H239597   2.184   4.268  15.491  0.4382 -1.1837  0.7044
 6036TIP3   OH239598   1.169   5.623  11.532 -0.0713  0.4316  1.0365
 6036TIP3    H139599   1.075   5.633  11.548  0.1389  1.0041  1.9763
 6036TIP3    H239600   1.208   5.703  11.567  0.7116  0.4747  0.1032
 6037TIP3   OH239601   2.748   1.644  14.943  0.4006  0.0697 -0.3728
 6037TIP3    H139602   2.690   1.720  14.948 -0.0579 -0.1815 -1.7403
 6037TIP3    H239603   2.759   1.616  15.033  0.1826  1.4753  0.1001
 6038TIP3   OH239604   4.726   1.898  13.944  0.6111  0.5563  0.0496
 6038TIP3    H139605   4.708   1.876  13.852 -0.5103  1.5152  0.0216
 6038TIP3    H239606   4.821   1.899  13.951  0.7242 -2.6047 -0.3424
 6039TIP3   OH239607   0.205   3.509   5.133 -0.2240  0.2694 -0.4114
 6039TIP3    H139608   0.241   3.521   5.220  1.0083 -0.1786 -0.8510
 6039TIP3    H239609   0.167   3.422   5.134  1.4356 -0.4718 -0.8809
 6040TIP3   OH239610   6.472   3.414   4.598 -0.6486 -0.2732 -0.1367
 6040TIP3    H139611   6.380   3.436   4.610 -0.2798  0.4584  1.5148
 6040TIP3    H239612   6.477   3.320   4.619 -0.6776  0.1537  1.9372
 6041TIP3   OH239613   1.686   2.267   3.178  0.2161 -0.4339  0.1947
 6041TIP3    H139614   1.737   2.236   3.104 -0.7034  1.0518 -1.0908
 6041TIP3    H239615   1.620   2.199   3.192 -1.3811  0.5930 -2.1841
 6042TIP3   OH239616   1.902   4.526  14.522 -0.2691 -0.0164  0.4914
 6042TIP3    H139617   1.875   4.479  14.600  0.5334  0.0286  0.8065
 6042TIP3    H239618   1.834   4.591  14.507 -1.6728 -1.6111 -0.2625
 6043TIP3   OH239619   5.155   6.091   4.690  0.2347  0.1086  0.1305
 6043TIP3    H139620   5.209   6.142   4.749  0.5564 -0.4057  0.2908
 6043TIP3    H239621   5.093   6.045   4.747 -0.1584  0.4439 -0.0240
 6044TIP3   OH239622   1.967   4.775  14.856 -0.1203  0.4741 -0.3419
 6044TIP3    H139623   1.938   4.684  14.866  0.0843  0.4964  0.5701
 6044TIP3    H239624   1.888   4.824  14.833 -0.3057  0.1271 -0.4401
 6045TIP3   OH239625   1.753   2.072   5.047  0.2289  0.2321 -0.7253
 6045TIP3    H139626   1.705   1.991   5.059 -0.5587  0.6851 -0.8157
 6045TIP3    H239627   1.720   2.131   5.115  0.8722  0.4488 -0.5894
 6046TIP3   OH239628   5.177   5.899   3.810  0.2006  0.2189  0.1030
 6046TIP3    H139629   5.147   5.878   3.898 -3.5935 -1.4366 -1.4579
 6046TIP3    H239630   5.257   5.848   3.798 -0.6178 -1.4655  1.7074
 6047TIP3   OH239631   5.685   2.595  15.434  0.5831  0.2485  0.4421
 6047TIP3    H139632   5.772   2.597  15.474  1.1062 -0.4233 -0.6233
 6047TIP3    H239633   5.699   2.631  15.346 -0.2308  0.1988  0.2895
 6048TIP3   OH239634   1.882   4.285  14.065  0.3444  0.7487  0.2944
 6048TIP3    H139635   1.830   4.221  14.114 -1.3278  1.7214 -0.1597
 6048TIP3    H239636   1.820   4.356  14.046  2.0354  2.2755  0.3695
 6049TIP3   OH239637   3.484   4.328   4.910  0.8201  0.0108  0.1805
 6049TIP3    H139638   3.499   4.412   4.866  2.6977 -0.2244  0.3293
 6049TIP3    H239639   3.388   4.319   4.914  0.6221  1.4920 -1.0506
 6050TIP3   OH239640   6.683   2.868   4.765  0.1026  0.4751  0.3394
 6050TIP3    H139641   6.680   2.774   4.785  0.1920  0.2917 -0.5206
 6050TIP3    H239642   6.674   2.873   4.670  3.2392  1.1545  0.0140
 6051TIP3   OH239643   4.233   0.618   5.722 -0.5391 -0.2302 -0.2778
 6051TIP3    H139644   4.183   0.588   5.646  0.2324 -0.4350 -0.7108
 6051TIP3    H239645   4.196   0.703   5.744 -1.0067 -0.3354 -0.6665
 6052TIP3   OH239646   3.801   4.578   4.644  0.6844 -0.1016 -0.3735
 6052TIP3    H139647   3.727   4.626   4.682  0.3547 -0.0464 -1.0778
 6052TIP3    H239648   3.826   4.515   4.712  0.0141 -0.0985 -0.1199
 6053TIP3   OH239649   0.051   3.622   5.374 -0.4463 -0.5064  0.0226
 6053TIP3    H139650  -0.042   3.599   5.369 -0.9187  1.3329 -0.0139
 6053TIP3    H239651   0.079   3.630   5.283 -0.1017 -1.5612  0.0243
 6054TIP3   OH239652   0.369   5.238   4.181 -0.5176 -0.3977  0.1129
 6054TIP3    H139653   0.408   5.223   4.267  1.3431 -0.2610 -0.6853
 6054TIP3    H239654   0.307   5.310   4.195  0.1517 -0.0232  1.2400
 6055TIP3   OH239655   4.223   5.685  11.867 -0.0066  0.7716 -0.4608
 6055TIP3    H139656   4.221   5.592  11.887  0.1215  0.8832  0.0827
 6055TIP3    H239657   4.257   5.690  11.778  0.6129  0.3394 -0.2527
 6056TIP3   OH239658   1.545   4.301   2.779  0.1726  0.0615 -0.3445
 6056TIP3    H139659   1.615   4.267   2.723  1.9595 -0.4567  2.0963
 6056TIP3    H239660   1.573   4.390   2.800 -0.2712  0.1142  0.0240
 6057TIP3   OH239661   3.499   6.517   1.681  0.4741 -0.1289 -0.4401
 6057TIP3    H139662   3.469   6.444   1.627  0.0041  1.2951 -2.1454
 6057TIP3    H239663   3.592   6.499   1.695  0.5922 -0.5638 -1.6765
 6058TIP3   OH239664   5.314   2.914   5.721 -0.0358 -0.2468  0.0041
 6058TIP3    H139665   5.282   2.860   5.649 -1.8324  0.8129 -0.0276
 6058TIP3    H239666   5.336   2.997   5.680  2.0021 -0.6934  0.1759
 6059TIP3   OH239667   2.808   2.980  15.066 -0.0947 -0.2953  0.0778
 6059TIP3    H139668   2.779   2.890  15.049  1.1809 -0.6915 -0.0596
 6059TIP3    H239669   2.750   3.034  15.012 -3.2015 -0.7403  2.8261
 6060TIP3   OH239670   1.304   2.009  13.032  0.1812 -0.7945 -0.0187
 6060TIP3    H139671   1.390   2.022  12.991 -0.1104  0.6659 -0.1930
 6060TIP3    H239672   1.253   1.961  12.968 -0.2014  1.2840 -1.3018
 6061TIP3   OH239673   1.425   1.483   1.821 -0.1919 -0.0610  0.1999
 6061TIP3    H139674   1.471   1.564   1.845 -0.0901 -0.2380  0.6047
 6061TIP3    H239675   1.355   1.476   1.887 -0.8184  0.2250 -0.4244
 6062TIP3   OH239676   2.448   5.620  13.339 -0.3717 -0.1019  0.3963
 6062TIP3    H139677   2.416   5.707  13.313  2.7345  0.7120 -0.8669
 6062TIP3    H239678   2.491   5.635  13.423 -1.0536 -0.7097  0.8590
 6063TIP3   OH239679   5.960   3.364  13.580  0.3290 -0.3058 -0.3991
 6063TIP3    H139680   5.983   3.298  13.515  1.3661 -0.0245 -0.3286
 6063TIP3    H239681   5.865   3.358  13.588  0.4940 -2.3428  0.1985
 6064TIP3   OH239682   3.924   4.853   1.127  0.0189 -0.3867 -1.1330
 6064TIP3    H139683   3.978   4.848   1.206  0.0279 -1.1563 -1.1872
 6064TIP3    H239684   3.956   4.782   1.071  0.4283  0.5362 -2.0900
 6065TIP3   OH239685   0.527   2.056  12.154 -0.7900 -0.4363 -0.0358
 6065TIP3    H139686   0.608   2.084  12.111 -1.0221  2.7985  1.5150
 6065TIP3    H239687   0.549   2.053  12.247 -1.8937 -1.6332  0.1979
 6066TIP3   OH239688   1.305   2.889   5.223  0.5659 -0.8273  0.5344
 6066TIP3    H139689   1.226   2.840   5.246  1.8314 -2.7826  0.8612
 6066TIP3    H239690   1.293   2.974   5.264 -2.6185 -0.0781 -1.7688
 6067TIP3   OH239691   0.287   0.587  11.108 -0.0052 -0.0168  0.6375
 6067TIP3    H139692   0.371   0.631  11.120  1.0928 -1.7148 -0.5065
 6067TIP3    H239693   0.256   0.617  11.022  1.0495 -1.8778 -0.4320
 6068TIP3   OH239694   3.816   6.147  14.412  0.3287 -0.0039 -0.7651
 6068TIP3    H139695   3.859   6.078  14.463  2.2240  0.7034 -1.3476
 6068TIP3    H239696   3.768   6.099  14.344  1.7153 -0.7839 -1.2307
 6069TIP3   OH239697   3.443   3.729   0.390  0.2657  0.3068  0.8275
 6069TIP3    H139698   3.467   3.642   0.359  1.6172  0.3639  1.6663
 6069TIP3    H239699   3.498   3.789   0.340 -2.2796  0.8816 -1.4043
 6070TIP3   OH239700   4.047   2.844  16.446  0.1685  0.3968  0.4206
 6070TIP3    H139701   4.010   2.892  16.371  0.8903 -1.5540 -1.2056
 6070TIP3    H239702   3.974   2.791  16.478  0.6510 -1.0088 -0.7711
 6071TIP3   OH239703   3.599   5.566  16.278 -0.5222 -0.0421  0.4661
 6071TIP3    H139704   3.581   5.636  16.215  1.4550  0.8843  0.8984
 6071TIP3    H239705   3.693   5.550  16.270 -0.8144 -2.1102  0.9509
 6072TIP3   OH239706   0.005   5.024  10.952  0.3260 -0.4884  0.6284
 6072TIP3    H139707  -0.082   5.029  10.913  0.1363  1.1590  1.2291
 6072TIP3    H239708   0.065   5.026  10.878 -0.0956  0.4309  0.3066
 6073TIP3   OH239709   4.960   2.323  15.483  0.1018 -0.7618 -0.3491
 6073TIP3    H139710   4.909   2.357  15.557  2.4630  1.4589  0.3127
 6073TIP3    H239711   5.045   2.366  15.490  0.9693 -1.8420 -3.3589
 6074TIP3   OH239712   1.876   1.997  12.348  0.3156 -0.6155  0.5759
 6074TIP3    H139713   1.889   1.995  12.443 -3.3130 -1.2241  1.1226
 6074TIP3    H239714   1.827   2.078  12.332 -1.8000 -2.0597 -0.3707
 6075TIP3   OH239715   4.994   4.295   3.299  0.4688 -0.1272  0.0383
 6075TIP3    H139716   5.085   4.310   3.274  0.3011  1.4458  0.3082
 6075TIP3    H239717   4.997   4.280   3.394  0.2707  1.7218  0.3540
 6076TIP3   OH239718   1.726   6.515   1.065 -0.3596 -0.6876  0.0340
 6076TIP3    H139719   1.674   6.595   1.063 -3.2439 -2.4898  0.4603
 6076TIP3    H239720   1.721   6.481   0.976  1.5656 -0.0019 -0.3611
 6077TIP3   OH239721   2.631   5.777  15.897 -0.0037 -0.0587  0.3577
 6077TIP3    H139722   2.614   5.688  15.867 -0.9875  0.5084 -0.7993
 6077TIP3    H239723   2.545   5.815  15.912  0.4069  0.6905  0.8594
 6078TIP3   OH239724   2.903   3.011   2.679  0.0527 -0.6657  0.0710
 6078TIP3    H139725   2.906   3.095   2.633 -0.0593  0.2321  1.7069
 6078TIP3    H239726   2.813   2.981   2.667 -0.2991  0.1312  0.7197
 6079TIP3   OH239727   4.019   4.923   2.244  0.4125 -1.0257  0.2895
 6079TIP3    H139728   4.092   4.972   2.206  0.7450 -1.0882  0.8370
 6079TIP3    H239729   4.014   4.842   2.193  2.2438 -2.0872  1.7512
 6080TIP3   OH239730   3.293   1.198   3.251  0.3070  0.2967 -0.1235
 6080TIP3    H139731   3.257   1.114   3.221 -0.4070  0.9549 -1.1645
 6080TIP3    H239732   3.320   1.182   3.341 -1.5482 -0.5505  0.3066
 6081TIP3   OH239733   5.324   0.975  13.250  0.5969  0.1590 -0.4162
 6081TIP3    H139734   5.288   1.058  13.220  1.2995 -0.5508 -3.3300
 6081TIP3    H239735   5.394   0.999  13.311 -0.9764  1.6170  0.8812
 6082TIP3   OH239736   3.343   2.874  15.407  0.5557  0.4675 -0.3062
 6082TIP3    H139737   3.365   2.781  15.409  0.3407  0.4263  1.3821
 6082TIP3    H239738   3.364   2.903  15.318  1.0438 -1.0902 -0.7016
 6083TIP3   OH239739   3.042   5.139  11.487 -0.6276 -0.4029  0.0101
 6083TIP3    H139740   3.102   5.188  11.543 -1.8201  0.6808  0.3559
 6083TIP3    H239741   3.096   5.110  11.414  0.5296 -0.2605  0.7943
 6084TIP3   OH239742   6.320   6.071   4.614 -0.1774  0.1820  0.0850
 6084TIP3    H139743   6.327   6.157   4.574 -0.3115  0.7750  1.2989
 6084TIP3    H239744   6.381   6.074   4.689 -1.8502  0.0223  1.4847
 6085TIP3   OH239745   6.400   1.986  13.304 -0.1563 -0.5011  0.2186
 6085TIP3    H139746   6.305   1.976  13.301  0.0371 -2.2907 -0.6212
 6085TIP3    H239747   6.430   1.947  13.222  1.1938  1.3711 -0.1850
 6086TIP3   OH239748   3.531   3.282   2.056  0.0290 -0.1160  0.1156
 6086TIP3    H139749   3.479   3.212   2.019  0.8386  0.1922 -1.6481
 6086TIP3    H239750   3.602   3.237   2.103 -0.8517 -0.4960  1.1111
 6087TIP3   OH239751   0.581   5.307   5.066  0.1009  0.2633 -0.5157
 6087TIP3    H139752   0.576   5.326   5.159 -1.9241  1.1028 -0.7709
 6087TIP3    H239753   0.625   5.222   5.061 -1.5433 -0.7206  1.2942
 6088TIP3   OH239754   5.132   4.483   5.457  0.8164  0.2954  0.0345
 6088TIP3    H139755   5.102   4.542   5.388  0.2835  0.8657  0.7481
 6088TIP3    H239756   5.204   4.434   5.417 -0.2820 -0.2432 -1.3190
 6089TIP3   OH239757   6.329   3.378  14.930  0.7477 -0.3668  0.3557
 6089TIP3    H139758   6.291   3.333  15.005 -0.1426 -0.7554 -0.3277
 6089TIP3    H239759   6.413   3.411  14.962  0.0825  0.0331  1.7047
 6090TIP3   OH239760   0.829   0.552   0.694  0.3533 -0.0179  0.2580
 6090TIP3    H139761   0.896   0.620   0.705  0.5144 -0.4969  2.4450
 6090TIP3    H239762   0.838   0.524   0.603 -0.3926  3.5813 -1.0041
 6091TIP3   OH239763   4.217   6.115  11.715 -0.1700  0.0190  0.2588
 6091TIP3    H139764   4.280   6.125  11.787 -1.3758  0.4258  1.2660
 6091TIP3    H239765   4.137   6.085  11.757 -1.1033  0.9390 -0.8366
 6092TIP3   OH239766   6.596   3.749   3.813 -0.2239 -0.0933  0.2310
 6092TIP3    H139767   6.577   3.835   3.851 -0.2443 -0.6712  1.5351
 6092TIP3    H239768   6.613   3.693   3.888  3.0312 -0.4629 -0.7047
 6093TIP3   OH239769   1.444   5.940   3.601  0.0400  0.4430 -0.8227
 6093TIP3    H139770   1.370   5.994   3.628 -1.7254 -2.7269  0.9715
 6093TIP3    H239771   1.406   5.871   3.547  2.0324  0.2112 -1.9846
 6094TIP3   OH239772   4.264   4.507   5.836  0.0441  0.2937  0.1639
 6094TIP3    H139773   4.345   4.473   5.799  0.0183  0.1031  0.2821
 6094TIP3    H239774   4.280   4.600   5.850  0.5931  0.0415  1.1732
 6095TIP3   OH239775   0.163   3.867   4.955  0.5936 -0.2388  0.0541
 6095TIP3    H139776   0.164   3.899   5.045  0.4381  1.4408 -0.5274
 6095TIP3    H239777   0.147   3.773   4.964  0.3123 -0.0552  1.7583
 6096TIP3   OH239778   0.896   4.864  13.109  0.1839 -0.1614 -0.3262
 6096TIP3    H139779   0.841   4.914  13.170  0.5870  0.8304 -0.7724
 6096TIP3    H239780   0.933   4.930  13.050 -0.3153 -1.1255 -1.7430
 6097TIP3   OH239781   3.989   1.578   1.705 -0.2535  0.7209  0.0951
 6097TIP3    H139782   4.016   1.613   1.790 -1.6925  2.2255 -0.0351
 6097TIP3    H239783   3.939   1.499   1.726 -0.6490  1.1159  0.6530
 6098TIP3   OH239784   3.314   2.171   2.788  0.0589 -0.2821 -0.6192
 6098TIP3    H139785   3.369   2.228   2.735  1.1523 -1.7662 -1.0975
 6098TIP3    H239786   3.342   2.082   2.766 -1.2579 -1.0018  0.5055
 6099TIP3   OH239787   2.085   2.199  15.951  0.3457 -0.2767 -0.1539
 6099TIP3    H139788   2.159   2.216  16.009 -0.4727 -1.3691  1.2485
 6099TIP3    H239789   2.116   2.130  15.892  0.7390 -0.0995 -0.1586
 6100TIP3   OH239790   2.295   0.246  13.347  0.1326  0.4470  0.2023
 6100TIP3    H139791   2.355   0.181  13.309 -0.5024  0.1824 -0.3654
 6100TIP3    H239792   2.329   0.261  13.436 -0.1766 -1.2623  0.6229
 6101TIP3   OH239793   6.753   5.187   2.020 -0.2511  0.0813 -0.5216
 6101TIP3    H139794   6.708   5.271   2.007 -0.6895 -0.3838 -2.2010
 6101TIP3    H239795   6.681   5.124   2.030  0.0606 -0.2285 -0.2697
 6102TIP3   OH239796   5.052   4.570   1.258 -0.3361  0.0115  0.1766
 6102TIP3    H139797   5.084   4.602   1.173 -0.1937  0.4777  0.4065
 6102TIP3    H239798   4.963   4.605   1.265 -0.3576 -0.0489  0.2077
 6103TIP3   OH239799   2.616   4.068  15.550 -0.2254  0.2291 -0.0611
 6103TIP3    H139800   2.634   4.152  15.508  0.6586  0.2460  0.3412
 6103TIP3    H239801   2.627   4.085  15.643  1.3667 -0.6544 -0.0706
 6104TIP3   OH239802   1.366   2.970  12.384  1.1692  0.0140 -0.1924
 6104TIP3    H139803   1.287   2.975  12.331  1.4078  2.6918 -0.4060
 6104TIP3    H239804   1.345   2.908  12.453 -0.5530 -0.5053 -1.1469
 6105TIP3   OH239805   0.315   6.508   2.462 -0.6707  0.4328 -0.1860
 6105TIP3    H139806   0.242   6.552   2.419 -0.1854  1.1951 -0.2343
 6105TIP3    H239807   0.381   6.576   2.472  0.2475 -0.3769 -0.6567
 6106TIP3   OH239808   2.361   2.127  13.203  0.0074 -0.1353  0.2170
 6106TIP3    H139809   2.283   2.126  13.259  0.7004  0.6867  1.2103
 6106TIP3    H239810   2.434   2.109  13.263  0.6096 -0.7586 -0.6851
 6107TIP3   OH239811   2.590   0.384  14.672 -0.6945 -0.4153  0.2225
 6107TIP3    H139812   2.684   0.382  14.692 -0.6744 -0.3140  0.1390
 6107TIP3    H239813   2.547   0.398  14.757 -0.6570 -0.8986  0.3209
 6108TIP3   OH239814   5.199   3.265   1.012 -0.1810  0.2897  0.4239
 6108TIP3    H139815   5.213   3.339   0.953 -1.9356 -0.7378 -1.3126
 6108TIP3    H239816   5.287   3.244   1.045  0.4138  2.7911  0.5479
 6109TIP3   OH239817   6.355   2.268  11.929 -0.7043  0.2460  0.1865
 6109TIP3    H139818   6.327   2.213  12.002 -0.6037 -0.8428 -0.5863
 6109TIP3    H239819   6.283   2.331  11.918 -2.1240 -1.4893 -0.7135
 6110TIP3   OH239820   2.332   2.252  16.054 -0.2108  0.2573  0.3012
 6110TIP3    H139821   2.382   2.174  16.030  0.3289  0.9731 -0.9137
 6110TIP3    H239822   2.352   2.316  15.986 -0.4476  1.5485  1.4173
 6111TIP3   OH239823   1.841   2.886  16.564 -1.1097  0.5151  0.0303
 6111TIP3    H139824   1.867   2.948  16.632  0.6119  0.2031 -0.3216
 6111TIP3    H239825   1.919   2.873  16.511 -2.5266  0.9989 -2.2446
 6112TIP3   OH239826   5.700   5.442   4.930  0.0206  0.4470 -0.3046
 6112TIP3    H139827   5.692   5.347   4.937  2.8985  0.1872 -0.0233
 6112TIP3    H239828   5.690   5.474   5.020  2.4854  0.0856  0.1238
 6113TIP3   OH239829   5.090   6.149  13.404 -0.1098  0.0167 -0.4663
 6113TIP3    H139830   5.047   6.134  13.488  0.8335  1.9732  0.4040
 6113TIP3    H239831   5.030   6.112  13.339  0.5333 -4.2490  1.2174
 6114TIP3   OH239832   3.445   4.290   5.245 -0.0253 -0.0378  0.3118
 6114TIP3    H139833   3.440   4.354   5.317  0.0783  0.2221  0.0863
 6114TIP3    H239834   3.530   4.306   5.204 -2.0230  3.0549 -2.8963
 6115TIP3   OH239835   0.050   4.754   4.767 -0.7018 -0.5089  0.1639
 6115TIP3    H139836   0.053   4.845   4.737  1.1192 -0.4612  0.4084
 6115TIP3    H239837  -0.004   4.709   4.702  0.1961  0.3202 -1.1809
 6116TIP3   OH239838   1.288   5.745   4.216  0.3816 -0.0267  0.1562
 6116TIP3    H139839   1.201   5.706   4.211  1.3461 -2.2307  0.1966
 6116TIP3    H239840   1.273   5.831   4.256 -1.7146 -0.5357  0.5209
 6117TIP3   OH239841   3.081   4.282  12.461 -0.7528  0.1685  0.4416
 6117TIP3    H139842   3.114   4.372  12.461 -0.2475 -0.0004  1.9110
 6117TIP3    H239843   3.159   4.228  12.468 -0.8599 -0.5097 -2.7357
 6118TIP3   OH239844   3.749   6.325  13.597  0.4137 -0.4893  0.0196
 6118TIP3    H139845   3.833   6.318  13.642 -0.0504 -2.7633  0.5987
 6118TIP3    H239846   3.746   6.416  13.567  2.6712 -0.1197  0.7597
 6119TIP3   OH239847   5.440   5.773  14.972  0.0518 -0.5705 -0.3697
 6119TIP3    H139848   5.470   5.721  15.046 -0.8377 -0.7447 -0.1320
 6119TIP3    H239849   5.404   5.709  14.911 -2.6677 -0.1030  0.6842
 6120TIP3   OH239850   4.285   2.219   2.887 -0.5005  0.3476  0.1852
 6120TIP3    H139851   4.346   2.147   2.902 -1.0448 -0.3699 -0.9963
 6120TIP3    H239852   4.254   2.243   2.975 -0.2063 -0.7625  0.5939
 6121TIP3   OH239853   3.633   4.583   5.243  0.1900 -0.0687  0.7473
 6121TIP3    H139854   3.627   4.490   5.220  1.5002  0.0472 -0.1283
 6121TIP3    H239855   3.547   4.618   5.224 -0.1232 -0.9771  0.4680
 6122TIP3   OH239856   1.956   4.788  12.302  0.6277  0.3421  0.7944
 6122TIP3    H139857   2.049   4.777  12.283  0.7511 -0.5228  1.8592
 6122TIP3    H239858   1.948   4.766  12.395 -0.3713  2.0023  1.1247
 6123TIP3   OH239859   1.661   2.799  15.184  0.0430  0.0423 -0.2811
 6123TIP3    H139860   1.736   2.856  15.168 -0.2733  0.3053 -0.8524
 6123TIP3    H239861   1.637   2.766  15.097 -0.4847 -0.0584 -0.0985
 6124TIP3   OH239862   0.273   3.492  15.382 -0.2164  0.0281 -0.0093
 6124TIP3    H139863   0.291   3.402  15.409 -1.3874  0.2860  1.7288
 6124TIP3    H239864   0.196   3.485  15.325 -0.9538  0.0084  0.9628
 6125TIP3   OH239865   2.725   6.793  11.308  0.7148 -0.0110  0.7929
 6125TIP3    H139866   2.643   6.751  11.283 -0.3600  1.0537  2.4424
 6125TIP3    H239867   2.787   6.720  11.317 -0.0005 -0.8058 -0.5640
 6126TIP3   OH239868   6.481   5.692  14.761 -0.5051 -0.3323  0.4255
 6126TIP3    H139869   6.499   5.624  14.696  2.5275  0.5930  0.1942
 6126TIP3    H239870   6.519   5.658  14.842 -0.9625  0.1159  0.8300
 6127TIP3   OH239871   2.575   4.631  11.013 -0.2967  0.7387  0.0145
 6127TIP3    H139872   2.570   4.587  10.928 -0.4557  0.4397  0.1777
 6127TIP3    H239873   2.489   4.673  11.023 -0.3663  0.5678  0.1390
 6128TIP3   OH239874   3.918   2.856   2.437 -0.2631  0.2371  1.0214
 6128TIP3    H139875   3.824   2.873   2.437 -0.3243 -0.1024  0.3681
 6128TIP3    H239876   3.926   2.762   2.453 -0.0408  0.2370  0.9160
 6129TIP3   OH239877   1.011   1.113  11.383 -0.6472  0.1836 -0.3324
 6129TIP3    H139878   1.043   1.101  11.294  0.3790 -1.2408  0.1993
 6129TIP3    H239879   0.964   1.033  11.403 -0.0872  0.0995  0.7128
 6130TIP3   OH239880   4.973   1.036   1.149 -0.4773  0.4163  0.0127
 6130TIP3    H139881   4.967   1.104   1.216  0.3540 -0.0583  0.5703
 6130TIP3    H239882   5.028   1.076   1.081  0.7457 -0.0078  0.7356
 6131TIP3   OH239883   0.075   6.059  15.063  0.0569 -0.0434 -0.8228
 6131TIP3    H139884   0.096   6.009  14.984  1.3684 -0.0368 -0.4770
 6131TIP3    H239885   0.140   6.032  15.127 -1.8716 -1.1173  0.7355
 6132TIP3   OH239886   4.627   3.837   3.783 -0.0527 -0.3363  0.3184
 6132TIP3    H139887   4.662   3.827   3.871  1.4588 -1.4909 -0.4068
 6132TIP3    H239888   4.579   3.756   3.767 -0.0999 -0.2384 -0.0302
 6133TIP3   OH239889   4.936   0.492   1.092  0.2973  0.6754 -0.0985
 6133TIP3    H139890   5.002   0.541   1.141 -0.4804  1.0830  0.5606
 6133TIP3    H239891   4.855   0.541   1.106 -0.2623 -0.1479 -0.4185
 6134TIP3   OH239892   0.590   2.035  16.432 -0.5696 -0.1574 -0.6089
 6134TIP3    H139893   0.548   2.076  16.357 -1.1289 -0.5095 -0.4885
 6134TIP3    H239894   0.560   1.945  16.431 -1.5915  0.1356  0.7501
 6135TIP3   OH239895   1.861   0.950  14.636  0.6294  0.4800 -0.5430
 6135TIP3    H139896   1.956   0.955  14.642  0.8655 -2.7532 -0.6582
 6135TIP3    H239897   1.841   0.978  14.546  1.5921  0.0044 -0.9128
 6136TIP3   OH239898   3.162   5.124   4.347 -0.3430 -0.6130 -0.5276
 6136TIP3    H139899   3.164   5.205   4.296 -0.2574  0.9541  1.8970
 6136TIP3    H239900   3.077   5.085   4.326 -0.3366  0.0460 -1.7963
 6137TIP3   OH239901   0.222   0.094   0.104 -0.6074  0.6634 -1.0567
 6137TIP3    H139902   0.229   0.025   0.170  0.2882  1.6732 -0.0935
 6137TIP3    H239903   0.166   0.055   0.036  0.4143 -1.2625 -0.8463
 6138TIP3   OH239904   6.350   6.502   1.123 -0.1465  0.4289  0.0364
 6138TIP3    H139905   6.347   6.529   1.215 -0.0239  0.6283 -0.0194
 6138TIP3    H239906   6.438   6.466   1.112 -0.3042  0.0153  0.1073
 6139TIP3   OH239907   1.052   5.326  12.454 -0.5946  0.4130  0.1972
 6139TIP3    H139908   1.123   5.389  12.436 -0.5758  0.8937  1.8664
 6139TIP3    H239909   1.061   5.306  12.547 -0.9056 -1.7183 -0.2127
 6140TIP3   OH239910   4.251   6.747  13.752 -0.0620 -0.2999 -0.4508
 6140TIP3    H139911   4.335   6.703  13.769 -1.0166 -1.7038  0.7839
 6140TIP3    H239912   4.259   6.781  13.663  1.3653 -1.4992 -0.8016
 6141TIP3   OH239913   6.224   4.129   0.668 -0.5082 -0.3480  0.1907
 6141TIP3    H139914   6.167   4.187   0.617  0.5276 -0.3812 -1.0378
 6141TIP3    H239915   6.299   4.184   0.691 -0.4406 -0.6569  0.6975
 6142TIP3   OH239916   5.089   5.183  12.564  0.4357 -0.1624 -0.4116
 6142TIP3    H139917   5.085   5.129  12.643  2.9793 -0.2830 -0.3151
 6142TIP3    H239918   5.115   5.122  12.495 -0.7934  0.1417 -1.1471
 6143TIP3   OH239919   5.106   1.945  12.462 -0.3711  0.3186  0.7021
 6143TIP3    H139920   5.125   1.934  12.555  1.0302  0.3485  0.4312
 6143TIP3    H239921   5.189   1.973  12.424 -0.9498  0.3539 -0.5483
 6144TIP3   OH239922   0.504   1.773  14.554 -0.1152  0.1886 -0.5044
 6144TIP3    H139923   0.430   1.824  14.522  1.1999  1.3229 -1.7747
 6144TIP3    H239924   0.534   1.819  14.633  0.4321  0.8158 -1.0757
 6145TIP3   OH239925   1.915   5.374  17.282 -0.0544  0.3260  0.8232
 6145TIP3    H139926   1.884   5.286  17.259 -1.7574  1.5139 -1.5909
 6145TIP3    H239927   2.003   5.378  17.243  0.5864 -0.7499  2.1015
 6146TIP3   OH239928   3.402   2.248  16.453 -0.0505  0.1914 -0.0251
 6146TIP3    H139929   3.464   2.309  16.412  1.0566 -0.4974  0.6078
 6146TIP3    H239930   3.365   2.297  16.526 -0.0244  0.5000 -0.2165
 6147TIP3   OH239931   0.140   6.625  11.187 -0.7036  0.2294 -0.4014
 6147TIP3    H139932   0.080   6.559  11.150 -0.2700 -1.8840  2.4988
 6147TIP3    H239933   0.183   6.663  11.111 -1.1032 -2.7450 -2.2005
 6148TIP3   OH239934   4.564   5.316   3.876 -0.1347 -0.0437  0.2232
 6148TIP3    H139935   4.489   5.374   3.867  1.4099  1.6914 -2.0051
 6148TIP3    H239936   4.593   5.329   3.967 -2.3736 -0.5900  1.0359
 6149TIP3   OH239937   5.070   1.673  13.344  0.4937 -0.0264 -0.2641
 6149TIP3    H139938   5.010   1.600  13.323  1.6882 -1.3684  0.9248
 6149TIP3    H239939   5.126   1.680  13.267 -1.2371  1.3001 -1.4268
 6150TIP3   OH239940   0.621   6.108  11.028 -0.8713  0.2690  0.1906
 6150TIP3    H139941   0.656   6.033  10.981  0.4502  0.3848  0.9890
 6150TIP3    H239942   0.668   6.183  10.992 -1.2351  0.5768  0.3474
 6151TIP3   OH239943   0.114   3.808   1.521 -0.2604 -0.5725  0.3223
 6151TIP3    H139944   0.041   3.841   1.573 -0.9323  0.0790 -1.0264
 6151TIP3    H239945   0.191   3.854   1.556 -0.8655  0.7253 -0.0230
 6152TIP3   OH239946   2.354   1.338  12.226 -0.2053  0.2692  0.2619
 6152TIP3    H139947   2.446   1.364  12.229  0.0207 -0.7070  2.5619
 6152TIP3    H239948   2.306   1.421  12.228  0.6016  0.7447  0.1291
 6153TIP3   OH239949   1.541   1.155  16.806  0.4312  0.5344 -0.0373
 6153TIP3    H139950   1.578   1.220  16.867 -0.7858  1.4734 -0.2683
 6153TIP3    H239951   1.453   1.188  16.788 -1.1480 -2.4559  1.7638
 6154TIP3   OH239952   1.474   4.861   1.861 -0.3427  0.6455  0.2005
 6154TIP3    H139953   1.482   4.948   1.901 -1.5717 -0.2014  2.3619
 6154TIP3    H239954   1.558   4.848   1.818  0.9691  1.7320  2.3102
 6155TIP3   OH239955   5.412   1.709   1.170  0.3326 -0.3433 -0.1285
 6155TIP3    H139956   5.487   1.767   1.155  0.0221  0.2672  0.5996
 6155TIP3    H239957   5.361   1.715   1.090 -1.1980  2.6831  0.9897
 6156TIP3   OH239958   5.268   0.326   1.108 -0.3011  0.0424  0.1935
 6156TIP3    H139959   5.202   0.370   1.162 -0.4767 -0.9216  0.7700
 6156TIP3    H239960   5.311   0.398   1.061 -0.8787  0.7972  0.7859
 6157TIP3   OH239961   5.532   2.413  14.502  0.0265 -0.0841  0.0322
 6157TIP3    H139962   5.476   2.490  14.503  0.8596  0.5645 -1.5996
 6157TIP3    H239963   5.606   2.437  14.558  1.7255  1.4563 -2.7546
 6158TIP3   OH239964   4.904   2.353  13.951  0.3954 -0.1875 -0.0149
 6158TIP3    H139965   4.848   2.352  14.029  0.9932 -1.4053  0.4126
 6158TIP3    H239966   4.981   2.303  13.977  1.2209  0.6129 -0.9369
 6159TIP3   OH239967   1.055   6.615   3.981  0.1740 -0.3184 -0.3545
 6159TIP3    H139968   1.044   6.535   3.930  1.9540 -0.3502 -0.7185
 6159TIP3    H239969   1.051   6.685   3.915  0.4707 -0.2271 -0.2742
 6160TIP3   OH239970   6.627   4.580  13.470  0.2439 -0.2043  0.3165
 6160TIP3    H139971   6.607   4.486  13.473  1.0702 -0.4015 -0.2496
 6160TIP3    H239972   6.608   4.605  13.380  1.8023 -0.2355 -0.0354
 6161TIP3   OH239973   2.496   3.066   0.077  0.2263  0.3485 -0.8725
 6161TIP3    H139974   2.420   3.009   0.090  0.9727 -0.3794  0.3515
 6161TIP3    H239975   2.479   3.140   0.136  0.5698  0.0824 -0.4401
 6162TIP3   OH239976   3.256   5.439   0.132  0.2002  0.0074  0.2615
 6162TIP3    H139977   3.192   5.402   0.071  0.2389  0.5953 -0.1404
 6162TIP3    H239978   3.340   5.407   0.100 -0.0498 -3.0595  2.3951
 6163TIP3   OH239979   2.603   5.003  13.332 -0.2011 -0.0007  0.1795
 6163TIP3    H139980   2.645   4.933  13.382 -0.1155 -0.2638 -0.2573
 6163TIP3    H239981   2.511   4.975  13.325 -0.2265  0.0666  0.2423
 6164TIP3   OH239982   6.626   6.793   4.077 -0.2049 -0.3330  0.0905
 6164TIP3    H139983   6.702   6.847   4.052 -0.0490 -0.9031 -0.6849
 6164TIP3    H239984   6.601   6.826   4.163  0.1860  0.6620 -0.1659
 6165TIP3   OH239985   2.979   4.650   0.473  0.2355 -0.6513  0.0103
 6165TIP3    H139986   2.904   4.602   0.437 -0.0892  0.2660 -0.5557
 6165TIP3    H239987   2.969   4.641   0.568  0.2773 -1.8465 -0.0993
 6166TIP3   OH239988   6.649   6.376   5.192 -0.2046 -0.2076 -0.6484
 6166TIP3    H139989   6.708   6.329   5.132  0.9639 -0.7283  0.8838
 6166TIP3    H239990   6.698   6.454   5.217 -0.5216 -0.1924 -0.0685
 6167TIP3   OH239991   1.757   3.874  12.224  0.4039 -0.1052 -0.2230
 6167TIP3    H139992   1.688   3.940  12.235  2.0459  1.5707  0.2929
 6167TIP3    H239993   1.737   3.808  12.290  0.0724  1.0615  0.8739
 6168TIP3   OH239994   1.247   6.495   2.415  0.0784 -0.0320  0.4002
 6168TIP3    H139995   1.308   6.422   2.417 -0.0314 -0.1443 -0.1648
 6168TIP3    H239996   1.225   6.511   2.507  3.2417  1.9480  0.8822
 6169TIP3   OH239997   4.557   2.841   4.463  0.2994 -0.1607  0.1514
 6169TIP3    H139998   4.508   2.801   4.391 -1.7927  0.9182  0.9275
 6169TIP3    H239999   4.607   2.769   4.501 -0.0414 -1.1215 -1.2012
 6170TIP3   OH240000   1.027   4.557  14.600 -0.0998  0.1089 -0.1259
 6170TIP3    H140001   1.102   4.609  14.629  2.4209 -3.8827  1.0664
 6170TIP3    H240002   1.033   4.558  14.504  1.2518  0.2487 -0.0592
 6171TIP3   OH240003   2.469   0.076  15.964  0.1621 -0.6495  0.0747
 6171TIP3    H140004   2.465   0.026  15.883 -1.2860 -0.4183 -0.0028
 6171TIP3    H240005   2.557   0.112  15.965  0.3835 -1.1270 -1.1082
 6172TIP3   OH240006   1.414   2.730  11.102 -0.1519  0.4756  0.4836
 6172TIP3    H140007   1.448   2.656  11.052  0.9737  2.2961 -1.5286
 6172TIP3    H240008   1.363   2.690  11.172  1.5854 -2.2138  0.2763
 6173TIP3   OH240009   4.020   2.146  12.851  0.5308  0.1119  0.4783
 6173TIP3    H140010   3.928   2.131  12.870  0.1928  0.3808 -0.9062
 6173TIP3    H240011   4.045   2.219  12.908 -0.2240  0.3359  0.5172
 6174TIP3   OH240012   3.249   5.317  16.542 -0.9535 -0.2834 -0.4639
 6174TIP3    H140013   3.236   5.386  16.607 -0.8151  0.6271 -1.3886
 6174TIP3    H240014   3.243   5.362  16.457 -2.0021 -1.5987 -1.1115
 6175TIP3   OH240015   1.388   5.424  11.896 -0.1467 -0.0297  0.1181
 6175TIP3    H140016   1.304   5.466  11.875 -0.2597 -0.6813 -0.7550
 6175TIP3    H240017   1.454   5.490  11.874 -0.3876  0.1909  0.0553
 6176TIP3   OH240018   0.617   4.218  15.345  0.1889  0.0435  0.1251
 6176TIP3    H140019   0.543   4.160  15.327 -1.3104  0.9451  2.9987
 6176TIP3    H240020   0.688   4.159  15.371 -0.0333 -0.7350 -1.0272
 6177TIP3   OH240021   4.829   5.361   2.654 -1.1897  0.6752 -0.4853
 6177TIP3    H140022   4.915   5.374   2.614 -0.2168 -3.3912  0.0293
 6177TIP3    H240023   4.840   5.391   2.744  0.4180 -1.8420  0.2091
 6178TIP3   OH240024   1.495   4.158  16.448  0.1873  0.5074  0.0743
 6178TIP3    H140025   1.538   4.188  16.528  0.1656  0.2500  0.1845
 6178TIP3    H240026   1.465   4.238  16.405 -0.8740  0.5808  0.9254
 6179TIP3   OH240027   0.886   4.666   3.926  0.1905  0.4441 -0.1470
 6179TIP3    H140028   0.959   4.616   3.963  0.1977 -0.8876 -1.8576
 6179TIP3    H240029   0.928   4.727   3.865  0.0853  1.7684  1.0824
 6180TIP3   OH240030   6.519   3.423  10.521 -0.3174 -0.5060 -0.3291
 6180TIP3    H140031   6.572   3.344  10.531 -1.3473 -1.4025 -1.7308
 6180TIP3    H240032   6.583   3.494  10.514  0.6742 -1.4430 -0.9180
 6181TIP3   OH240033   2.047   3.426   6.260  0.2119  0.4195  0.0886
 6181TIP3    H140034   2.017   3.493   6.198 -0.0947 -0.0811 -0.3052
 6181TIP3    H240035   2.018   3.459   6.346 -0.9744  0.2295 -0.2252
 6182TIP3   OH240036   6.410   5.704  16.273  0.0575  0.1580  0.0265
 6182TIP3    H140037   6.345   5.696  16.203  0.7445 -0.2298 -0.5775
 6182TIP3    H240038   6.389   5.634  16.334  2.4089 -2.6603 -2.2477
 6183TIP3   OH240039   0.644   2.499  11.218 -0.0727 -0.7750  0.6526
 6183TIP3    H140040   0.577   2.437  11.190 -1.4326  0.9606 -0.0055
 6183TIP3    H240041   0.636   2.573  11.157 -0.4024  1.3267  3.1325
 6184TIP3   OH240042   3.486   2.654  13.632 -0.1984 -0.5032 -0.2965
 6184TIP3    H140043   3.427   2.710  13.684  0.6036  0.9424 -0.9241
 6184TIP3    H240044   3.465   2.676  13.541  1.4446  0.1877 -0.5214
 6185TIP3   OH240045   1.088   1.013   0.368  0.3919 -0.0116  0.0397
 6185TIP3    H140046   1.012   1.031   0.424 -0.1200 -0.9978 -0.3295
 6185TIP3    H240047   1.161   1.003   0.430  0.5201  2.3267  0.3157
 6186TIP3   OH240048   5.100   2.023   3.025  0.2515 -0.1643 -0.3935
 6186TIP3    H140049   5.137   2.020   3.113 -1.1576 -1.6222  0.1608
 6186TIP3    H240050   5.176   2.016   2.967  1.2614  1.5460  0.6582
 6187TIP3   OH240051   5.250   4.151   4.442 -0.8233 -0.0349 -0.0617
 6187TIP3    H140052   5.291   4.230   4.406 -1.0822 -0.3922 -1.1603
 6187TIP3    H240053   5.324   4.097   4.470 -0.6003 -0.0619 -0.7087
 6188TIP3   OH240054   3.813   5.774  15.201  0.0901  0.1043 -0.3483
 6188TIP3    H140055   3.766   5.810  15.125  1.2550  1.0439 -0.6332
 6188TIP3    H240056   3.905   5.776  15.175  0.4398 -0.1790  0.8560
 6189TIP3   OH240057   2.656   5.382  14.610 -0.0719  0.5794 -0.3242
 6189TIP3    H140058   2.745   5.386  14.644 -0.0868 -0.4948 -0.1395
 6189TIP3    H240059   2.663   5.417  14.521  0.3702  1.3114 -0.0055
 6190TIP3   OH240060   5.447   2.046  13.299  0.3456  0.0320  0.5260
 6190TIP3    H140061   5.395   1.969  13.324  0.8096  0.1853  2.0137
 6190TIP3    H240062   5.443   2.047  13.204  0.7763 -2.1504  0.4565
 6191TIP3   OH240063   0.890   4.712   2.819 -0.1294  0.0468 -0.4424
 6191TIP3    H140064   0.920   4.743   2.733 -2.4905  0.2595 -1.2184
 6191TIP3    H240065   0.873   4.792   2.868  0.5830 -0.0784  0.0229
 6192TIP3   OH240066   5.363   6.598  15.189 -0.5465 -0.1751  0.2655
 6192TIP3    H140067   5.347   6.581  15.282 -0.8525 -1.6229 -0.0361
 6192TIP3    H240068   5.448   6.643  15.187 -1.2479  1.2303  1.3498
 6193TIP3   OH240069   4.240   6.558   2.773 -0.1549 -0.2913  0.3586
 6193TIP3    H140070   4.175   6.489   2.786  1.0210 -1.3831  0.5567
 6193TIP3    H240071   4.237   6.610   2.854 -0.0351 -0.9637  0.7960
 6194TIP3   OH240072   4.085   4.340  10.966 -0.6606 -0.2717 -0.3364
 6194TIP3    H140073   4.017   4.355  11.032  0.0907 -2.8517  1.1191
 6194TIP3    H240074   4.037   4.316  10.887 -1.5511  2.1918 -0.5815
 6195TIP3   OH240075   4.312   6.283   1.777 -0.3928  0.2999 -0.1256
 6195TIP3    H140076   4.368   6.291   1.700 -0.6460  0.9523 -0.2376
 6195TIP3    H240077   4.360   6.223   1.835 -0.1757 -0.1434 -0.7623
 6196TIP3   OH240078   5.544   6.527   2.734  0.3432 -0.0313  0.2095
 6196TIP3    H140079   5.572   6.461   2.670 -1.2088 -1.7317  1.2196
 6196TIP3    H240080   5.509   6.599   2.682  3.7362  0.8259 -0.9803
 6197TIP3   OH240081   4.867   2.780   5.792  0.7569 -0.2852 -0.4183
 6197TIP3    H140082   4.799   2.722   5.827  3.0383 -1.3782  2.4721
 6197TIP3    H240083   4.928   2.721   5.748  2.3322  0.0179  1.2671
 6198TIP3   OH240084   0.883   5.315  13.138 -0.1121 -0.0311  0.0097
 6198TIP3    H140085   0.900   5.337  13.046 -0.2784  1.1054  0.2486
 6198TIP3    H240086   0.790   5.334  13.150  0.1959  1.0366  0.7505
 6199TIP3   OH240087   1.410   0.119   2.333 -0.3357 -0.3783  0.1790
 6199TIP3    H140088   1.433   0.177   2.405 -0.6175  1.2344 -1.0081
 6199TIP3    H240089   1.494   0.092   2.295 -0.2387  0.6403 -0.3410
 6200TIP3   OH240090   4.459   3.267  16.672 -0.4641  0.3801 -0.1601
 6200TIP3    H140091   4.413   3.270  16.755 -2.6533 -0.2971 -1.3060
 6200TIP3    H240092   4.526   3.334  16.679 -0.7857  0.5114  2.0382
 6201TIP3   OH240093   2.003   4.237  16.109 -0.0507 -0.2577 -0.3820
 6201TIP3    H140094   1.965   4.164  16.060 -0.6077  0.5135 -1.0915
 6201TIP3    H240095   2.007   4.205  16.200 -0.2534 -1.1776 -0.6928
 6202TIP3   OH240096   4.149   1.262  10.816 -0.2759 -0.6379  0.0106
 6202TIP3    H140097   4.183   1.352  10.822 -0.8406 -0.5111  1.5062
 6202TIP3    H240098   4.054   1.272  10.819 -0.3417 -1.2938  0.1890
 6203TIP3   OH240099   2.294   0.151  15.127  0.2507  0.1017 -0.6704
 6203TIP3    H140100   2.274   0.171  15.035  2.0069 -0.6488 -1.2465
 6203TIP3    H240101   2.383   0.115  15.124  0.8747  1.4400  1.5195
 6204TIP3   OH240102   2.183   5.439  12.272 -0.3799 -0.2111 -0.3141
 6204TIP3    H140103   2.262   5.484  12.243 -1.6996  2.1472 -0.4422
 6204TIP3    H240104   2.116   5.464  12.208 -1.2884 -1.9358 -0.0665
 6205TIP3   OH240105   0.214   6.739  10.944 -0.0742  0.3415 -0.7185
 6205TIP3    H140106   0.171   6.822  10.967  0.4037  0.5365 -0.5171
 6205TIP3    H240107   0.178   6.716  10.859  0.4951  1.2437 -1.2078
 6206TIP3   OH240108   1.609   3.738   1.017 -0.2527  0.3423  0.1441
 6206TIP3    H140109   1.670   3.688   0.964 -0.9285  0.6739 -0.9627
 6206TIP3    H240110   1.523   3.699   1.000 -0.7752  1.7964 -0.6670
 6207TIP3   OH240111   4.110   5.932  11.887 -0.7442 -0.5630  0.3783
 6207TIP3    H140112   4.153   5.848  11.878  1.4702  0.7324 -1.4871
 6207TIP3    H240113   4.155   5.975  11.960 -0.3694 -0.0753 -0.1441
 6208TIP3   OH240114   6.102   5.772  14.182 -0.1805  0.5449  0.7733
 6208TIP3    H140115   6.165   5.765  14.254 -0.0827 -0.2881  0.6148
 6208TIP3    H240116   6.144   5.830  14.119  0.1387  0.5316  0.9711
 6209TIP3   OH240117   0.558   6.474  16.206  0.1887 -0.2233 -0.1745
 6209TIP3    H140118   0.519   6.413  16.144  0.7165  0.3172 -1.0463
 6209TIP3    H240119   0.510   6.556  16.193 -0.2432 -0.3261  0.7028
 6210TIP3   OH240120   6.061   4.311   0.522 -0.4787  0.1860 -0.0745
 6210TIP3    H140121   6.125   4.379   0.502  0.6112 -0.3970  1.3827
 6210TIP3    H240122   6.019   4.293   0.438  0.1632  1.6920 -0.7366
 6211TIP3   OH240123   5.442   2.775   6.539  0.0097  0.1793 -0.4024
 6211TIP3    H140124   5.525   2.729   6.544 -0.9219 -1.6216 -0.9135
 6211TIP3    H240125   5.388   2.735   6.607  0.0947  2.5272  1.1097
 6212TIP3   OH240126   5.166   0.431  14.580  0.5294 -0.6993 -0.9892
 6212TIP3    H140127   5.237   0.410  14.640  0.5394 -0.8582 -1.0548
 6212TIP3    H240128   5.087   0.427  14.634  0.7296  1.1891 -0.5287
 6213TIP3   OH240129   0.528   1.786  12.715 -0.3022  0.2408  0.0585
 6213TIP3    H140130   0.575   1.727  12.657  0.3037  0.5771  0.1929
 6213TIP3    H240131   0.565   1.872  12.697 -1.5527  0.6619 -0.5120
 6214TIP3   OH240132   0.126   0.744   2.687  0.2514  0.2878 -0.3851
 6214TIP3    H140133   0.037   0.738   2.652  1.0661  0.9717 -2.6656
 6214TIP3    H240134   0.135   0.836   2.713  0.6910  0.5068 -1.2947
 6215TIP3   OH240135   1.491   3.008   3.072  0.6571  0.1099  0.4062
 6215TIP3    H140136   1.423   3.029   3.136  0.7634 -0.5950  0.7627
 6215TIP3    H240137   1.483   3.075   3.005  2.1662  2.3973  2.4125
 6216TIP3   OH240138   1.265   6.491  12.423 -0.2892 -0.5778  0.5409
 6216TIP3    H140139   1.222   6.422  12.474 -1.3895  2.2040  3.5648
 6216TIP3    H240140   1.197   6.526  12.367 -1.1063  1.3001  2.6138
 6217TIP3   OH240141   1.464   5.204  13.208  0.6523  0.3073  0.0673
 6217TIP3    H140142   1.444   5.163  13.124 -0.5662 -1.7139  1.2844
 6217TIP3    H240143   1.379   5.237  13.239  0.8495 -0.1307  1.0970
 6218TIP3   OH240144   1.811   2.732  17.134  0.3410 -0.4005 -0.1099
 6218TIP3    H140145   1.848   2.723  17.046 -1.2157  0.0113 -0.8411
 6218TIP3    H240146   1.809   2.643  17.168  1.9099 -0.4329 -0.0786
 6219TIP3   OH240147   5.743   6.515   0.574  0.2221 -0.0823  0.0245
 6219TIP3    H140148   5.684   6.463   0.628  0.1729  0.0592  0.1071
 6219TIP3    H240149   5.713   6.605   0.587  1.2101  0.1101  0.9937
 6220TIP3   OH240150   3.546   4.362  16.557 -0.1105 -0.9817  0.4872
 6220TIP3    H140151   3.498   4.345  16.638 -0.3895  0.2698  0.6058
 6220TIP3    H240152   3.606   4.433  16.580 -0.9896  0.1580 -0.6985
 6221TIP3   OH240153   3.975   2.730  13.730 -0.1517  0.0924 -0.3470
 6221TIP3    H140154   3.897   2.704  13.779 -0.5657 -0.5450 -1.3275
 6221TIP3    H240155   4.033   2.654  13.732 -0.4465 -0.1740 -1.3793
 6222TIP3   OH240156   6.029   5.415  17.038  0.1988  0.2503  0.3061
 6222TIP3    H140157   6.067   5.426  17.125  0.5229  1.2225  0.0444
 6222TIP3    H240158   6.062   5.489  16.988  0.1205 -0.3726 -0.6854
 6223TIP3   OH240159   2.442   3.041  16.906 -0.5256  0.5839  0.1358
 6223TIP3    H140160   2.474   3.128  16.931 -0.9011  0.9100 -0.4932
 6223TIP3    H240161   2.347   3.046  16.916 -0.7174  0.8152 -1.5642
 6224TIP3   OH240162   3.510   6.707   4.933 -0.4251 -0.3242  0.2612
 6224TIP3    H140163   3.601   6.721   4.956 -0.4945 -0.3289  0.5485
 6224TIP3    H240164   3.465   6.787   4.961 -0.5422 -0.4109  0.3226
 6225TIP3   OH240165   2.436   4.778  12.454 -0.4771 -0.0562 -0.3943
 6225TIP3    H140166   2.449   4.872  12.445  2.1772 -0.5813 -3.0463
 6225TIP3    H240167   2.372   4.756  12.386 -0.6505 -0.2428 -0.1698
 6226TIP3   OH240168   1.728   0.041  15.358  0.1542 -0.4563  0.6468
 6226TIP3    H140169   1.673   0.065  15.284  1.9302  2.8141  0.3009
 6226TIP3    H240170   1.668   0.035  15.432 -1.0292  0.5347 -0.2121
 6227TIP3   OH240171   3.891   0.430   5.126 -0.0888  0.4404  0.1825
 6227TIP3    H140172   3.803   0.400   5.105  0.0849  0.6057 -0.7868
 6227TIP3    H240173   3.882   0.523   5.145 -0.0878  0.5083 -0.1481
 6228TIP3   OH240174   1.771   6.408   5.266  0.9813 -0.1541  0.2326
 6228TIP3    H140175   1.819   6.468   5.323  0.3123  0.6991 -0.0894
 6228TIP3    H240176   1.797   6.434   5.177  0.6390 -0.3043  0.0904
 6229TIP3   OH240177   2.324   0.789  16.621 -0.1515 -0.2573 -0.5635
 6229TIP3    H140178   2.386   0.716  16.619 -0.6122 -0.6047 -2.5813
 6229TIP3    H240179   2.376   0.863  16.654  0.2174 -1.5626  1.8683
 6230TIP3   OH240180   1.546   6.793  14.904  0.3414  0.0461 -0.4438
 6230TIP3    H140181   1.633   6.806  14.865  0.6875  1.0172  0.6411
 6230TIP3    H240182   1.556   6.821  14.995 -0.7035 -1.3309  0.1096
 6231TIP3   OH240183   4.556   3.046  14.581 -0.4865 -0.2298 -0.1670
 6231TIP3    H140184   4.530   2.954  14.572 -1.3543 -0.0453  0.4168
 6231TIP3    H240185   4.647   3.048  14.551 -1.2176 -0.8309 -2.5413
 6232TIP3   OH240186   0.932   2.874  13.114 -0.8342 -0.0104 -0.1429
 6232TIP3    H140187   0.954   2.966  13.125  2.3041 -0.3976 -2.4019
 6232TIP3    H240188   0.942   2.836  13.201  1.3115  1.1215  0.1172
 6233TIP3   OH240189   0.602   5.040   1.479 -0.2601 -0.6401 -0.9213
 6233TIP3    H140190   0.530   5.010   1.535  0.5975 -0.4646  0.2866
 6233TIP3    H240191   0.652   5.100   1.534  0.7655 -0.6906 -1.7832
 6234TIP3   OH240192   1.571   6.347   4.408 -0.2502  0.0209 -0.6020
 6234TIP3    H140193   1.476   6.338   4.399 -0.2269 -0.8870 -0.1039
 6234TIP3    H240194   1.607   6.313   4.326 -0.3645  0.4062 -0.8076
 6235TIP3   OH240195   4.224   3.863  13.126 -0.3194  0.1307  0.1535
 6235TIP3    H140196   4.185   3.805  13.061 -2.0598 -0.3806  1.6329
 6235TIP3    H240197   4.161   3.935  13.135  0.5285  0.8623  0.3382
 6236TIP3   OH240198   4.167   3.116  14.877 -0.5737 -0.0529  0.1646
 6236TIP3    H140199   4.128   3.193  14.917  0.4509  1.4909 -1.6735
 6236TIP3    H240200   4.260   3.122  14.900 -0.1435  0.3570 -1.5824
 6237TIP3   OH240201   4.012   2.581  17.222 -0.7085 -0.2482  0.8056
 6237TIP3    H140202   4.040   2.669  17.246  2.3382  0.0609 -3.2880
 6237TIP3    H240203   3.943   2.594  17.157  0.7953 -0.7747 -0.9496
 6238TIP3   OH240204   3.969   5.902   3.961  0.1736  0.3304 -0.5445
 6238TIP3    H140205   3.922   5.986   3.961 -0.5266 -0.0470 -1.5459
 6238TIP3    H240206   3.981   5.882   4.054  1.2589  2.0234 -0.2856
 6239TIP3   OH240207   2.417   6.081  16.123 -0.7421 -0.1124 -0.8077
 6239TIP3    H140208   2.337   6.116  16.085 -0.0737  1.0519 -1.1624
 6239TIP3    H240209   2.487   6.135  16.086  0.1014 -0.3762  0.3785
 6240TIP3   OH240210   0.211   0.277  15.549 -0.0932 -0.2180 -0.3377
 6240TIP3    H140211   0.225   0.310  15.460 -1.1251 -2.0494 -1.2206
 6240TIP3    H240212   0.125   0.236  15.545 -0.1844 -0.2456  1.5548
 6241TIP3   OH240213   4.341   5.657   2.208 -0.2087 -0.1055  0.8034
 6241TIP3    H140214   4.394   5.713   2.151 -2.1595 -0.0057 -0.9854
 6241TIP3    H240215   4.380   5.667   2.294  3.7278 -1.3744 -0.7145
 6242TIP3   OH240216   6.790   1.306   2.870  0.4639 -0.2923  0.5034
 6242TIP3    H140217   6.799   1.212   2.855  0.8024  0.0358 -1.4942
 6242TIP3    H240218   6.880   1.338   2.878  0.3673 -0.0442  0.6371
 6243TIP3   OH240219   0.400   6.067  11.205  0.0916  0.0955 -0.1817
 6243TIP3    H140220   0.458   6.104  11.139  0.2688  0.1547  0.0070
 6243TIP3    H240221   0.435   5.980  11.222  1.0735  0.7316  1.1035
 6244TIP3   OH240222   5.491   0.542  14.881 -0.5462  0.3144  0.4603
 6244TIP3    H140223   5.422   0.481  14.854 -0.8274  0.6792  0.3492
 6244TIP3    H240224   5.566   0.486  14.900 -0.2492  0.0450 -1.3433
 6245TIP3   OH240225   2.647   5.903   1.495  0.0441 -0.8816  0.1627
 6245TIP3    H140226   2.643   5.856   1.578  1.4678 -0.4363  0.4964
 6245TIP3    H240227   2.739   5.925   1.484 -0.1486 -0.8016 -1.4671
 6246TIP3   OH240228   3.198   2.080   1.934 -0.3097  0.5581 -0.2406
 6246TIP3    H140229   3.229   2.124   2.013 -0.0802  0.4613 -0.2768
 6246TIP3    H240230   3.186   1.989   1.959 -1.4662  0.7727  0.0219
 6247TIP3   OH240231   4.370   4.323   1.067  0.3907  0.0940  0.4196
 6247TIP3    H140232   4.451   4.275   1.089  1.1288  0.0260 -2.3092
 6247TIP3    H240233   4.400   4.411   1.045 -0.5081  0.6163  1.2594
 6248TIP3   OH240234   4.137   6.104  14.190  0.3969 -0.1932  0.3491
 6248TIP3    H140235   4.179   6.067  14.113 -0.0853  1.9807 -1.0116
 6248TIP3    H240236   4.044   6.103  14.169  0.2313  0.1019  1.0466
 6249TIP3   OH240237   4.530   0.065  16.200  0.1573  0.3205  0.4774
 6249TIP3    H140238   4.557   0.049  16.290  1.3786  2.3185  0.5133
 6249TIP3    H240239   4.580   0.143  16.174 -2.1906  1.3681 -1.0294
 6250TIP3   OH240240   0.817   5.561  13.402  0.0172  0.2952 -0.0667
 6250TIP3    H140241   0.888   5.500  13.425  0.0641  0.8635  1.3762
 6250TIP3    H240242   0.846   5.602  13.321  0.6982 -0.4835 -0.2328
 6251TIP3   OH240243   0.481   2.898   1.246 -0.3701  0.2622 -0.0044
 6251TIP3    H140244   0.551   2.893   1.181  1.9737  1.2920  2.3359
 6251TIP3    H240245   0.424   2.968   1.215  0.1114  0.0076 -1.4920
 6252TIP3   OH240246   6.184   4.676   6.010 -0.2507  0.6819  0.0773
 6252TIP3    H140247   6.225   4.701   6.093  0.3786 -0.5590  0.1547
 6252TIP3    H240248   6.098   4.717   6.013 -0.2797  0.5535  1.4187
 6253TIP3   OH240249   5.494   5.874   0.255  0.4905  0.5857 -0.3351
 6253TIP3    H140250   5.580   5.833   0.261  2.0162  3.6780 -0.2060
 6253TIP3    H240251   5.484   5.896   0.162 -0.5504 -0.5055 -0.4963
 6254TIP3   OH240252   0.431   1.804   2.169 -0.2856 -0.0441 -0.4743
 6254TIP3    H140253   0.343   1.770   2.155 -0.4252  0.1869 -0.1598
 6254TIP3    H240254   0.418   1.893   2.203  0.0560 -0.1467 -0.0619
 6255TIP3   OH240255   4.032   2.844   2.878 -0.6723  0.0060 -0.6473
 6255TIP3    H140256   3.968   2.799   2.934  1.4877 -2.3086  0.0735
 6255TIP3    H240257   4.017   2.937   2.894 -3.0455 -0.5073  0.3975
 6256TIP3   OH240258   2.595   6.651   4.162 -0.3660  0.0169  0.2031
 6256TIP3    H140259   2.676   6.701   4.152  0.3548 -0.9174  1.2847
 6256TIP3    H240260   2.563   6.640   4.072  0.6911  0.4086 -0.2276
 6257TIP3   OH240261   3.771   4.111  13.110 -0.1603  0.1548  0.8451
 6257TIP3    H140262   3.768   4.099  13.015 -3.6374 -0.8049  1.0365
 6257TIP3    H240263   3.701   4.056  13.144  1.7160 -0.3341  4.1025
 6258TIP3   OH240264   3.776   4.374  16.344  0.2815 -0.1077 -0.5597
 6258TIP3    H140265   3.780   4.422  16.427 -1.7286  0.8158 -0.9538
 6258TIP3    H240266   3.698   4.318  16.354  0.7938 -0.9552 -1.3174
 6259TIP3   OH240267   5.298   0.816  13.688  0.0612 -0.5586 -0.0539
 6259TIP3    H140268   5.345   0.744  13.646 -1.1959 -0.0437 -2.4227
 6259TIP3    H240269   5.235   0.846  13.622 -1.3187  0.9244  1.8694
 6260TIP3   OH240270   5.024   2.829   5.268 -0.0807 -0.0621 -0.2006
 6260TIP3    H140271   4.977   2.907   5.297 -0.7927  0.1026 -1.7566
 6260TIP3    H240272   4.957   2.772   5.230  0.6219 -0.8612 -0.2743
 6261TIP3   OH240273   5.337   4.856   4.797  0.3309 -0.1738  0.1455
 6261TIP3    H140274   5.343   4.886   4.887  1.1320  0.3831 -0.0915
 6261TIP3    H240275   5.357   4.933   4.744 -1.0922 -0.2539 -0.5268
 6262TIP3   OH240276   0.224   1.192  17.033 -0.4710 -0.3046 -0.3489
 6262TIP3    H140277   0.298   1.234  17.075 -1.6656  0.4316  1.0442
 6262TIP3    H240278   0.259   1.109  17.000  0.7571 -0.3592  1.0540
 6263TIP3   OH240279   4.519   1.307   1.057 -0.2343  0.2622 -0.2174
 6263TIP3    H140280   4.458   1.379   1.066 -0.6717 -0.0883 -0.3565
 6263TIP3    H240281   4.602   1.340   1.092 -0.8908  0.2343  1.3974
 6264TIP3   OH240282   3.991   5.327   6.132 -0.1609 -0.2416  0.2709
 6264TIP3    H140283   4.041   5.371   6.063 -1.0866 -0.9912 -0.8882
 6264TIP3    H240284   4.007   5.234   6.117 -1.0763 -0.4453  0.5299
 6265TIP3   OH240285   2.303   5.733  13.694  0.0061 -0.7553 -0.2176
 6265TIP3    H140286   2.333   5.671  13.759 -0.4766 -1.2819 -0.4922
 6265TIP3    H240287   2.357   5.716  13.617  1.1144  0.3951  0.2852
 6266TIP3   OH240288   0.229   5.996  12.525  0.2088 -0.1593  0.3215
 6266TIP3    H140289   0.166   5.986  12.595 -0.6309  0.0717 -0.3890
 6266TIP3    H240290   0.282   5.916  12.528 -1.6035 -1.4273 -0.5410
 6267TIP3   OH240291   5.643   5.504   5.182 -0.0596  0.4580 -0.0867
 6267TIP3    H140292   5.663   5.426   5.233 -1.0621  0.6442  0.6139
 6267TIP3    H240293   5.641   5.575   5.247  1.2532  1.1339 -0.7782
 6268TIP3   OH240294   2.720   3.170  17.201 -0.2524  0.2503  0.5025
 6268TIP3    H140295   2.637   3.170  17.249  0.4175  1.3809  1.7012
 6268TIP3    H240296   2.735   3.079  17.177 -0.3618 -0.4169  2.8863
 6269TIP3   OH240297   4.518   5.411  16.749  0.2354  0.5790 -0.0387
 6269TIP3    H140298   4.471   5.471  16.807 -0.4244 -0.1906  0.2377
 6269TIP3    H240299   4.610   5.437  16.755 -0.0167  1.3767  0.2951
 6270TIP3   OH240300   6.163   6.261  12.841  0.0686  0.5505  0.0962
 6270TIP3    H140301   6.185   6.168  12.830 -1.5181 -0.1839  2.7635
 6270TIP3    H240302   6.247   6.305  12.845  0.8706 -0.9192 -0.0368
 6271TIP3   OH240303   4.497   0.459  13.464  0.6950  0.1437 -0.4043
 6271TIP3    H140304   4.552   0.413  13.528 -1.4563  1.0094  2.1437
 6271TIP3    H240305   4.523   0.551  13.472 -2.0885  0.7963  1.9464
 6272TIP3   OH240306   0.007   1.171  15.856  0.1998 -0.1131 -0.0290
 6272TIP3    H140307   0.100   1.152  15.847  0.2310  0.6588 -1.4893
 6272TIP3    H240308   0.004   1.250  15.911  0.3362 -0.9674  1.2081
 6273TIP3   OH240309   5.331   6.127   5.421 -0.0931 -0.1912  0.1509
 6273TIP3    H140310   5.264   6.195   5.413  0.0810 -0.0041  0.2741
 6273TIP3    H240311   5.295   6.066   5.486 -0.2997 -0.2776 -0.0440
 6274TIP3   OH240312   5.388   0.815   3.362  0.0527  0.4577 -0.4951
 6274TIP3    H140313   5.448   0.799   3.434  0.2005  0.6744 -0.5701
 6274TIP3    H240314   5.441   0.805   3.283 -0.1708 -0.0564 -0.5850
 6275TIP3   OH240315   2.784   6.669  16.031 -0.7808  0.7074  0.5504
 6275TIP3    H140316   2.868   6.683  15.987  0.3401 -2.0100  1.7551
 6275TIP3    H240317   2.723   6.651  15.960  0.5840 -1.5768 -0.0819
 6276TIP3   OH240318   5.034   4.761  16.310 -0.5254 -0.2882  0.1744
 6276TIP3    H140319   5.048   4.854  16.325 -3.0167 -0.0112  1.0979
 6276TIP3    H240320   5.014   4.754  16.216  0.4263 -0.0072 -0.0509
 6277TIP3   OH240321   4.079   1.282  15.750 -0.1084  0.7065 -0.2196
 6277TIP3    H140322   4.168   1.303  15.721 -0.4959  0.7495 -1.3649
 6277TIP3    H240323   4.036   1.368  15.756 -0.1495  0.6644  0.0999
 6278TIP3   OH240324   6.815   6.704  14.037  0.2702 -0.4344  0.0295
 6278TIP3    H140325   6.899   6.677  14.000  0.9326  0.4719  0.8366
 6278TIP3    H240326   6.808   6.797  14.017 -0.8942 -0.6675 -0.6801
 6279TIP3   OH240327   4.729   4.207  11.532  0.0477  0.2008  0.1375
 6279TIP3    H140328   4.797   4.141  11.545  1.8973  1.6381 -1.8786
 6279TIP3    H240329   4.701   4.231  11.620 -0.9411 -3.4921  0.9341
 6280TIP3   OH240330   3.499   2.216   1.747 -0.3153 -0.3744 -0.3728
 6280TIP3    H140331   3.435   2.284   1.722 -0.9867 -1.1045 -0.6635
 6280TIP3    H240332   3.569   2.264   1.790 -2.0242  0.2429  1.8061
 6281TIP3   OH240333   2.605   3.456   2.929  0.5316  0.5236  0.9873
 6281TIP3    H140334   2.604   3.364   2.955 -0.6919 -0.0242 -0.8619
 6281TIP3    H240335   2.555   3.501   2.997 -2.3564 -0.8193 -0.1567
 6282TIP3   OH240336   0.857   5.642   4.378 -0.0759 -0.5363  0.1756
 6282TIP3    H140337   0.922   5.622   4.310 -0.9295 -0.5369 -0.6501
 6282TIP3    H240338   0.892   5.718   4.423  0.3053 -0.2836 -0.5323
 6283TIP3   OH240339   4.616   4.478   4.064 -0.6461  0.4274  0.4383
 6283TIP3    H140340   4.572   4.457   3.981  0.8960  0.6203 -0.4533
 6283TIP3    H240341   4.699   4.431   4.059  0.2251  1.8712  1.0766
 6284TIP3   OH240342   5.508   4.136   1.240 -0.1820 -0.4105  0.7125
 6284TIP3    H140343   5.524   4.147   1.146 -2.5270 -0.2306  0.3133
 6284TIP3    H240344   5.569   4.198   1.281  0.2460  0.1522 -0.7212
 6285TIP3   OH240345   6.407   5.722   1.044  0.4503 -0.1124  0.5428
 6285TIP3    H140346   6.433   5.731   0.952  2.4977  0.6803  1.1692
 6285TIP3    H240347   6.422   5.630   1.064 -3.3098 -1.1144 -0.8398
 6286TIP3   OH240348   5.620   0.885   3.868 -0.3838 -0.5694  0.6669
 6286TIP3    H140349   5.625   0.790   3.876 -2.2264 -0.7160  0.3849
 6286TIP3    H240350   5.656   0.905   3.782 -0.6551 -1.0808  0.4382
 6287TIP3   OH240351   5.223   4.513  15.627 -0.2732 -0.3453  0.0239
 6287TIP3    H140352   5.242   4.584  15.688 -1.2286 -0.7187  0.7633
 6287TIP3    H240353   5.128   4.502  15.631 -0.2685 -0.8569 -0.9927
 6288TIP3   OH240354   5.692   1.936   6.049  0.3650  0.2479  0.3678
 6288TIP3    H140355   5.721   1.862   6.101 -1.1038 -0.0152  0.8155
 6288TIP3    H240356   5.754   2.006   6.069  1.3259 -0.6353  0.4830
 6289TIP3   OH240357   1.364   2.386   5.586  0.1787  0.2249  0.1782
 6289TIP3    H140358   1.358   2.323   5.514 -0.9529  0.0774  0.3993
 6289TIP3    H240359   1.324   2.342   5.661 -0.7327  1.2333  0.3045
 6290TIP3   OH240360   0.449   5.488  10.629 -0.3172 -0.0173 -0.3037
 6290TIP3    H140361   0.429   5.399  10.660 -0.4950  0.2264  0.2957
 6290TIP3    H240362   0.545   5.489  10.622 -0.1359  0.3728  1.7056
 6291TIP3   OH240363   1.923   2.012  15.562 -0.2721 -0.1808  0.1999
 6291TIP3    H140364   1.885   1.950  15.499  1.2250  0.2698 -1.1780
 6291TIP3    H240365   1.894   1.979  15.647 -1.9643 -1.0637 -0.6767
 6292TIP3   OH240366   0.868   2.177  13.367  0.4882  0.0982 -0.4075
 6292TIP3    H140367   0.863   2.272  13.379  0.2149  0.1329 -0.7835
 6292TIP3    H240368   0.893   2.165  13.276 -1.2036 -0.2094 -0.8493
 6293TIP3   OH240369   5.435   0.508  16.134  0.0859 -0.0303  0.1092
 6293TIP3    H140370   5.348   0.476  16.112  0.9985 -2.0733 -0.7556
 6293TIP3    H240371   5.463   0.454  16.208  0.9381  0.0317 -0.1543
 6294TIP3   OH240372   4.471   6.685  17.022  0.4738 -0.5413  0.3466
 6294TIP3    H140373   4.392   6.736  17.036 -0.1765 -2.1715  3.1463
 6294TIP3    H240374   4.442   6.594  17.030  2.3903 -1.1890  0.1493
 6295TIP3   OH240375   1.669   0.432  11.798  0.0226  0.4321 -0.0697
 6295TIP3    H140376   1.739   0.379  11.839 -0.2274  1.7027  2.0699
 6295TIP3    H240377   1.588   0.390  11.827 -0.1494  0.4555 -0.5127
 6296TIP3   OH240378   0.932   2.335   1.698  0.1841 -0.4220 -0.0321
 6296TIP3    H140379   0.877   2.268   1.657 -0.2618  1.6516 -3.0196
 6296TIP3    H240380   0.895   2.346   1.786 -2.4954 -1.0032 -1.0287
 6297TIP3   OH240381   3.698   1.130  12.165 -0.1759 -0.3495  0.5181
 6297TIP3    H140382   3.692   1.128  12.261 -2.6974 -0.0226  0.4019
 6297TIP3    H240383   3.671   1.043  12.137 -2.7913  0.5944 -0.0105
 6298TIP3   OH240384   5.762   6.460   6.730  0.4040  0.4379 -0.2766
 6298TIP3    H140385   5.788   6.455   6.638  2.2388 -2.6196  0.3203
 6298TIP3    H240386   5.670   6.435   6.731  0.6367 -0.4591 -1.2019
 6299TIP3   OH240387   6.514   3.889   2.215 -0.6546 -0.4460 -0.0178
 6299TIP3    H140388   6.446   3.851   2.160 -0.9686  0.4681 -0.2807
 6299TIP3    H240389   6.594   3.882   2.164 -0.6969 -0.8273 -0.0289
 6300TIP3   OH240390   1.649   4.899   4.375  0.4356  0.3405 -0.4587
 6300TIP3    H140391   1.590   4.964   4.413  0.8755  0.2446  0.4252
 6300TIP3    H240392   1.679   4.938   4.293 -0.8555  0.3804 -0.9209
 6301TIP3   OH240393   2.068   5.055  12.513 -0.4313 -0.4904 -0.1005
 6301TIP3    H140394   2.083   5.141  12.475  1.3124 -1.3164 -1.3608
 6301TIP3    H240395   2.150   5.033  12.557 -1.8682 -0.2602  2.8161
 6302TIP3   OH240396   0.782   5.436  14.446 -0.1675 -0.0686 -0.2180
 6302TIP3    H140397   0.755   5.403  14.360 -1.8087  0.6409  0.0076
 6302TIP3    H240398   0.786   5.531  14.435  3.1846 -0.2088 -0.4852
 6303TIP3   OH240399   1.949   5.806   2.559 -0.6124 -0.2389 -0.2661
 6303TIP3    H140400   2.002   5.802   2.639  0.7401  0.4519 -1.1072
 6303TIP3    H240401   1.934   5.900   2.545 -1.2404 -0.3813 -0.5757
 6304TIP3   OH240402   4.105   2.110  17.207 -0.7274 -0.6729 -0.3043
 6304TIP3    H140403   4.136   2.106  17.298 -1.0682  0.5026 -0.1371
 6304TIP3    H240404   4.087   2.018  17.185  1.7846 -1.2640 -0.0396
 6305TIP3   OH240405   4.937   1.303   3.437 -0.4208  0.4527  0.7779
 6305TIP3    H140406   4.994   1.333   3.508 -1.3897 -0.4469  1.9693
 6305TIP3    H240407   4.854   1.348   3.453 -1.5268 -1.9011  1.9195
 6306TIP3   OH240408   2.802   0.687   0.629  0.2127 -0.0524  0.1038
 6306TIP3    H140409   2.891   0.722   0.632  1.0268 -2.1249  1.9895
 6306TIP3    H240410   2.810   0.606   0.578 -1.0831  0.9271 -1.7404
 6307TIP3   OH240411   3.117   2.080  11.949  0.4645 -1.2674 -0.5616
 6307TIP3    H140412   3.198   2.129  11.935 -0.4928  0.0000 -1.8153
 6307TIP3    H240413   3.143   2.007  12.005  2.1480  0.0126  0.3852
 6308TIP3   OH240414   5.929   3.815   0.082 -0.5032 -0.1055  0.5424
 6308TIP3    H140415   5.860   3.862   0.036 -1.7412  0.5543  3.0041
 6308TIP3    H240416   5.978   3.883   0.128  0.8516 -0.7286  0.0379
 6309TIP3   OH240417   4.398   0.383   1.413 -0.4963 -0.4749  0.0463
 6309TIP3    H140418   4.451   0.418   1.342 -1.0033 -0.2820 -0.2419
 6309TIP3    H240419   4.315   0.358   1.371 -1.7072  1.8346  0.9642
 6310TIP3   OH240420   4.964   5.733  16.943 -0.1759  0.1337 -0.1550
 6310TIP3    H140421   5.025   5.690  16.883 -0.3426  0.3537 -0.4805
 6310TIP3    H240422   4.923   5.660  16.991 -0.5591 -0.0893 -0.8074
 6311TIP3   OH240423   4.765   2.442  15.672  0.4267  0.1971  0.4003
 6311TIP3    H140424   4.711   2.442  15.750 -1.6093  0.4998 -0.9800
 6311TIP3    H240425   4.820   2.519  15.681  1.4045 -0.6943  2.3153
 6312TIP3   OH240426   0.497   5.931  11.539 -0.7588 -0.1725  0.4673
 6312TIP3    H140427   0.564   5.865  11.554 -2.5789 -2.3507 -0.7405
 6312TIP3    H240428   0.546   6.010  11.515  1.3623 -1.5766  0.0422
 6313TIP3   OH240429   4.964   2.168  11.758 -0.1837  0.0530  0.4408
 6313TIP3    H140430   5.013   2.193  11.680 -0.0597  2.0180  1.1340
 6313TIP3    H240431   5.019   2.102  11.801  0.4176  0.0374 -0.3564
 6314TIP3   OH240432   6.658   6.536   1.525 -0.2999 -0.3091 -0.0038
 6314TIP3    H140433   6.657   6.613   1.582  3.4510 -0.2121  0.0293
 6314TIP3    H240434   6.679   6.570   1.439  0.9237 -1.2214 -0.0788
 6315TIP3   OH240435   6.511   5.179  11.183 -0.4925 -0.5981 -0.0748
 6315TIP3    H140436   6.461   5.133  11.251  0.3210 -1.9322 -0.3535
 6315TIP3    H240437   6.471   5.150  11.101 -0.3235 -0.3919 -0.2291
 6316TIP3   OH240438   6.152   2.106   5.466 -0.0865 -0.3469 -0.1792
 6316TIP3    H140439   6.096   2.047   5.517 -0.1514 -0.9208 -0.8897
 6316TIP3    H240440   6.093   2.143   5.400  0.1671 -0.2470 -0.3493
 6317TIP3   OH240441   6.170   5.910   5.316 -0.4214  0.5216 -0.0274
 6317TIP3    H140442   6.184   5.989   5.263 -1.0703  0.3704 -0.4358
 6317TIP3    H240443   6.206   5.839   5.263 -1.2952  0.3364 -0.3972
 6318TIP3   OH240444   2.095   1.334   3.308  0.0967  0.4302  0.4374
 6318TIP3    H140445   2.126   1.381   3.230  0.0389  0.9524  0.7269
 6318TIP3    H240446   2.164   1.346   3.372 -0.0746  0.4111  0.6250
 6319TIP3   OH240447   0.147   5.541  17.070  0.2557 -0.0439 -0.1214
 6319TIP3    H140448   0.142   5.636  17.069 -0.4054 -0.0913 -1.6647
 6319TIP3    H240449   0.072   5.513  17.123  0.9990  0.3140  1.1389
 6320TIP3   OH240450   2.136   2.235  12.242  0.2320 -0.2453 -0.2217
 6320TIP3    H140451   2.094   2.321  12.249 -0.7305 -0.6925 -0.4555
 6320TIP3    H240452   2.172   2.219  12.329  2.2561  1.3212 -0.7342
 6321TIP3   OH240453   4.884   2.015  16.399  0.2742 -0.4222  0.2589
 6321TIP3    H140454   4.940   2.029  16.322  0.7978 -0.4125  0.6414
 6321TIP3    H240455   4.797   2.002  16.362  0.7266 -1.6636 -0.4106
 6322TIP3   OH240456   6.628   4.595   2.230 -0.3204 -0.1672  0.3328
 6322TIP3    H140457   6.592   4.506   2.238  0.1599 -0.4170 -0.2234
 6322TIP3    H240458   6.709   4.592   2.280  0.1878 -0.3247 -0.4862
 6323TIP3   OH240459   0.183   3.808  16.085  0.4884  0.1316  0.2707
 6323TIP3    H140460   0.166   3.790  16.177 -0.6596  1.0805  0.2478
 6323TIP3    H240461   0.163   3.726  16.040  0.6370 -0.2026  0.8122
 6324TIP3   OH240462   6.066   0.898   3.688 -0.2203 -0.0214  0.3008
 6324TIP3    H140463   5.978   0.871   3.662 -0.3296  0.5814  0.0311
 6324TIP3    H240464   6.053   0.977   3.739  0.2690  1.0031 -1.1117
 6325TIP3   OH240465   5.889   4.012   3.617 -0.5486  0.4886  0.1211
 6325TIP3    H140466   5.802   4.041   3.587  0.0390  1.7154 -0.4083
 6325TIP3    H240467   5.928   3.969   3.541  0.2858  2.1295 -0.3821
 6326TIP3   OH240468   5.671   3.173  11.505  0.3712 -0.3214  0.0976
 6326TIP3    H140469   5.587   3.216  11.523  0.6556  1.3272 -2.1455
 6326TIP3    H240470   5.669   3.157  11.410  3.5326  1.9536 -0.4334
 6327TIP3   OH240471   5.472   4.298  11.417 -0.1432  0.5700 -0.3718
 6327TIP3    H140472   5.451   4.241  11.343  0.2625  0.4195 -0.3728
 6327TIP3    H240473   5.500   4.238  11.486 -1.6823  0.6159  0.3127
 6328TIP3   OH240474   6.000   4.221  15.901  0.0710  0.2607 -0.1244
 6328TIP3    H140475   5.972   4.185  15.817  1.6366 -2.0722  0.2863
 6328TIP3    H240476   5.938   4.291  15.920 -1.4622 -0.4687 -2.2956
 6329TIP3   OH240477   5.687   3.068  11.234  0.4515 -0.2990  0.5089
 6329TIP3    H140478   5.631   3.019  11.174  0.9904  1.0616 -1.1391
 6329TIP3    H240479   5.717   3.003  11.298 -1.4614 -1.4317  0.3010
 6330TIP3   OH240480   5.487   2.044   4.136  0.4688 -0.5537  0.7126
 6330TIP3    H140481   5.531   2.046   4.221 -1.8092 -0.1360  1.9223
 6330TIP3    H240482   5.470   2.136   4.117  3.7062 -0.3709 -1.7249
 6331TIP3   OH240483   4.776   5.080   4.607 -0.4333 -0.1357 -0.4922
 6331TIP3    H140484   4.843   5.144   4.630  1.9600 -2.1080 -1.6823
 6331TIP3    H240485   4.743   5.109   4.522 -1.0700  0.8014  0.0638
 6332TIP3   OH240486   6.641   0.665  13.125 -0.4225 -0.0355 -0.3547
 6332TIP3    H140487   6.625   0.613  13.046  0.6777 -0.2022 -0.4862
 6332TIP3    H240488   6.709   0.616  13.172 -1.9665 -0.5817  1.3223
 6333TIP3   OH240489   5.525   3.193  15.839  0.2338 -0.2085 -0.4916
 6333TIP3    H140490   5.451   3.240  15.876  0.9737 -0.0193  0.7935
 6333TIP3    H240491   5.517   3.206  15.745 -0.3024  1.4071 -0.2435
 6334TIP3   OH240492   4.652   3.349  12.393  0.2700  0.8002 -0.5388
 6334TIP3    H140493   4.578   3.376  12.338 -1.0879  1.0360  1.3279
 6334TIP3    H240494   4.625   3.374  12.482  2.5754  0.8096  0.1873
 6335TIP3   OH240495   1.086   3.570  13.881 -0.0886 -0.1124  0.3493
 6335TIP3    H140496   1.085   3.481  13.916  0.0898 -0.5218 -0.6537
 6335TIP3    H240497   1.022   3.617  13.934 -3.9433 -2.1141 -2.2202
 6336TIP3   OH240498   1.049   3.666  17.276  0.4632  0.4345 -0.4747
 6336TIP3    H140499   1.057   3.583  17.228  0.5938  0.0206  0.2427
 6336TIP3    H240500   0.994   3.643  17.352 -1.1214  1.4518 -1.2895
 6337TIP3   OH240501   1.011   6.559  16.424  0.1171  0.0689  0.0450
 6337TIP3    H140502   1.072   6.574  16.352 -1.2746  0.7960 -0.9999
 6337TIP3    H240503   0.998   6.464  16.425  0.8919 -0.0437 -0.0159
 6338TIP3   OH240504   4.664   2.562  17.123 -0.7020 -0.3141 -0.6047
 6338TIP3    H140505   4.738   2.546  17.065 -0.9079 -2.2882 -0.3826
 6338TIP3    H240506   4.628   2.646  17.096  0.0475 -0.5653 -2.4072
 6339TIP3   OH240507   3.552   2.922   4.423  0.2202  0.3155 -0.2713
 6339TIP3    H140508   3.566   2.834   4.459 -2.4122 -0.3666 -0.8100
 6339TIP3    H240509   3.472   2.953   4.465  1.0359  2.4269 -0.2080
 6340TIP3   OH240510   4.287   1.044   3.992 -0.1138  0.5714  0.3137
 6340TIP3    H140511   4.228   1.019   3.921 -0.4178 -0.4593  0.9179
 6340TIP3    H240512   4.303   0.962   4.040 -0.6430  1.4136  1.9709
 6341TIP3   OH240513   4.087   6.309   0.676  0.1389 -0.2966  0.1668
 6341TIP3    H140514   4.047   6.277   0.595  0.6662  1.1403 -0.6651
 6341TIP3    H240515   4.148   6.239   0.702 -2.0623 -2.0414  0.8816
 6342TIP3   OH240516   2.598   6.594   1.563  0.3340 -0.4660 -0.1820
 6342TIP3    H140517   2.609   6.631   1.476  1.2481  1.5702  0.7830
 6342TIP3    H240518   2.686   6.586   1.598 -0.0175 -1.3944  0.5251
 6343TIP3   OH240519   4.412   4.542   0.064  0.5508 -0.2535  0.3860
 6343TIP3    H140520   4.449   4.454   0.072 -0.4007 -0.6357  0.7280
 6343TIP3    H240521   4.485   4.601   0.082  0.6538 -1.0012  2.6013
 6344TIP3   OH240522   5.234   4.857  13.779  0.1003 -0.1752 -0.0412
 6344TIP3    H140523   5.309   4.809  13.813  1.2241  1.2957 -0.3712
 6344TIP3    H240524   5.164   4.839  13.841  1.0372 -0.6958  0.8820
 6345TIP3   OH240525   1.329   2.269  16.044  0.1514  0.1211  0.1491
 6345TIP3    H140526   1.339   2.360  16.071 -0.9700  0.3806 -0.3062
 6345TIP3    H240527   1.343   2.218  16.124 -0.0321  0.7285  0.5696
 6346TIP3   OH240528   0.086   3.050  12.284  0.1764  0.6649 -0.6148
 6346TIP3    H140529   0.166   3.046  12.336 -0.5540 -0.8065  0.4232
 6346TIP3    H240530   0.032   3.116  12.328  0.9697  1.9976 -1.5808
 6347TIP3   OH240531   3.243   4.759  12.124  0.2076  0.4948 -0.1751
 6347TIP3    H140532   3.179   4.701  12.084  1.2072 -0.7578  0.0096
 6347TIP3    H240533   3.323   4.746  12.074 -0.2213  3.7127 -1.8330
 6348TIP3   OH240534   1.337   4.648  12.010  0.1566 -0.3346 -0.2228
 6348TIP3    H140535   1.431   4.644  11.995  0.2465 -2.0727  0.7403
 6348TIP3    H240536   1.328   4.670  12.103 -0.3931 -1.3740 -0.0269
 6349TIP3   OH240537   0.504   0.717   5.002  0.2831 -0.3064  0.6427
 6349TIP3    H140538   0.437   0.777   4.970  0.5485 -0.6502 -0.5845
 6349TIP3    H240539   0.457   0.657   5.060 -0.3938 -0.2423  0.1688
 6350TIP3   OH240540   0.385   5.726  12.211  0.5147  0.0475  0.4775
 6350TIP3    H140541   0.456   5.674  12.249 -1.0297 -0.4304  2.8171
 6350TIP3    H240542   0.410   5.817  12.230  1.3327 -0.0273 -0.2215
 6351TIP3   OH240543   4.333   5.573  12.805  0.3012  0.1739 -0.5295
 6351TIP3    H140544   4.366   5.548  12.891  0.1678  1.8266  0.0221
 6351TIP3    H240545   4.279   5.650  12.821 -0.7344 -0.2297 -1.9436
 6352TIP3   OH240546   4.302   0.208  12.453 -0.6807 -0.4645  0.2086
 6352TIP3    H140547   4.301   0.172  12.365  0.3905 -0.9126  0.3673
 6352TIP3    H240548   4.381   0.261  12.457 -0.7785 -0.3547  0.8640
 6353TIP3   OH240549   0.190   2.897   4.380 -0.4264 -0.0843  0.6584
 6353TIP3    H140550   0.171   2.847   4.459  0.6172 -2.5974 -0.6412
 6353TIP3    H240551   0.108   2.941   4.359 -1.2982 -1.0578  1.9714
 6354TIP3   OH240552   1.200   5.173  13.752  0.2343 -0.2235 -0.4859
 6354TIP3    H140553   1.242   5.103  13.702  2.2228  0.8590 -0.3885
 6354TIP3    H240554   1.266   5.199  13.815 -0.0619  2.5086 -1.2615
 6355TIP3   OH240555   1.246   3.725  13.108 -0.2946  0.4818 -0.2977
 6355TIP3    H140556   1.225   3.653  13.169  0.7714 -0.2083 -0.7373
 6355TIP3    H240557   1.161   3.763  13.086 -0.8744 -0.6698 -0.0799
 6356TIP3   OH240558   5.658   2.881   3.081  0.6049  0.5269 -0.2054
 6356TIP3    H140559   5.721   2.835   3.026 -1.6548 -1.5683 -1.1846
 6356TIP3    H240560   5.626   2.814   3.142 -0.9621  1.3925 -0.0322
 6357TIP3   OH240561   2.251   5.759  12.879  0.4684  0.0265  0.0554
 6357TIP3    H140562   2.292   5.684  12.837 -1.7252 -1.0587 -0.2354
 6357TIP3    H240563   2.192   5.720  12.944 -2.1285  1.3667 -1.3960
 6358TIP3   OH240564   4.065   6.641  13.920  0.1243 -0.3549 -0.3484
 6358TIP3    H140565   4.144   6.667  13.874 -0.2256 -0.2410 -0.8973
 6358TIP3    H240566   3.994   6.657  13.857 -0.3879  0.0612  0.3290
 6359TIP3   OH240567   6.496   0.491  15.935 -0.1501 -0.0688  0.0682
 6359TIP3    H140568   6.416   0.439  15.942 -2.1593  2.4392 -3.0442
 6359TIP3    H240569   6.478   0.570  15.986  1.2551 -0.5083  1.2667
 6360TIP3   OH240570   2.494   3.759  12.855  0.6168 -0.2846  0.1325
 6360TIP3    H140571   2.469   3.851  12.867  1.3265  0.3040 -2.4746
 6360TIP3    H240572   2.566   3.763  12.792 -0.2645 -2.7300 -1.0736
 6361TIP3   OH240573   1.955   0.830   5.069 -0.8010 -0.0668 -0.5242
 6361TIP3    H140574   1.878   0.832   5.012 -0.9449 -0.2772 -0.3407
 6361TIP3    H240575   1.943   0.751   5.122 -1.7908  1.3083  1.3454
 6362TIP3   OH240576   2.156   3.452   4.815  0.1216 -0.5913 -0.1149
 6362TIP3    H140577   2.103   3.465   4.894 -2.4147 -0.4817 -1.7765
 6362TIP3    H240578   2.216   3.381   4.837  0.7956  0.7486  2.5576
 6363TIP3   OH240579   1.222   6.234  16.040  0.6551 -0.1025  0.0804
 6363TIP3    H140580   1.130   6.240  16.064  0.7387  1.0102  0.1457
 6363TIP3    H240581   1.221   6.226  15.944  0.5086  0.1537  0.0613
 6364TIP3   OH240582   5.469   6.134  17.203  0.3430  0.3289 -0.0056
 6364TIP3    H140583   5.548   6.099  17.246  0.4215 -0.3142 -0.6643
 6364TIP3    H240584   5.419   6.056  17.178 -1.0987  0.7484  1.4833
 6365TIP3   OH240585   3.327   3.486   5.479 -0.1030 -0.6925  0.0228
 6365TIP3    H140586   3.233   3.466   5.486 -0.4628  0.4636 -1.2380
 6365TIP3    H240587   3.334   3.577   5.508  0.1646  0.1821 -2.6295
 6366TIP3   OH240588   6.659   0.689   2.179 -0.2970 -0.3481  0.2481
 6366TIP3    H140589   6.611   0.640   2.247  1.1852 -2.2243 -0.0083
 6366TIP3    H240590   6.747   0.699   2.215 -0.2260  1.0463 -0.2716
 6367TIP3   OH240591   4.987   4.481  15.250  0.0963  0.1477  0.0428
 6367TIP3    H140592   4.927   4.551  15.277 -0.8453 -0.3490 -0.7131
 6367TIP3    H240593   5.071   4.506  15.288 -0.7753  0.3905  1.8874
 6368TIP3   OH240594   2.118   5.198  13.274 -0.0859  0.4522  0.7041
 6368TIP3    H140595   2.187   5.161  13.328  0.8420 -1.8156 -1.8955
 6368TIP3    H240596   2.039   5.151  13.300  0.3811 -0.7202  0.0627
 6369TIP3   OH240597   3.361   0.803  15.633 -0.1088 -0.3208 -0.1971
 6369TIP3    H140598   3.422   0.862  15.587  0.5317  0.5741  1.7541
 6369TIP3    H240599   3.389   0.807  15.724 -1.1683 -2.3379  0.2220
 6370TIP3   OH240600   1.613   5.152  15.765 -0.3721 -0.1239  0.2604
 6370TIP3    H140601   1.524   5.185  15.752  0.1780  1.5829  0.8137
 6370TIP3    H240602   1.669   5.229  15.763  1.0935 -1.1595  0.1465
 6371TIP3   OH240603   1.019   4.252   2.366 -0.2689  0.1163  0.4919
 6371TIP3    H140604   0.966   4.235   2.444 -1.1156 -0.2012 -0.1504
 6371TIP3    H240605   1.005   4.345   2.347 -0.3568  0.1022  0.4894
 6372TIP3   OH240606   4.906   5.551  11.205 -0.0627 -0.1695  0.5275
 6372TIP3    H140607   4.947   5.616  11.149  0.7279  1.0292  2.4318
 6372TIP3    H240608   4.980   5.500  11.240 -0.3941  0.1906  1.7758
 6373TIP3   OH240609   3.853   1.846   0.593  0.1933 -0.7189  0.0305
 6373TIP3    H140610   3.873   1.825   0.684  1.2455  0.1445  0.0021
 6373TIP3    H240611   3.904   1.783   0.543  0.6613 -0.3316  0.0159
 6374TIP3   OH240612   1.659   4.282  13.342  0.2545  0.1801  0.5927
 6374TIP3    H140613   1.707   4.284  13.259  0.6564  0.2188  0.8217
 6374TIP3    H240614   1.627   4.371  13.354 -1.2594 -0.2186 -0.3525
 6375TIP3   OH240615   2.814   5.950   0.990  0.3621 -1.1291  0.7121
 6375TIP3    H140616   2.761   5.912   1.060 -0.4947  0.3707  0.9102
 6375TIP3    H240617   2.863   6.020   1.033 -0.2938 -0.0922 -0.2210
 6376TIP3   OH240618   4.944   3.823   4.759  0.2161  0.7480 -0.0177
 6376TIP3    H140619   4.877   3.886   4.787 -1.1946 -0.4904 -0.5419
 6376TIP3    H240620   4.959   3.844   4.667 -2.3860 -1.4630 -1.0319
 6377TIP3   OH240621   5.346   4.657   2.538  0.2338 -0.1630 -0.3834
 6377TIP3    H140622   5.414   4.713   2.500  0.6446 -0.1931  0.2764
 6377TIP3    H240623   5.331   4.695   2.625  0.0447 -0.6870 -0.1855
 6378TIP3   OH240624   5.387   4.618  14.622  0.0935  0.0220  0.4459
 6378TIP3    H140625   5.430   4.544  14.580 -1.3910  0.8258 -2.6013
 6378TIP3    H240626   5.459   4.674  14.651  1.1718 -1.4004  0.5725
 6379TIP3   OH240627   0.393   3.575   3.561  0.2753 -0.2985  0.7077
 6379TIP3    H140628   0.312   3.563   3.511 -0.7012  1.2653  1.8786
 6379TIP3    H240629   0.386   3.513   3.634 -0.2507  0.4169  1.2682
 6380TIP3   OH240630   0.714   2.873  15.528  0.3967 -0.4483  0.1021
 6380TIP3    H140631   0.734   2.949  15.473 -0.4127 -1.0578 -1.0652
 6380TIP3    H240632   0.776   2.806  15.499 -0.7689 -1.1290 -0.8855
 6381TIP3   OH240633   3.200   0.028   0.241 -0.6529 -0.9111 -0.0543
 6381TIP3    H140634   3.209   0.007   0.148 -1.9016 -3.2522  0.3065
 6381TIP3    H240635   3.160  -0.050   0.279  2.5049 -1.1551  2.9665
 6382TIP3   OH240636   0.869   2.176   5.852 -0.2564  0.0559 -0.1619
 6382TIP3    H140637   0.942   2.216   5.804  0.4418 -0.7166  0.2557
 6382TIP3    H240638   0.861   2.228   5.932  0.7208 -0.7082  0.4302
 6383TIP3   OH240639   6.333   1.505  13.759  0.3033  0.5297  0.6452
 6383TIP3    H140640   6.302   1.421  13.725  0.5825  0.3779  0.7667
 6383TIP3    H240641   6.303   1.569  13.694 -1.4865  0.5580  1.4677
 6384TIP3   OH240642   4.014   5.522  15.056 -0.0593 -0.1228 -0.1605
 6384TIP3    H140643   4.091   5.475  15.087  1.5620  1.2566 -1.9739
 6384TIP3    H240644   3.970   5.460  14.997 -0.0603 -0.7288  0.4765
 6385TIP3   OH240645   3.452   4.984   0.124  0.0070  0.6867  0.2110
 6385TIP3    H140646   3.497   5.017   0.046 -0.2384  1.5987  0.4501
 6385TIP3    H240647   3.360   4.976   0.097  0.6499 -3.7380 -1.1235
 6386TIP3   OH240648   1.332   3.634  13.979  0.6721  0.1796  0.0693
 6386TIP3    H140649   1.369   3.546  13.970 -0.2022 -0.0583 -1.4872
 6386TIP3    H240650   1.240   3.623  13.955  0.1907  1.2324  1.4035
 6387TIP3   OH240651   3.068   0.648   5.581 -0.3378 -0.4580 -0.4373
 6387TIP3    H140652   3.102   0.583   5.642 -1.7730  0.9185  1.9432
 6387TIP3    H240653   3.013   0.598   5.520  1.5395 -1.9242 -0.9526
 6388TIP3   OH240654   6.123   3.976  11.836 -0.1256  0.2738 -0.0907
 6388TIP3    H140655   6.139   4.044  11.901 -0.5856  0.5428 -0.2559
 6388TIP3    H240656   6.072   4.019  11.767  0.2842 -0.0268 -0.5899
 6389TIP3   OH240657   1.370   1.577  14.693 -0.5062  0.7485  0.3933
 6389TIP3    H140658   1.311   1.535  14.756  0.3294 -0.2525  0.5205
 6389TIP3    H240659   1.376   1.514  14.621  0.1425  1.0050  0.2266
 6390TIP3   OH240660   6.180   0.215  16.639  0.3672  0.0935 -0.2216
 6390TIP3    H140661   6.175   0.298  16.591  0.4945  0.0517 -0.3055
 6390TIP3    H240662   6.168   0.148  16.571  2.7392 -0.0459 -0.5449
 6391TIP3   OH240663   2.343   5.877  15.898 -0.0162  0.2820  0.4063
 6391TIP3    H140664   2.345   5.956  15.953  0.2291 -0.4449  1.4532
 6391TIP3    H240665   2.250   5.857  15.889 -0.1806  1.7853 -1.4652
 6392TIP3   OH240666   4.727   5.879   3.671  0.0793 -0.0452 -0.4441
 6392TIP3    H140667   4.816   5.910   3.687  0.6560 -0.5709 -2.4593
 6392TIP3    H240668   4.682   5.953   3.631 -0.9916  0.8578  2.3119
 6393TIP3   OH240669   2.919   3.983   4.042 -0.3124 -0.3002 -0.8232
 6393TIP3    H140670   2.824   3.976   4.049 -0.0629 -0.8921  2.6367
 6393TIP3    H240671   2.951   3.894   4.054  0.6979 -0.2100 -2.6130
 6394TIP3   OH240672   5.086   2.098  17.006  0.3176 -0.0412  0.2739
 6394TIP3    H140673   5.047   2.128  16.924  0.5592  0.2602  0.2713
 6394TIP3    H240674   5.064   2.165  17.070 -0.4072 -0.5805  0.6074
 6395TIP3   OH240675   5.636   6.606   5.351 -0.3294  0.2051  0.3109
 6395TIP3    H140676   5.676   6.549   5.416  0.6163 -0.2396 -0.6418
 6395TIP3    H240677   5.636   6.693   5.391  1.1520  0.1198  0.5215
 6396TIP3   OH240678   1.246   3.158   1.982  0.1506 -0.3000 -0.5463
 6396TIP3    H140679   1.180   3.195   1.923  1.0256 -0.8414 -1.8845
 6396TIP3    H240680   1.286   3.087   1.932  1.3323 -0.3752  0.4780
 6397TIP3   OH240681   5.691   6.336  16.246 -0.3844 -0.0951 -0.5394
 6397TIP3    H140682   5.698   6.241  16.255 -0.4520  0.0018  0.6396
 6397TIP3    H240683   5.703   6.369  16.335 -2.1359  0.8914 -0.6530
 6398TIP3   OH240684   3.270   5.697   0.182 -0.2792  0.1451  0.1595
 6398TIP3    H140685   3.300   5.740   0.102 -2.7448 -1.2948 -1.6144
 6398TIP3    H240686   3.281   5.604   0.165 -0.3966 -0.1641  1.6942
 6399TIP3   OH240687   1.173   4.387  15.411 -0.2796  0.1116  0.4287
 6399TIP3    H140688   1.238   4.453  15.386 -0.3245  0.0588  0.1722
 6399TIP3    H240689   1.218   4.303  15.401  0.1654  0.1586  1.9269
 6400TIP3   OH240690   0.037   1.865   0.800  0.2012 -0.5379 -0.1652
 6400TIP3    H140691   0.085   1.935   0.755 -0.2355 -0.2840 -0.2370
 6400TIP3    H240692   0.012   1.904   0.884  0.0286 -0.6386 -0.1716
 6401TIP3   OH240693   2.330   1.809  17.175  0.0553  0.0770  0.1145
 6401TIP3    H140694   2.287   1.808  17.090  1.5314 -0.8859 -0.6357
 6401TIP3    H240695   2.403   1.870  17.165  0.1456  0.0837  0.7494
 6402TIP3   OH240696   2.055   5.812  13.528 -0.5262 -0.3828 -0.5125
 6402TIP3    H140697   2.120   5.763  13.578 -0.5256 -1.5323 -1.6068
 6402TIP3    H240698   2.003   5.857  13.594  1.7254  1.0156  0.3546
 6403TIP3   OH240699   5.617   6.228   3.204  0.1542  0.3000 -0.8944
 6403TIP3    H140700   5.626   6.229   3.108 -0.3988  1.8173 -0.9416
 6403TIP3    H240701   5.695   6.275   3.236  0.0097  0.3696 -0.6400
 6404TIP3   OH240702   6.221   1.167  11.318 -0.0130  0.1240 -0.3570
 6404TIP3    H140703   6.268   1.249  11.312  0.7926 -0.2491  0.6904
 6404TIP3    H240704   6.136   1.185  11.277 -0.0494  1.6290  0.3476
 6405TIP3   OH240705   3.125   1.545   3.808  0.2187  0.5351 -0.2951
 6405TIP3    H140706   3.180   1.507   3.877 -1.0170  1.6977  1.3577
 6405TIP3    H240707   3.067   1.474   3.782  0.4445  0.2042  0.0995
 6406TIP3   OH240708   5.210   2.643  12.486  0.3483 -0.1492 -0.2271
 6406TIP3    H140709   5.206   2.647  12.582 -0.5793 -0.3460 -0.2624
 6406TIP3    H240710   5.304   2.640  12.467  0.6259  1.9548  0.6059
 6407TIP3   OH240711   0.664   5.333  11.287 -0.3407  0.2414  0.0337
 6407TIP3    H140712   0.675   5.288  11.203  0.2438  0.0910  0.1891
 6407TIP3    H240713   0.576   5.370  11.283 -0.6792 -0.5963 -0.2464
 6408TIP3   OH240714   3.112   5.112  14.244  0.2255  0.1524 -0.4391
 6408TIP3    H140715   3.176   5.181  14.262 -2.8740  2.7519  1.2490
 6408TIP3    H240716   3.051   5.152  14.181 -2.8997 -0.1719  2.2707
 6409TIP3   OH240717   4.610   5.729  17.276  0.5443  0.5739  0.4335
 6409TIP3    H140718   4.576   5.675  17.347  1.3496  0.5324  0.7971
 6409TIP3    H240719   4.603   5.673  17.199  0.0992  0.4499  0.5646
 6410TIP3   OH240720   5.997   0.942   5.448 -0.0974  0.0115 -0.4531
 6410TIP3    H140721   5.923   0.918   5.504  1.7270 -0.7440  1.7106
 6410TIP3    H240722   5.991   0.882   5.374 -1.4211 -0.2860 -0.1289
 6411TIP3   OH240723   4.209   2.011  16.281  0.3973  0.2162 -0.2447
 6411TIP3    H140724   4.133   1.987  16.334  0.2709 -1.2015 -1.0315
 6411TIP3    H240725   4.269   1.937  16.291  2.4270  2.0677  1.7517
 6412TIP3   OH240726   3.585   6.149   3.247  0.0501 -0.1735  0.4800
 6412TIP3    H140727   3.642   6.096   3.303 -0.9111 -1.7465  0.0001
 6412TIP3    H240728   3.499   6.109   3.256 -0.6605  1.1964 -0.0642
 6413TIP3   OH240729   0.740   0.086  15.334 -0.4921 -0.2997 -0.2733
 6413TIP3    H140730   0.800   0.100  15.260  0.0579 -2.4429 -0.2703
 6413TIP3    H240731   0.661   0.051  15.293 -1.1978  1.0773 -0.1109
 6414TIP3   OH240732   0.408   5.788  10.918 -0.4165 -0.4220  0.2980
 6414TIP3    H140733   0.435   5.744  10.837  0.5624  1.1420 -0.2229
 6414TIP3    H240734   0.472   5.857  10.932 -1.2867  0.1243  1.7521
 6415TIP3   OH240735   4.212   1.114  13.341 -0.6692 -0.2768  0.3905
 6415TIP3    H140736   4.302   1.102  13.312 -0.3850  3.3572 -0.5076
 6415TIP3    H240737   4.160   1.056  13.284  0.7671  0.2516 -1.5113
 6416TIP3   OH240738   5.195   5.126   6.253  0.2381 -0.2697  0.4048
 6416TIP3    H140739   5.219   5.189   6.185  1.2736 -1.2395 -0.1251
 6416TIP3    H240740   5.250   5.150   6.328  1.8161 -1.5303 -0.3167
 6417TIP3   OH240741   6.408   6.191  13.951 -0.1491 -0.1137 -0.7086
 6417TIP3    H140742   6.487   6.139  13.939 -0.5841 -0.8778 -0.2804
 6417TIP3    H240743   6.352   6.167  13.877 -0.2653 -0.0907 -0.6277
 6418TIP3   OH240744   6.491   4.203   4.990 -0.7726 -0.4645  0.3534
 6418TIP3    H140745   6.484   4.296   5.014 -1.0257 -0.8447  1.7698
 6418TIP3    H240746   6.582   4.180   5.008  0.0684  0.2520 -2.7606
 6419TIP3   OH240747   2.049   6.800  13.573 -0.3256 -0.4748  0.2209
 6419TIP3    H140748   2.039   6.832  13.484 -1.9995  4.0427  1.9116
 6419TIP3    H240749   1.976   6.740  13.586 -2.3774  1.8368 -0.2841
 6420TIP3   OH240750   1.621   2.573   5.058  0.0908  0.2601  0.1640
 6420TIP3    H140751   1.639   2.665   5.077 -1.2724  0.3056  1.3166
 6420TIP3    H240752   1.589   2.572   4.968 -0.5108  0.9841  0.3729
 6421TIP3   OH240753   4.807   4.597   1.943 -0.0302  0.0902  0.2768
 6421TIP3    H140754   4.749   4.662   1.984  0.6304  0.1917  1.0628
 6421TIP3    H240755   4.871   4.577   2.010  1.1429  0.3445 -0.7574
 6422TIP3   OH240756   6.752   1.562   5.827 -0.0502 -0.2939  0.0794
 6422TIP3    H140757   6.783   1.493   5.884 -1.3760 -0.6972  0.3170
 6422TIP3    H240758   6.729   1.518   5.745  0.1484  0.0252 -0.1532
 6423TIP3   OH240759   3.095   3.868   3.668  0.2224  0.0934 -0.0012
 6423TIP3    H140760   3.126   3.958   3.675  2.6462 -0.6598 -0.3940
 6423TIP3    H240761   3.023   3.872   3.605  1.2476  1.5568 -1.1185
 6424TIP3   OH240762   3.640   2.934  14.260  0.4908 -0.6332  0.3952
 6424TIP3    H140763   3.671   2.882  14.334  1.2916  0.6578  0.9815
 6424TIP3    H240764   3.634   2.871  14.187  0.1449 -1.8107  1.4199
 6425TIP3   OH240765   6.368   1.384  11.335 -0.0300  0.5336  0.4244
 6425TIP3    H140766   6.362   1.477  11.358 -0.1776  0.6013  0.1093
 6425TIP3    H240767   6.457   1.373  11.302 -0.5044  0.8890 -0.9950
 6426TIP3   OH240768   6.480   6.020  11.629  0.4248  0.1075  0.3643
 6426TIP3    H140769   6.405   6.000  11.684 -0.5800  1.0778 -0.6310
 6426TIP3    H240770   6.556   6.004  11.685 -0.4732 -1.8068  1.0746
 6427TIP3   OH240771   2.101   2.763  15.254 -0.0485  0.1689 -0.0398
 6427TIP3    H140772   2.178   2.819  15.245 -0.6891  1.3936  1.8455
 6427TIP3    H240773   2.124   2.701  15.323 -0.3554 -0.2003 -0.2618
 6428TIP3   OH240774   1.785   0.765  11.047 -0.4003 -0.0964 -0.0737
 6428TIP3    H140775   1.761   0.846  11.001  0.7071  1.4462  2.0042
 6428TIP3    H240776   1.842   0.719  10.985  0.1904  1.4372 -0.7045
 6429TIP3   OH240777   3.234   2.838  13.758  0.1992 -0.4091  0.0717
 6429TIP3    H140778   3.168   2.907  13.762 -0.0838 -0.6907  0.2132
 6429TIP3    H240779   3.198   2.766  13.809  1.2145 -0.0528  1.3233
 6430TIP3   OH240780   6.396   6.130  12.259 -0.3665 -0.2222  0.1101
 6430TIP3    H140781   6.389   6.108  12.352  0.1319  0.7100  0.3767
 6430TIP3    H240782   6.479   6.178  12.252  0.0461 -1.0752 -0.9716
 6431TIP3   OH240783   2.825   1.079  12.613 -0.0663  0.3948  0.2228
 6431TIP3    H140784   2.800   1.139  12.543  1.4572  1.0961  0.2566
 6431TIP3    H240785   2.772   1.001  12.598 -0.2402  0.7927 -1.3158
 6432TIP3   OH240786   1.512   3.111  12.670 -0.1575  0.2260  0.1601
 6432TIP3    H140787   1.534   3.203  12.686  0.0412  0.3523 -0.8335
 6432TIP3    H240788   1.419   3.113  12.645 -0.2233  0.1256  0.3938
 6433TIP3   OH240789   6.286   2.515   0.018  0.0033  0.1564  0.3290
 6433TIP3    H140790   6.321   2.568  -0.054  1.0356 -1.0272 -0.0568
 6433TIP3    H240791   6.280   2.575   0.092  1.1208  0.8296 -0.1180
 6434TIP3   OH240792   5.725   5.014  14.909  0.4537  0.3479 -0.3015
 6434TIP3    H140793   5.720   4.967  14.992  1.0144 -0.4725 -0.7348
 6434TIP3    H240794   5.739   5.105  14.934 -3.8148  0.8493  0.6701
 6435TIP3   OH240795   1.086   2.765   5.037  0.3505 -0.0062 -0.5730
 6435TIP3    H140796   1.086   2.851   4.994  0.0484  1.1945  1.7822
 6435TIP3    H240797   1.048   2.707   4.971  2.7915  1.1577 -3.1296
 6436TIP3   OH240798   3.221   5.021  17.284  0.0021 -0.1055  0.1284
 6436TIP3    H140799   3.183   4.987  17.202  2.6209  0.3896 -1.3497
 6436TIP3    H240800   3.191   5.112  17.288 -1.2268 -0.5079  0.4383
 6437TIP3   OH240801   5.710   3.359   3.100 -0.3923 -0.3802  0.6618
 6437TIP3    H140802   5.703   3.266   3.080 -0.5502 -0.7592  2.3978
 6437TIP3    H240803   5.777   3.364   3.169 -1.0660  0.6683  1.2589
 6438TIP3   OH240804   5.981   2.560   3.820  0.5078  0.1579  0.3156
 6438TIP3    H140805   6.042   2.601   3.881  1.0519 -0.1233 -0.0328
 6438TIP3    H240806   5.947   2.484   3.867  1.0414 -0.1453  0.2146
 6439TIP3   OH240807   2.688   5.275  13.330 -0.0832 -0.2905 -0.0477
 6439TIP3    H140808   2.713   5.185  13.308  1.5536 -0.1641  1.2066
 6439TIP3    H240809   2.715   5.327  13.254 -0.9821 -0.8146 -0.7518
 6440TIP3   OH240810   3.416   5.347  11.255  0.1831 -0.4546 -0.0891
 6440TIP3    H140811   3.499   5.386  11.281 -0.4053 -0.3562  1.7628
 6440TIP3    H240812   3.433   5.253  11.253 -0.2398 -0.6308  2.6921
 6441TIP3   OH240813   1.492   0.799  15.828  0.0178 -0.5170  0.1798
 6441TIP3    H140814   1.575   0.786  15.782  0.0360 -0.5894  0.2333
 6441TIP3    H240815   1.441   0.720  15.810 -0.7564  0.3164 -1.3810
 6442TIP3   OH240816   5.406   6.218   1.707 -0.0046  0.3464  0.4107
 6442TIP3    H140817   5.475   6.221   1.773  0.8063 -1.7600 -0.2999
 6442TIP3    H240818   5.443   6.166   1.636 -1.8481  0.3286 -0.5662
 6443TIP3   OH240819   1.946   0.236   0.352  0.0456 -0.3631  0.2571
 6443TIP3    H140820   1.928   0.303   0.287  0.4117 -0.2305  0.2885
 6443TIP3    H240821   1.997   0.281   0.419  1.1215 -0.8872 -0.1893
 6444TIP3   OH240822   2.676   6.460  14.814  0.1662 -0.1828  0.4094
 6444TIP3    H140823   2.630   6.512  14.879  0.3145  0.1301  0.2621
 6444TIP3    H240824   2.762   6.500  14.806  0.2098 -0.3243  0.1466
 6445TIP3   OH240825   3.203   0.631   2.131  1.0798 -0.0374 -0.7175
 6445TIP3    H140826   3.292   0.596   2.127  0.8060 -0.7957 -0.3739
 6445TIP3    H240827   3.172   0.625   2.040  0.3561 -2.5441 -0.3431
 6446TIP3   OH240828   5.416   2.142   5.481 -0.3730 -0.6432  0.6303
 6446TIP3    H140829   5.433   2.226   5.440 -1.5158 -0.1431  1.1648
 6446TIP3    H240830   5.503   2.102   5.492  0.2719  0.8967  1.3145
 6447TIP3   OH240831   2.717   1.927  13.166 -0.6848 -0.0971 -0.2646
 6447TIP3    H140832   2.634   1.881  13.158 -0.2440 -0.7546 -1.1655
 6447TIP3    H240833   2.697   2.018  13.143 -1.5470  0.1638  1.4788
 6448TIP3   OH240834   1.502   0.754  16.715  0.1713 -0.0090  0.0188
 6448TIP3    H140835   1.419   0.710  16.732  1.6680 -2.4878  1.1450
 6448TIP3    H240836   1.478   0.846  16.700 -3.0438 -1.1328 -2.3505
 6449TIP3   OH240837   4.102   3.883  14.013  0.0516  0.1789 -0.2723
 6449TIP3    H140838   4.131   3.805  13.965  0.6496  0.2948 -0.1057
 6449TIP3    H240839   4.016   3.860  14.046  0.7344 -0.8791  0.8051
 6450TIP3   OH240840   6.276   6.240   2.720  0.2458 -0.0484  0.0692
 6450TIP3    H140841   6.259   6.170   2.783 -0.1887  0.7510  0.8559
 6450TIP3    H240842   6.262   6.320   2.770  2.3399  0.6099 -0.3750
 6451TIP3   OH240843   3.818   2.725  10.852 -0.0712  0.4785 -0.7400
 6451TIP3    H140844   3.914   2.727  10.842  0.3402  0.4087  2.6210
 6451TIP3    H240845   3.799   2.636  10.882 -1.0147  1.0044  0.2293
 6452TIP3   OH240846   4.395   5.743  11.273 -0.6217 -0.1312  0.4171
 6452TIP3    H140847   4.392   5.650  11.293 -1.3975 -0.1978 -0.0176
 6452TIP3    H240848   4.447   5.749  11.193 -0.0622 -0.1307  0.7756
 6453TIP3   OH240849   5.166   3.886   4.922  0.2437  0.8514 -0.2055
 6453TIP3    H140850   5.108   3.864   4.849  2.1484  1.0571 -1.8209
 6453TIP3    H240851   5.141   3.824   4.991 -1.0544  0.1287 -1.2841
 6454TIP3   OH240852   0.131   5.213   4.830  0.6939 -0.2360  0.0532
 6454TIP3    H140853   0.081   5.294   4.837  1.2476  0.1160  0.0482
 6454TIP3    H240854   0.145   5.185   4.921  0.8447 -0.1020  0.0737
 6455TIP3   OH240855   1.594   3.469   2.887  0.1464 -0.0165  0.2602
 6455TIP3    H140856   1.549   3.552   2.902 -0.4754 -0.4386  0.6984
 6455TIP3    H240857   1.635   3.448   2.971 -0.5749 -0.6890  0.4442
 6456TIP3   OH240858   1.394   1.839  11.970  0.0119 -0.5152 -0.1713
 6456TIP3    H140859   1.366   1.779  12.039  1.4525  0.7148  1.5283
 6456TIP3    H240860   1.402   1.924  12.013  1.2629  0.2240 -1.7721
 6457TIP3   OH240861   1.672   1.222   2.704 -0.2279 -0.3787  0.1621
 6457TIP3    H140862   1.622   1.151   2.664 -0.0184 -0.2780 -0.2809
 6457TIP3    H240863   1.738   1.178   2.758 -0.3054 -0.5186  0.1430
 6458TIP3   OH240864   3.130   0.130  15.061  0.2122 -0.9643 -0.1098
 6458TIP3    H140865   3.134   0.193  14.989  0.1830 -0.3590  0.4105
 6458TIP3    H240866   3.090   0.052  15.023 -2.2035  0.2386 -0.1523
 6459TIP3   OH240867   3.695   1.942  11.579 -0.2434 -0.3439 -0.1818
 6459TIP3    H140868   3.790   1.934  11.572 -0.3355 -2.0530  0.3371
 6459TIP3    H240869   3.663   1.852  11.571 -1.7741  0.1498  0.3302
 6460TIP3   OH240870   3.188   5.958  16.379  0.1842  0.1803  0.2818
 6460TIP3    H140871   3.178   5.866  16.354 -0.3564  0.3217 -0.0207
 6460TIP3    H240872   3.282   5.973  16.379  0.1836  0.3393 -2.2254
 6461TIP3   OH240873   0.782   2.868  16.024 -0.1897 -0.2738  0.1660
 6461TIP3    H140874   0.793   2.774  16.010  0.7834  0.1172 -1.8445
 6461TIP3    H240875   0.702   2.874  16.077 -0.6106 -2.2021 -0.1794
 6462TIP3   OH240876   3.250   3.523   3.966 -0.0895 -0.1027 -0.2213
 6462TIP3    H140877   3.334   3.545   4.008  0.4002 -1.1010 -0.6674
 6462TIP3    H240878   3.215   3.607   3.938  1.4213  0.2049 -1.2582
 6463TIP3   OH240879   3.219   5.587   3.515 -0.3863  0.4396  0.0922
 6463TIP3    H140880   3.187   5.667   3.475  0.3056  0.7298  0.1065
 6463TIP3    H240881   3.250   5.614   3.602 -0.3160  0.1267  0.1669
 6464TIP3   OH240882   1.016   4.761   2.574  0.0194  0.2585 -0.7218
 6464TIP3    H140883   0.996   4.855   2.569  2.2226  0.7109 -1.1944
 6464TIP3    H240884   1.021   4.733   2.483  1.3977  0.1329 -0.6122
 6465TIP3   OH240885   3.616   0.504  13.141  0.4213 -0.2194 -0.1893
 6465TIP3    H140886   3.599   0.502  13.047 -0.6067 -0.5580 -0.0044
 6465TIP3    H240887   3.709   0.527  13.148 -0.0207  2.0339 -1.2219
 6466TIP3   OH240888   1.750   3.324   0.973  0.1287  0.2336  0.2531
 6466TIP3    H140889   1.759   3.374   1.054  1.7761  0.8216 -0.2700
 6466TIP3    H240890   1.698   3.379   0.915  1.5233  1.1469 -0.1474
 6467TIP3   OH240891   6.402   2.410   5.831 -0.4409 -0.5412 -0.2796
 6467TIP3    H140892   6.308   2.395   5.836 -0.6584  0.7768 -0.1827
 6467TIP3    H240893   6.415   2.492   5.879  0.6724 -0.3819 -0.8493
 6468TIP3   OH240894   3.033   2.052  12.308 -0.2456  0.5447  0.0280
 6468TIP3    H140895   3.048   2.005  12.226  1.0404  3.0553 -1.2349
 6468TIP3    H240896   3.061   1.991  12.376 -0.9818 -1.4363 -1.3982
 6469TIP3   OH240897   0.586   0.516  11.257  0.2484 -0.1105 -0.3329
 6469TIP3    H140898   0.678   0.522  11.232 -0.0260 -0.9720 -1.6014
 6469TIP3    H240899   0.563   0.424  11.245 -0.3103 -0.2506  1.6946
 6470TIP3   OH240900   0.171   1.996   3.796  0.1241 -0.4119 -0.0798
 6470TIP3    H140901   0.221   1.956   3.725 -0.0937  0.5281 -0.7662
 6470TIP3    H240902   0.080   1.983   3.771  0.0457 -0.3018  0.1516
 6471TIP3   OH240903   4.341   4.429  15.764  0.5277 -0.1384 -0.1209
 6471TIP3    H140904   4.373   4.340  15.751  1.5001  0.2994 -0.7681
 6471TIP3    H240905   4.248   4.424  15.745  0.9042 -0.6562 -1.8789
 6472TIP3   OH240906   3.371   5.201   5.464 -0.3837 -0.1156  0.8806
 6472TIP3    H140907   3.387   5.137   5.533  2.1185  1.3305  1.7037
 6472TIP3    H240908   3.451   5.201   5.412 -0.1340  2.6394  1.1822
 6473TIP3   OH240909   3.261   5.476  10.721 -0.0566 -0.1643  0.0632
 6473TIP3    H140910   3.207   5.555  10.728 -2.0841 -1.5562  0.4648
 6473TIP3    H240911   3.329   5.487  10.788 -0.9632  0.7394  0.8514
 6474TIP3   OH240912   4.875   3.425   1.277  0.4860 -0.1143  0.2540
 6474TIP3    H140913   4.934   3.361   1.318 -0.2746 -0.7897  0.3084
 6474TIP3    H240914   4.933   3.494   1.245  1.3507 -0.9391  0.0024
 6475TIP3   OH240915   1.505   0.764   2.890 -0.3930  0.1543  0.0374
 6475TIP3    H140916   1.561   0.713   2.948  1.3424  2.4079  0.4337
 6475TIP3    H240917   1.417   0.749   2.923  0.2545 -1.1640  1.2297
 6476TIP3   OH240918   6.620   6.384   1.031  0.0185  0.5004  0.4487
 6476TIP3    H140919   6.677   6.335   0.972 -0.1366  0.5148  0.2877
 6476TIP3    H240920   6.663   6.377   1.117 -1.3053 -2.0875  0.9695
 6477TIP3   OH240921   0.604   1.726   5.256  0.8635  0.1263  0.5017
 6477TIP3    H140922   0.645   1.736   5.342  1.0965  2.3630  0.1596
 6477TIP3    H240923   0.564   1.811   5.238 -0.6602 -0.8462 -0.8642
 6478TIP3   OH240924   0.777   6.362   6.067  0.2542 -0.2637 -0.6105
 6478TIP3    H140925   0.737   6.449   6.075 -0.6228 -0.4512 -2.7615
 6478TIP3    H240926   0.713   6.302   6.105  0.8530  0.0075  0.8607
 6479TIP3   OH240927   2.942   3.988  11.211 -0.0877 -0.1735 -0.4068
 6479TIP3    H140928   2.848   4.002  11.202 -0.2147 -0.0103  1.0806
 6479TIP3    H240929   2.954   3.895  11.192 -0.5047 -0.1160 -0.9577
 6480TIP3   OH240930   2.857   5.744  11.614 -0.3512 -0.1446 -0.3185
 6480TIP3    H140931   2.812   5.805  11.672 -0.1121  0.1354 -0.4200
 6480TIP3    H240932   2.882   5.798  11.538  0.2751 -0.2618 -0.2001
 6481TIP3   OH240933   2.298   0.159   0.813  0.1059  0.7057  0.0488
 6481TIP3    H140934   2.224   0.167   0.873  0.6028  0.1905  0.7407
 6481TIP3    H240935   2.374   0.183   0.865  0.7300 -1.2415  0.0916
 6482TIP3   OH240936   5.066   0.228  12.998  0.1075 -0.4167 -0.0302
 6482TIP3    H140937   5.024   0.154  12.954 -0.5014 -0.2720  0.3012
 6482TIP3    H240938   5.158   0.222  12.972  0.3061 -1.9910  0.9426
 6483TIP3   OH240939   3.162   2.056   5.037  0.7562 -0.2848  0.5688
 6483TIP3    H140940   3.096   1.988   5.024  0.5329 -0.0021  0.1885
 6483TIP3    H240941   3.222   2.020   5.102  0.1382 -0.4813  1.0307
 6484TIP3   OH240942   1.374   4.809   0.960  0.2221  0.0813  0.0838
 6484TIP3    H140943   1.405   4.736   0.908  1.9095  0.4544  0.5440
 6484TIP3    H240944   1.396   4.786   1.051  0.4682  0.9913  0.2636
 6485TIP3   OH240945   6.501   4.673  15.750 -0.3496  0.6661  0.5208
 6485TIP3    H140946   6.443   4.748  15.738 -0.7057  0.3807  0.4043
 6485TIP3    H240947   6.445   4.607  15.791 -0.0532  0.4524  0.5798
 6486TIP3   OH240948   5.174   2.787   1.268 -0.3844  0.0732  0.3081
 6486TIP3    H140949   5.214   2.811   1.185  0.0291 -1.7992 -0.0500
 6486TIP3    H240950   5.181   2.866   1.322 -1.4597  1.5855 -1.7172
 6487TIP3   OH240951   3.326   4.665   2.399  0.2367 -0.2950 -0.4047
 6487TIP3    H140952   3.257   4.679   2.334  0.8207  0.1670 -0.9268
 6487TIP3    H240953   3.399   4.627   2.350 -0.0037 -1.7450  0.3366
 6488TIP3   OH240954   3.740   0.472   4.451  0.1146  0.4712 -0.0914
 6488TIP3    H140955   3.681   0.415   4.500  0.0913  1.2125  0.7488
 6488TIP3    H240956   3.778   0.414   4.385 -0.5765 -0.3146  0.1786
 6489TIP3   OH240957   1.509   2.450  15.404 -1.3374 -0.4308 -0.9137
 6489TIP3    H140958   1.496   2.356  15.387 -0.4064 -0.4129 -1.7999
 6489TIP3    H240959   1.552   2.453  15.489 -2.2559 -0.7550 -0.4305
 6490TIP3   OH240960   6.443   5.518  14.095 -0.0006 -0.7383  0.7450
 6490TIP3    H140961   6.471   5.439  14.048  0.8632  0.8586 -1.4622
 6490TIP3    H240962   6.516   5.536  14.154  0.1411 -1.1221  0.6937
 6491TIP3   OH240963   2.034   2.867  16.363 -0.0549  0.0585 -0.2242
 6491TIP3    H140964   2.088   2.820  16.298 -0.5132  0.9516 -1.2645
 6491TIP3    H240965   2.045   2.959  16.341  0.7738  0.4706  1.7683
 6492TIP3   OH240966   6.478   6.229  14.225 -0.1917 -0.1047 -0.0859
 6492TIP3    H140967   6.555   6.185  14.188 -0.6733 -1.3096  0.3103
 6492TIP3    H240968   6.405   6.193  14.175 -0.4724  1.2548 -0.6570
 6493TIP3   OH240969   0.941   5.866   4.503  0.6357 -0.3740 -0.4928
 6493TIP3    H140970   0.990   5.940   4.466 -0.7831  1.3673  1.0527
 6493TIP3    H240971   0.995   5.835   4.576  0.0289  0.7704  0.4513
 6494TIP3   OH240972   2.588   0.845   0.704  0.0966  0.5503  0.3732
 6494TIP3    H140973   2.617   0.859   0.795 -0.1072  0.1716  0.4968
 6494TIP3    H240974   2.662   0.801   0.662 -0.1202 -0.0178  0.5740
 6495TIP3   OH240975   2.993   6.281  16.483 -0.5067  1.1042 -0.6801
 6495TIP3    H140976   3.025   6.218  16.417  0.0699  1.1794 -0.4733
 6495TIP3    H240977   3.031   6.364  16.457  0.9173  0.8664  0.5787
 6496TIP3   OH240978   0.562   4.379   4.027  0.9668  0.0349 -0.3722
 6496TIP3    H140979   0.521   4.347   3.946 -0.0787 -0.8455  0.4901
 6496TIP3    H240980   0.523   4.327   4.096  1.0334  1.5426  0.8359
 6497TIP3   OH240981   3.877   5.730   1.124 -0.1968 -0.8493 -0.4691
 6497TIP3    H140982   3.892   5.652   1.070  2.4964 -1.1256  0.5890
 6497TIP3    H240983   3.895   5.803   1.065  1.9202 -1.1391 -0.2295
 6498TIP3   OH240984   6.672   2.436  11.528  0.0903  0.2724 -0.2349
 6498TIP3    H140985   6.717   2.384  11.594 -2.0351  0.0795  1.1067
 6498TIP3    H240986   6.685   2.527  11.556 -0.8107  0.1902  0.4690
 6499TIP3   OH240987   3.008   4.576  13.890 -0.4771 -0.0217  0.1363
 6499TIP3    H140988   3.050   4.505  13.842 -3.5276 -3.1168  1.8117
 6499TIP3    H240989   3.008   4.547  13.981 -0.0530  3.0659  1.1984
 6500TIP3   OH240990   5.783   1.811  13.240 -0.0472  0.4063  0.3892
 6500TIP3    H140991   5.786   1.796  13.335 -0.1225  1.4830  0.5684
 6500TIP3    H240992   5.699   1.855  13.226  0.1260  0.5628 -0.1364
 6501TIP3   OH240993   2.721   0.977  13.861  0.3644 -0.4694  0.2140
 6501TIP3    H140994   2.712   1.014  13.773 -3.2195  0.0846  0.7491
 6501TIP3    H240995   2.785   0.907  13.850  1.6756  1.0389 -2.3607
 6502TIP3   OH240996   3.161   5.016   5.291  0.2333  0.0126 -0.0899
 6502TIP3    H140997   3.110   5.016   5.210  0.2405 -0.0572 -0.0942
 6502TIP3    H240998   3.250   4.997   5.263  0.3155  0.4375 -0.1165
 6503TIP3   OH240999   4.335   5.881   6.603  0.9218 -0.0447  0.2993
 6503TIP3    H141000   4.337   5.785   6.608  2.5451  0.0158  1.0816
 6503TIP3    H241001   4.366   5.901   6.515  0.2399 -0.2362  0.0090
 6504TIP3   OH241002   2.695   1.223   1.634 -0.5946  0.0749 -0.0488
 6504TIP3    H141003   2.610   1.227   1.589 -0.8211 -2.0621  0.1652
 6504TIP3    H241004   2.746   1.160   1.584  0.3876  0.2945  0.6641
 6505TIP3   OH241005   4.415   4.551   4.885  0.4204  0.0909  0.5671
 6505TIP3    H141006   4.433   4.536   4.978  2.5194  1.3162  0.3996
 6505TIP3    H241007   4.479   4.497   4.840 -1.2164 -1.2405 -0.2143
 6506TIP3   OH241008   2.690   1.536   0.924  0.4024 -0.2193  0.2407
 6506TIP3    H141009   2.754   1.507   0.860 -0.1890  2.3344 -1.5996
 6506TIP3    H241010   2.605   1.515   0.884  0.0429  0.0809  0.8373
 6507TIP3   OH241011   0.962   1.009   6.428  0.0232 -0.2537 -0.2423
 6507TIP3    H141012   0.884   0.988   6.479  1.1974  0.0590  1.7546
 6507TIP3    H241013   1.024   0.939   6.449  1.4874  1.3527  0.9379
 6508TIP3   OH241014   5.852   3.466   5.418 -0.0477 -1.1838  0.6469
 6508TIP3    H141015   5.832   3.409   5.492 -0.6769 -0.3229  1.1487
 6508TIP3    H241016   5.783   3.533   5.420  1.1488  0.0610  0.5446
 6509TIP3   OH241017   0.402   3.102  13.639 -0.8336 -0.0712 -0.4550
 6509TIP3    H141018   0.459   3.166  13.596  0.0015 -0.0268  0.7057
 6509TIP3    H241019   0.442   3.017  13.622 -0.4761 -0.0494  0.2753
 6510TIP3   OH241020   4.870   4.180  14.101  0.8129  0.6698  0.6995
 6510TIP3    H141021   4.786   4.194  14.145  0.5534 -0.9556  0.7377
 6510TIP3    H241022   4.852   4.192  14.008  0.5422  0.3080  0.7086
 6511TIP3   OH241023   1.031   2.093   4.582 -0.0729  0.2050  0.1733
 6511TIP3    H141024   1.037   2.028   4.652  0.9192  0.3935  0.2822
 6511TIP3    H241025   1.082   2.167   4.615 -0.5245  0.7177 -0.2873
 6512TIP3   OH241026   2.031   6.112   1.853 -0.4397  0.2048  0.3891
 6512TIP3    H141027   2.068   6.199   1.868  0.2800  0.0263 -0.3536
 6512TIP3    H241028   2.007   6.112   1.761  0.3808 -0.7054  0.1750
 6513TIP3   OH241029   2.925   6.371  11.861  0.0693 -0.1607 -0.1879
 6513TIP3    H141030   2.923   6.423  11.942 -2.1514  0.3440 -0.5531
 6513TIP3    H241031   2.838   6.382  11.823  0.5137 -1.8612 -1.7403
 6514TIP3   OH241032   4.024   5.876   4.250 -0.1937 -0.1387 -0.0780
 6514TIP3    H141033   4.057   5.834   4.330 -0.1559  0.9379  0.4948
 6514TIP3    H241034   4.029   5.970   4.270  0.9700  0.1854 -1.8130
 6515TIP3   OH241035   4.523   4.072  13.069  0.1145  0.9105  0.1955
 6515TIP3    H141036   4.568   4.140  13.019 -1.6509  1.0453 -1.2899
 6515TIP3    H241037   4.451   4.119  13.113 -0.2851  0.2406  0.2601
 6516TIP3   OH241038   2.630   1.933  14.511 -0.4032  0.6168 -0.5159
 6516TIP3    H141039   2.694   2.003  14.529  0.2612 -0.8990  3.7238
 6516TIP3    H241040   2.681   1.852  14.519 -2.0564 -0.4868 -1.0002
 6517TIP3   OH241041   0.077   0.284   2.068  0.7948  0.2709 -0.3864
 6517TIP3    H141042   0.020   0.347   2.023 -0.3934 -0.7390 -0.3263
 6517TIP3    H241043   0.077   0.314   2.159  1.2120  0.8820 -0.5835
 6518TIP3   OH241044   2.285   6.503   0.812  0.2970  0.1005  0.3659
 6518TIP3    H141045   2.194   6.487   0.835  0.4330 -0.1414  0.7364
 6518TIP3    H241046   2.333   6.429   0.850  0.2147 -1.7599 -2.9220
 6519TIP3   OH241047   6.334   0.325  16.312  0.4337 -0.2261  0.5914
 6519TIP3    H141048   6.377   0.266  16.250 -1.6128 -1.0364 -0.1040
 6519TIP3    H241049   6.400   0.340  16.381  1.9004 -1.1919 -0.5662
 6520TIP3   OH241050   4.367   5.112  15.549 -0.2361  0.1678 -0.3219
 6520TIP3    H141051   4.449   5.159  15.565 -1.4735  2.4685 -0.4494
 6520TIP3    H241052   4.347   5.130  15.457 -0.6615 -0.7803 -0.4242
 6521TIP3   OH241053   6.037   3.301  15.354 -0.2487 -0.4030  0.5986
 6521TIP3    H141054   5.987   3.233  15.399  1.0200 -1.3568  0.5878
 6521TIP3    H241055   5.989   3.315  15.272 -0.2704 -1.6172  0.3859
 6522TIP3   OH241056   5.718   3.050   5.425  0.1044  0.6299  0.1436
 6522TIP3    H141057   5.766   3.011   5.498  0.9209  0.6345 -0.3892
 6522TIP3    H241058   5.717   2.983   5.357  1.1334  1.3633 -0.6108
 6523TIP3   OH241059   0.461   3.527   5.070 -0.1069 -0.2140 -0.2542
 6523TIP3    H141060   0.485   3.576   4.991  1.6844  1.5055  1.3066
 6523TIP3    H241061   0.366   3.534   5.075 -0.2136 -0.0580 -2.0752
 6524TIP3   OH241062   1.499   0.984   0.843  0.0600 -0.2707 -0.4093
 6524TIP3    H141063   1.407   0.988   0.870 -0.5878 -0.5227 -2.4883
 6524TIP3    H241064   1.519   1.073   0.814  0.5076 -0.1872  0.1577
 6525TIP3   OH241065   6.575   0.970  11.559 -0.4413 -0.1293 -0.1385
 6525TIP3    H141066   6.570   1.066  11.566 -3.0712 -0.2589  0.0889
 6525TIP3    H241067   6.599   0.954  11.468  0.7878  0.7518  0.0130
 6526TIP3   OH241068   3.021   2.422  11.912  0.0489 -0.3194 -0.1808
 6526TIP3    H141069   3.026   2.506  11.866 -0.4550  0.2054  0.6987
 6526TIP3    H241070   3.026   2.356  11.843  1.6372  0.4123 -0.7896
 6527TIP3   OH241071   0.430   5.749  12.987 -0.5682 -0.3054  0.1673
 6527TIP3    H141072   0.514   5.741  13.032 -0.9182  0.3880  0.9754
 6527TIP3    H241073   0.407   5.842  12.996 -0.9813 -0.3030 -0.8451
 6528TIP3   OH241074   1.048   4.649  13.796 -0.0541 -0.5948 -0.4961
 6528TIP3    H141075   0.960   4.644  13.757 -1.0776  1.1076  1.4983
 6528TIP3    H241076   1.077   4.558  13.798 -1.9108 -1.2355 -0.8882
 6529TIP3   OH241077   5.618   3.304  12.307  0.1263  0.3950  0.1477
 6529TIP3    H141078   5.564   3.285  12.230 -0.4383 -0.8681  0.8373
 6529TIP3    H241079   5.561   3.284  12.381 -0.1470  3.7960  0.9477
 6530TIP3   OH241080   4.729   0.789  14.505 -0.7647 -0.0373 -0.3688
 6530TIP3    H141081   4.642   0.803  14.469 -1.2331 -0.7998  0.4442
 6530TIP3    H241082   4.722   0.707  14.555  0.7019 -0.7171 -1.2225
 6531TIP3   OH241083   3.357   0.731  12.255  0.5223 -0.3164 -0.1681
 6531TIP3    H141084   3.373   0.637  12.260 -0.2564 -0.4788 -0.6109
 6531TIP3    H241085   3.438   0.771  12.287  0.9757 -1.1307 -0.2798
 6532TIP3   OH241086   1.148   3.602   6.025 -0.1420 -0.0194  0.1409
 6532TIP3    H141087   1.195   3.535   5.976 -2.2945 -0.5968 -1.1864
 6532TIP3    H241088   1.189   3.684   5.998  0.0473 -0.4996 -1.0713
 6533TIP3   OH241089   5.160   5.181  14.819  0.3963 -0.6590 -0.0046
 6533TIP3    H141090   5.175   5.222  14.733 -0.4867 -1.3439 -0.4913
 6533TIP3    H241091   5.109   5.103  14.799 -2.0877  0.5700  1.4177
 6534TIP3   OH241092   6.031   1.181   0.903 -0.0732  0.0747  0.0380
 6534TIP3    H141093   6.124   1.196   0.919 -0.8574  3.4199  1.9271
 6534TIP3    H241094   6.002   1.129   0.978 -0.3058  1.4987  0.9448
 6535TIP3   OH241095   5.165   0.746  14.198 -0.1158 -0.6476  0.2788
 6535TIP3    H141096   5.139   0.821  14.144  0.6497  1.7859  3.1587
 6535TIP3    H241097   5.156   0.670  14.140 -0.1311  1.7476 -2.9747
 6536TIP3   OH241098   3.041   5.137  13.622 -0.6794 -0.0303  0.0185
 6536TIP3    H141099   3.011   5.057  13.578 -1.7468  0.3952 -0.0517
 6536TIP3    H241100   3.035   5.117  13.715  0.5882 -0.5763 -0.0059
 6537TIP3   OH241101   4.056   1.020  14.874 -0.9297  0.0757  0.3641
 6537TIP3    H141102   4.097   1.106  14.860 -1.6251  0.4427  0.5605
 6537TIP3    H241103   3.999   1.032  14.950 -0.2165 -0.8503  1.0589
 6538TIP3   OH241104   1.991   6.140   1.574 -0.4617  0.0927  0.3147
 6538TIP3    H141105   2.071   6.187   1.550 -2.0294  2.1978 -0.9377
 6538TIP3    H241106   1.964   6.095   1.494 -0.5116 -0.6500  0.7443
 6539TIP3   OH241107   6.022   2.198  16.990 -0.2017 -0.1953 -0.1886
 6539TIP3    H141108   5.992   2.145  16.916 -3.0629  0.9416  0.0920
 6539TIP3    H241109   6.112   2.223  16.966  0.4686 -3.3055 -1.3008
 6540TIP3   OH241110   6.566   6.537   6.746  0.4731 -0.1852  0.2272
 6540TIP3    H141111   6.538   6.529   6.838  1.2234 -0.0577  0.4737
 6540TIP3    H241112   6.577   6.447   6.716 -0.2919 -0.2393  0.0957
 6541TIP3   OH241113   5.966   6.096  16.388 -0.0884  0.1365  0.2960
 6541TIP3    H141114   5.876   6.111  16.361 -0.5857  0.6172  2.1006
 6541TIP3    H241115   5.960   6.029  16.456  0.9623 -0.1818  0.0855
 6542TIP3   OH241116   0.685   5.541   4.649  0.6313 -0.0952 -0.5174
 6542TIP3    H141117   0.737   5.566   4.572 -0.7571 -0.0320 -1.4655
 6542TIP3    H241118   0.636   5.621   4.670 -2.2767 -1.3517 -2.2783
 6543TIP3   OH241119   3.828   0.712   5.215  0.4920  0.1773 -0.9691
 6543TIP3    H141120   3.765   0.773   5.253 -0.2534 -0.1558 -1.6515
 6543TIP3    H241121   3.912   0.755   5.225  0.0501  1.0250 -0.8629
 6544TIP3   OH241122   3.147   6.416  16.872  0.0752  0.4575  0.3412
 6544TIP3    H141123   3.101   6.391  16.952 -0.4007  0.1129 -0.0378
 6544TIP3    H241124   3.105   6.365  16.803  0.7773  0.4152 -0.0686
 6545TIP3   OH241125   2.730   1.331  13.217 -0.2241 -0.0983  0.0782
 6545TIP3    H141126   2.640   1.301  13.206 -0.6150  0.9821  0.2640
 6545TIP3    H241127   2.722   1.422  13.249  0.9245  0.1054 -0.1710
 6546TIP3   OH241128   5.679   6.717  15.717  0.1246 -0.7048 -0.0178
 6546TIP3    H141129   5.729   6.659  15.659 -1.7934 -1.5514 -0.8968
 6546TIP3    H241130   5.623   6.767  15.658 -1.4257 -1.1390  1.0421
 6547TIP3   OH241131   4.729   5.536  12.566 -0.1388 -0.4063  0.6372
 6547TIP3    H141132   4.641   5.567  12.590  0.3175  2.4939 -1.3163
 6547TIP3    H241133   4.788   5.583  12.625  0.3829  0.7542 -0.7840
 6548TIP3   OH241134   2.720   4.661   2.218  0.3130 -0.0457 -0.2146
 6548TIP3    H141135   2.687   4.688   2.132  0.8494  0.6004 -0.2239
 6548TIP3    H241136   2.798   4.608   2.199 -0.5698 -1.3787 -0.1852
 6549TIP3   OH241137   3.997   2.712   5.621 -0.4253 -0.3658 -0.4055
 6549TIP3    H141138   3.970   2.634   5.668 -1.7872  0.0210 -0.5343
 6549TIP3    H241139   4.022   2.775   5.689 -1.1722 -0.2455 -0.2435
 6550TIP3   OH241140   2.145   4.421   5.856  0.2511 -0.5453  0.2110
 6550TIP3    H141141   2.234   4.443   5.829  0.4594 -1.9899 -0.2998
 6550TIP3    H241142   2.092   4.433   5.777  0.0659 -0.1908  0.3848
 6551TIP3   OH241143   3.763   4.244   0.747  0.3985  0.5111 -0.2055
 6551TIP3    H141144   3.693   4.204   0.696 -0.9728  0.6048  1.5560
 6551TIP3    H241145   3.758   4.337   0.727 -1.2631  0.7927  1.3700
 6552TIP3   OH241146   6.280   0.365   2.385  0.3520  0.2011 -0.1851
 6552TIP3    H141147   6.227   0.338   2.310 -1.7848  1.0652  0.9846
 6552TIP3    H241148   6.314   0.283   2.422 -2.8570 -0.6421  1.0032
 6553TIP3   OH241149   1.453   3.568  15.674  0.7349  0.0947  0.5131
 6553TIP3    H141150   1.396   3.530  15.741  0.2596  0.4081  0.2883
 6553TIP3    H241151   1.507   3.495  15.644 -0.9424 -0.6558 -0.7196
 6554TIP3   OH241152   6.754   2.956  12.075 -0.1557 -0.5562  0.0240
 6554TIP3    H141153   6.706   3.033  12.046 -1.7643 -1.8075 -0.6675
 6554TIP3    H241154   6.842   2.989  12.093  0.0976  0.8186 -3.3728
 6555TIP3   OH241155   0.746   5.697   2.380 -0.5866  0.3869 -0.2469
 6555TIP3    H141156   0.818   5.743   2.337 -0.8218  0.8432 -0.1605
 6555TIP3    H241157   0.786   5.654   2.455 -0.6378  1.7789  0.5964
 6556TIP3   OH241158   4.678   4.844   2.024  0.1695  0.6869 -0.1483
 6556TIP3    H141159   4.742   4.863   2.092 -3.4124 -0.4718  3.7831
 6556TIP3    H241160   4.665   4.927   1.979  2.3656  1.5666  0.7610
 6557TIP3   OH241161   2.413   1.572  13.376 -0.3615  0.0323  0.5214
 6557TIP3    H141162   2.359   1.628  13.319  0.3686  0.9838  0.7483
 6557TIP3    H241163   2.406   1.612  13.462  1.7274  0.9458  0.3047
 6558TIP3   OH241164   3.121   2.436   3.971 -0.0488 -0.1375  0.0303
 6558TIP3    H141165   3.166   2.383   4.037  0.5766  0.3847  0.0399
 6558TIP3    H241166   3.193   2.475   3.920 -0.4592  1.5789  0.7277
 6559TIP3   OH241167   2.159   6.407  10.474  0.4839  0.4006 -0.1416
 6559TIP3    H141168   2.218   6.412  10.399 -0.7195  1.5628 -1.0316
 6559TIP3    H241169   2.128   6.497  10.487 -1.4179 -0.2413  0.0056
 6560TIP3   OH241170   6.273   6.554  17.206  0.0200  0.4649 -0.2862
 6560TIP3    H141171   6.296   6.641  17.239  0.9124  1.5392 -3.5615
 6560TIP3    H241172   6.248   6.569  17.115 -0.3078 -2.6665 -0.7498
 6561TIP3   OH241173   5.070   1.265  12.017  0.3486 -0.0162  0.1613
 6561TIP3    H141174   5.071   1.350  12.061  0.9948  1.1787 -2.0774
 6561TIP3    H241175   4.977   1.246  12.003  0.2157  0.4182  0.4665
 6562TIP3   OH241176   2.651   5.446  16.965  0.1591  0.2568 -0.0423
 6562TIP3    H141177   2.598   5.459  17.044  1.3980 -1.6290  1.1345
 6562TIP3    H241178   2.645   5.530  16.918 -2.8948  0.4661  0.6188
 6563TIP3   OH241179   3.213   3.173   2.694  0.3528 -0.4506  0.1062
 6563TIP3    H141180   3.160   3.128   2.760  1.8823 -1.5831  0.5836
 6563TIP3    H241181   3.232   3.106   2.628  1.6994 -0.2260  0.2485
 6564TIP3   OH241182   2.001   1.403  15.961  0.0460  0.2910  0.0505
 6564TIP3    H141183   1.942   1.431  16.030  0.0532  0.2708  0.0642
 6564TIP3    H241184   1.946   1.351  15.902 -0.0857  0.7842 -0.2626
 6565TIP3   OH241185   4.659   3.876   3.258 -0.4069  0.1836 -0.0608
 6565TIP3    H141186   4.667   3.796   3.310 -0.0997 -0.2914 -0.8187
 6565TIP3    H241187   4.733   3.871   3.197 -1.1112  0.4336 -0.9297
 6566TIP3   OH241188   5.571   2.741  13.175  0.4303 -0.1321  0.2988
 6566TIP3    H141189   5.622   2.745  13.256  0.9066  0.4506 -0.0269
 6566TIP3    H241190   5.636   2.723  13.107  0.3750  1.6260 -0.2613
 6567TIP3   OH241191   2.496   3.876  11.328  0.4168 -0.4730  0.6070
 6567TIP3    H141192   2.577   3.911  11.291 -0.2676  0.8869  0.3557
 6567TIP3    H241193   2.435   3.871  11.254 -0.6456  1.3297  1.3183
 6568TIP3   OH241194   1.258   4.245   1.098 -0.5772  0.0797 -0.2381
 6568TIP3    H141195   1.301   4.308   1.156 -2.4551  1.3100 -0.1787
 6568TIP3    H241196   1.249   4.291   1.015 -0.1766 -0.8140 -0.7833
 6569TIP3   OH241197   5.077   2.002   2.559  0.4452  0.1567 -0.2846
 6569TIP3    H141198   5.046   2.092   2.569  0.8492  0.2482  0.1909
 6569TIP3    H241199   4.997   1.949   2.550  0.1924  0.4979 -0.0309
 6570TIP3   OH241200   3.948   5.388   0.573  0.0573 -0.0092  0.2618
 6570TIP3    H141201   3.902   5.306   0.553  0.2926 -0.0095 -0.2794
 6570TIP3    H241202   4.000   5.367   0.651 -0.0925 -0.2943  0.2884
 6571TIP3   OH241203   3.449   5.710   2.721  0.0473 -0.1492 -0.1408
 6571TIP3    H141204   3.394   5.709   2.799  0.7078 -2.2986  0.3313
 6571TIP3    H241205   3.410   5.644   2.664 -0.4885  1.4692 -1.6941
 6572TIP3   OH241206   5.400   1.780   1.771  0.1417  0.2510  0.0280
 6572TIP3    H141207   5.336   1.850   1.788  0.2012 -0.3156  2.8190
 6572TIP3    H241208   5.402   1.730   1.852  3.8256 -0.0120 -0.1650
 6573TIP3   OH241209   4.512   4.280   2.018  0.0801  0.1005 -0.3514
 6573TIP3    H141210   4.441   4.244   1.964 -0.2978 -0.9460  0.8023
 6573TIP3    H241211   4.474   4.356   2.061 -0.7524 -1.1464  1.1881
 6574TIP3   OH241212   3.692   2.158  13.491 -0.7649 -0.6380 -0.4201
 6574TIP3    H141213   3.733   2.101  13.426 -0.3536 -0.1699 -0.5646
 6574TIP3    H241214   3.763   2.182  13.550 -0.5539  1.2359 -1.4110
 6575TIP3   OH241215   0.607   3.679  15.595  0.3677  0.6077 -0.1366
 6575TIP3    H141216   0.526   3.729  15.601 -1.0322 -1.1927 -3.0889
 6575TIP3    H241217   0.675   3.740  15.625 -1.9072  2.5022  1.3170
 6576TIP3   OH241218   2.566   0.278   5.261 -0.3106 -0.3320  0.3131
 6576TIP3    H141219   2.510   0.344   5.302 -0.2441 -0.6870  0.9780
 6576TIP3    H241220   2.518   0.252   5.182  0.1229  1.2091 -0.4747
 6577TIP3   OH241221   4.575   0.190   1.731  0.3777  0.1496  0.6035
 6577TIP3    H141222   4.590   0.108   1.778 -0.3476  0.0524  0.6719
 6577TIP3    H241223   4.489   0.180   1.692  0.5099  0.6739  0.1678
 6578TIP3   OH241224   5.809   3.496  12.295 -0.4260  0.3086  0.1589
 6578TIP3    H141225   5.888   3.443  12.283 -0.0278  0.9343 -0.0001
 6578TIP3    H241226   5.740   3.444  12.254  0.0112  0.0390 -0.2567
 6579TIP3   OH241227   1.515   1.439   3.392 -0.6573 -0.1775  0.3691
 6579TIP3    H141228   1.513   1.413   3.300 -0.7345 -0.4918  0.4601
 6579TIP3    H241229   1.606   1.427   3.418 -0.8825 -1.2557  0.6698
 6580TIP3   OH241230   2.196   2.615  14.391 -0.1859 -0.1363  0.6674
 6580TIP3    H141231   2.288   2.643  14.384 -0.2591  0.3533  1.6363
 6580TIP3    H241232   2.184   2.555  14.317  0.9600 -0.3240  0.6206
 6581TIP3   OH241233   5.244   5.423   3.714 -0.3987  0.1672 -0.4784
 6581TIP3    H141234   5.240   5.409   3.620 -0.7764 -0.2090 -0.4092
 6581TIP3    H241235   5.157   5.401   3.746  0.4262 -2.1504  0.2785
 6582TIP3   OH241236   5.246   3.158  15.614 -0.6236 -0.3612 -0.5420
 6582TIP3    H141237   5.183   3.226  15.590 -0.0549  0.3249 -0.1111
 6582TIP3    H241238   5.328   3.185  15.572 -0.2882 -0.5621 -0.0208
 6583TIP3   OH241239   4.469   5.487   3.339  0.7371  0.3918 -0.4342
 6583TIP3    H141240   4.479   5.581   3.327 -0.2329  0.7000  1.0202
 6583TIP3    H241241   4.374   5.472   3.342  0.8906 -0.4402  0.6575
 6584TIP3   OH241242   4.773   5.722  14.653 -0.5513  0.2143  0.0313
 6584TIP3    H141243   4.822   5.804  14.655 -1.0681  0.5113  0.8242
 6584TIP3    H241244   4.829   5.659  14.698 -0.5134  0.3317  0.1473
 6585TIP3   OH241245   5.265   3.625  12.843  0.2983 -0.1406 -0.0937
 6585TIP3    H141246   5.292   3.640  12.934  0.6021 -3.7762  0.4687
 6585TIP3    H241247   5.201   3.554  12.848 -1.6894  1.3881 -2.4947
 6586TIP3   OH241248   6.340   4.554   0.642 -0.6289 -0.0391 -0.1949
 6586TIP3    H141249   6.259   4.560   0.591 -0.5746  1.0353 -0.1746
 6586TIP3    H241250   6.375   4.643   0.640  0.3629 -0.4192  0.1061
 6587TIP3   OH241251   3.202   6.539  15.584 -0.0585  0.1604  0.3725
 6587TIP3    H141252   3.163   6.474  15.642  0.0522  0.1657  0.4549
 6587TIP3    H241253   3.154   6.531  15.501 -1.0058  0.9684  0.8335
 6588TIP3   OH241254   2.574   2.600  14.723  0.0109  0.0403 -0.0477
 6588TIP3    H141255   2.567   2.676  14.782  0.9000 -0.1534  0.3112
 6588TIP3    H241256   2.490   2.554  14.734 -1.1440  1.7467 -1.3715
 6589TIP3   OH241257   1.669   6.087  12.171 -0.1640  0.4334 -0.0537
 6589TIP3    H141258   1.694   5.996  12.158 -1.4950  0.2628 -1.5997
 6589TIP3    H241259   1.700   6.133  12.093 -0.6747  1.0585  0.1014
 6590TIP3   OH241260   5.550   2.299  13.836  0.0412 -0.3430 -1.0168
 6590TIP3    H141261   5.618   2.338  13.781  0.8155 -1.5149 -0.9059
 6590TIP3    H241262   5.546   2.208  13.809 -1.8063 -0.1910 -1.3176
 6591TIP3   OH241263   3.298   3.171   3.632  0.2518  0.1008  0.3358
 6591TIP3    H141264   3.255   3.240   3.684  2.0264  1.2922  0.2864
 6591TIP3    H241265   3.358   3.130   3.694 -1.4608 -2.0685  0.6121
 6592TIP3   OH241266   4.847   5.095   3.561  0.5916 -0.7254 -0.7603
 6592TIP3    H141267   4.759   5.131   3.569  0.3504 -1.3513 -0.6181
 6592TIP3    H241268   4.837   5.019   3.504  0.8487 -1.4634  0.1669
 6593TIP3   OH241269   6.176   0.538  14.078  0.2724 -0.6279 -0.1472
 6593TIP3    H141270   6.229   0.611  14.110 -1.2538 -0.0647  1.1400
 6593TIP3    H241271   6.165   0.481  14.154  1.2661 -2.0894 -1.0943
 6594TIP3   OH241272   3.308   2.927   0.756 -0.2393 -0.9117  0.5586
 6594TIP3    H141273   3.336   2.878   0.679  0.1714 -1.5752  1.1257
 6594TIP3    H241274   3.214   2.939   0.744  0.0747  0.3903 -0.8258
 6595TIP3   OH241275   1.711   2.892  14.005 -0.1412 -0.5262 -0.0888
 6595TIP3    H141276   1.683   2.975  13.967  0.5682 -0.3305 -0.1977
 6595TIP3    H241277   1.766   2.852  13.937  0.1669 -0.7179  0.2717
 6596TIP3   OH241278   4.049   1.221   5.504 -0.1384 -0.5040  0.5056
 6596TIP3    H141279   4.078   1.197   5.415  0.2600 -1.2992  0.8406
 6596TIP3    H241280   4.094   1.159   5.561  2.4597  2.2673  1.6052
 6597TIP3   OH241281   2.853   5.411   1.302  0.0573 -0.6213 -0.6130
 6597TIP3    H141282   2.920   5.438   1.365 -0.5099  1.5343 -0.8841
 6597TIP3    H241283   2.900   5.402   1.219 -0.0254  1.2676 -0.8872
 6598TIP3   OH241284   4.966   6.540  12.690  0.2046 -0.4639 -0.0160
 6598TIP3    H141285   5.049   6.531  12.644 -0.0323  3.7563 -1.5215
 6598TIP3    H241286   4.964   6.632  12.717 -4.0277 -0.4092 -0.1831
 6599TIP3   OH241287   4.651   1.780  17.152  0.1509  0.7447 -0.5835
 6599TIP3    H141288   4.713   1.835  17.104 -1.7283  0.6776 -3.2349
 6599TIP3    H241289   4.567   1.796  17.109 -1.0167 -1.8419  0.6028
 6600TIP3   OH241290   5.088   3.923  15.432  0.0981  0.2695  0.0867
 6600TIP3    H141291   4.997   3.931  15.404 -0.0621 -1.4504  0.0768
 6600TIP3    H241292   5.103   4.000  15.487 -0.9458  1.2894 -1.0174
 6601TIP3   OH241293   5.472   6.279  14.596  0.1349 -0.4611  0.0681
 6601TIP3    H141294   5.378   6.292  14.602  0.0525 -1.4849  1.2486
 6601TIP3    H241295   5.509   6.344  14.657  0.2414  0.3984 -0.8982
 6602TIP3   OH241296   0.298   3.603   2.469 -0.0616  0.6774  0.2439
 6602TIP3    H141297   0.333   3.673   2.523  1.0861 -0.6362  1.2623
 6602TIP3    H241298   0.319   3.523   2.517 -2.1904 -0.3180 -0.4108
 6603TIP3   OH241299   4.391   2.054   4.757  0.3291  0.5019 -0.2265
 6603TIP3    H141300   4.324   2.077   4.692 -0.0250 -0.6151 -0.2630
 6603TIP3    H241301   4.414   1.963   4.736 -0.1966 -0.0636  1.5755
 6604TIP3   OH241302   4.695   5.291   4.809  0.1623  0.7356 -0.5479
 6604TIP3    H141303   4.604   5.313   4.792  0.1730  0.8368 -0.4782
 6604TIP3    H241304   4.707   5.205   4.769 -0.1353  0.4427 -0.0207
 6605TIP3   OH241305   0.473   3.229  16.405  0.0478  0.5676 -0.0624
 6605TIP3    H141306   0.450   3.312  16.362 -0.8240  0.3789  0.0267
 6605TIP3    H241307   0.392   3.201  16.447 -0.3300 -1.5449 -2.0731
 6606TIP3   OH241308   2.963   1.270  11.603 -0.6171 -0.4804 -0.5887
 6606TIP3    H141309   2.988   1.180  11.584 -0.6049 -0.2110 -1.9638
 6606TIP3    H241310   3.045   1.320  11.598 -0.7574 -0.2605 -0.7371
 6607TIP3   OH241311   3.678   4.347   5.134 -0.4270  0.1832 -0.0306
 6607TIP3    H141312   3.622   4.325   5.059 -0.5651 -0.3341  0.2176
 6607TIP3    H241313   3.753   4.392   5.096 -0.8531  0.5736 -0.4053
 6608TIP3   OH241314   6.239   4.108  15.941 -0.9611  0.1904  0.4388
 6608TIP3    H141315   6.152   4.139  15.967 -1.2295 -0.8112  0.7858
 6608TIP3    H241316   6.244   4.125  15.847 -2.1393 -1.1154  0.1107
 6609TIP3   OH241317   5.085   1.042  12.535 -0.0455  0.0501  0.0651
 6609TIP3    H141318   5.146   0.977  12.569 -0.3025  0.0886  0.6153
 6609TIP3    H241319   5.065   1.013  12.447 -1.8860 -1.8598  1.0724
 6610TIP3   OH241320   1.845   5.863  15.496 -0.8778  0.0810  0.1503
 6610TIP3    H141321   1.823   5.824  15.581 -1.2185  1.2512  0.6105
 6610TIP3    H241322   1.837   5.957  15.510 -0.0771  0.3265 -0.9491
 6611TIP3   OH241323   5.790   0.824   3.624 -0.3260 -0.1742  0.1138
 6611TIP3    H141324   5.704   0.784   3.610 -0.5183  0.2372  0.1174
 6611TIP3    H241325   5.824   0.841   3.537  0.4831 -1.8756  0.0696
 6612TIP3   OH241326   1.687   1.917  14.043 -0.6694 -0.4885  0.1024
 6612TIP3    H141327   1.696   1.872  14.127 -0.7902  0.4049  0.5977
 6612TIP3    H241328   1.607   1.968  14.051  0.6202  1.5371  0.3693
 6613TIP3   OH241329   5.069   0.628   0.840 -0.0768  0.2211  0.9588
 6613TIP3    H141330   5.013   0.554   0.864  0.8104 -0.1671  1.8817
 6613TIP3    H241331   5.056   0.691   0.911 -1.0361  1.0796  0.0397
 6614TIP3   OH241332   3.017   6.204   3.001  0.2214  0.0499  0.3145
 6614TIP3    H141333   2.981   6.139   3.062 -1.7586  1.9574  1.2259
 6614TIP3    H241334   3.010   6.287   3.047 -0.3826  1.3963 -2.1315
 6615TIP3   OH241335   6.817   0.148  15.432 -0.1705  0.4378  0.5194
 6615TIP3    H141336   6.788   0.219  15.374  1.3190  0.5486 -0.0995
 6615TIP3    H241337   6.783   0.068  15.392  2.0829  0.3660 -1.3551
 6616TIP3   OH241338   6.217   5.651  15.836  0.1821 -0.3803 -0.4119
 6616TIP3    H141339   6.185   5.561  15.826 -0.2988 -0.4465  1.4296
 6616TIP3    H241340   6.291   5.644  15.896 -1.0241  0.6456  1.2495
 6617TIP3   OH241341   3.354   4.328   2.551 -0.0725 -0.4557  0.0130
 6617TIP3    H141342   3.295   4.285   2.489 -0.0978 -1.1720  0.5348
 6617TIP3    H241343   3.442   4.314   2.514 -0.3116  1.8763 -1.5401
 6618TIP3   OH241344   1.921   0.521  11.120 -0.1171  0.0613 -0.3042
 6618TIP3    H141345   2.000   0.575  11.122  0.0500 -0.1903 -0.2492
 6618TIP3    H241346   1.853   0.578  11.158 -0.4725  1.1071 -2.3918
 6619TIP3   OH241347   6.433   0.437  11.668  0.0497 -0.8133 -0.0387
 6619TIP3    H141348   6.454   0.356  11.620 -1.0238 -1.4015  0.4721
 6619TIP3    H241349   6.439   0.506  11.602 -2.5901 -1.7491 -1.3269
 6620TIP3   OH241350   3.552   2.728   4.636 -0.1583 -0.2417 -0.0875
 6620TIP3    H141351   3.638   2.701   4.668  1.1553  0.5679 -2.7864
 6620TIP3    H241352   3.491   2.702   4.705  2.1754 -1.3513  1.6096
 6621TIP3   OH241353   3.785   3.248  15.722  0.1420  0.2080  0.4556
 6621TIP3    H141354   3.880   3.255  15.734  0.2921 -0.5695 -0.2305
 6621TIP3    H241355   3.769   3.285  15.635 -0.3600  1.5713  1.1133
 6622TIP3   OH241356   6.034   0.687   2.819  0.0140 -0.7289  0.1451
 6622TIP3    H141357   5.988   0.716   2.897 -0.9471 -1.0373 -0.2980
 6622TIP3    H241358   5.989   0.607   2.792  2.1887 -2.2950  0.9616
 6623TIP3   OH241359   3.694   5.443  11.880  0.1233  0.1551 -0.6232
 6623TIP3    H141360   3.701   5.377  11.950  1.0474 -0.8628 -1.6593
 6623TIP3    H241361   3.776   5.492  11.886 -0.1254  0.5508 -0.5021
 6624TIP3   OH241362   6.646   4.656   2.743  0.6211  0.4632 -0.4682
 6624TIP3    H141363   6.715   4.721   2.758 -0.5873  1.6735 -0.0538
 6624TIP3    H241364   6.603   4.646   2.828 -0.4127  0.5451 -0.9711
 6625TIP3   OH241365   1.884   0.096   6.464  0.3002 -0.1796  0.2085
 6625TIP3    H141366   1.926   0.010   6.461  1.6672  0.3943  2.0087
 6625TIP3    H241367   1.956   0.158   6.475 -0.6625  1.2254 -1.2475
 6626TIP3   OH241368   1.478   4.219  11.360  0.6635  0.1816  0.3903
 6626TIP3    H141369   1.490   4.239  11.453 -0.3542  0.6449  0.4231
 6626TIP3    H241370   1.556   4.256  11.318  0.6794  0.7946  0.9489
 6627TIP3   OH241371   1.457   5.797  16.189 -0.2651 -0.1424 -0.0501
 6627TIP3    H141372   1.430   5.740  16.261 -0.7968  0.0182 -0.1131
 6627TIP3    H241373   1.379   5.850  16.171  0.5335  1.3208  0.7122
 6628TIP3   OH241374   2.007   0.832   0.547 -0.4590  0.0625  0.0052
 6628TIP3    H141375   1.998   0.882   0.629 -1.7282  1.5609 -1.0104
 6628TIP3    H241376   1.947   0.758   0.558 -1.0432  0.5619  0.2267
 6629TIP3   OH241377   3.953   3.177  11.605  0.1074 -0.5631  0.2450
 6629TIP3    H141378   3.864   3.179  11.571  0.2017  1.2598  0.0669
 6629TIP3    H241379   3.958   3.096  11.656 -2.2562  0.3489  1.9595
 6630TIP3   OH241380   3.731   4.937  16.048 -0.0728  0.1764  0.3993
 6630TIP3    H141381   3.773   4.925  15.963 -3.4251  0.8043 -1.4289
 6630TIP3    H241382   3.727   4.849  16.085 -0.8514 -0.4900 -1.2248
 6631TIP3   OH241383   4.775   1.118  14.866 -0.0017 -0.1191 -0.3524
 6631TIP3    H141384   4.757   1.064  14.789  0.2639 -0.4228 -0.2042
 6631TIP3    H241385   4.870   1.128  14.867 -0.1270  1.2486 -0.9799
 6632TIP3   OH241386   2.408   1.376   4.912  0.1238 -0.2951 -0.2485
 6632TIP3    H141387   2.379   1.445   4.853  0.8209 -1.2456 -1.7288
 6632TIP3    H241388   2.477   1.416   4.964 -0.2061  0.4309 -0.3664
 6633TIP3   OH241389   1.359   5.033  12.070  0.3518 -0.2022  0.0764
 6633TIP3    H141390   1.276   4.986  12.081  0.3172 -0.6473 -1.9129
 6633TIP3    H241391   1.344   5.118  12.111 -1.0607 -0.3191 -0.1652
 6634TIP3   OH241392   1.008   3.460  12.914  0.8013 -0.0223  0.0713
 6634TIP3    H141393   0.921   3.484  12.945  0.6828 -0.0753 -0.2191
 6634TIP3    H241394   0.993   3.388  12.853  1.1039 -0.4706  0.5158
 6635TIP3   OH241395   6.781   2.803  13.398 -0.5668 -1.0101 -0.6361
 6635TIP3    H141396   6.785   2.865  13.325  0.2928  0.5244  0.6832
 6635TIP3    H241397   6.731   2.849  13.465  1.4673 -1.0625  0.9628
 6636TIP3   OH241398   1.129   6.033  11.331  1.2861 -0.1777  0.0689
 6636TIP3    H141399   1.155   5.948  11.296  0.8561 -0.5897  0.7379
 6636TIP3    H241400   1.033   6.031  11.331  1.2702 -0.4321  1.8257
 6637TIP3   OH241401   3.887   5.346  14.903  0.9885  0.2417 -0.1008
 6637TIP3    H141402   3.810   5.321  14.955 -0.2241  1.1783 -1.4256
 6637TIP3    H241403   3.914   5.264  14.861 -0.2547  0.2108 -0.8808
 6638TIP3   OH241404   4.567   0.022   4.532  0.1845  0.2641 -0.3479
 6638TIP3    H141405   4.559  -0.064   4.574  0.4472 -0.9071 -2.6245
 6638TIP3    H241406   4.518   0.081   4.589 -1.2087 -1.6636  0.5099
 6639TIP3   OH241407   4.251   4.476   4.051 -0.1890 -0.2582 -0.2446
 6639TIP3    H141408   4.224   4.398   4.002  1.6330 -0.3788 -1.1288
 6639TIP3    H241409   4.242   4.451   4.143 -0.6481 -1.1445 -0.5281
 6640TIP3   OH241410   0.749   2.867  12.766  0.4477 -0.2622  0.2039
 6640TIP3    H141411   0.698   2.887  12.687 -0.3835  0.1701  0.8425
 6640TIP3    H241412   0.763   2.772  12.761 -2.2260 -0.7689  1.0508
 6641TIP3   OH241413   6.287   2.995   2.494  0.4330  0.7176  0.0754
 6641TIP3    H141414   6.251   3.080   2.517  1.7147  1.3170 -0.1340
 6641TIP3    H241415   6.228   2.961   2.426  0.5354  1.9029 -0.6083
 6642TIP3   OH241416   1.525   0.432  14.427  0.3064 -0.0368 -0.8067
 6642TIP3    H141417   1.454   0.382  14.388 -1.1166  1.2360  0.0817
 6642TIP3    H241418   1.506   0.523  14.403 -0.7664  0.8116  2.9644
 6643TIP3   OH241419   3.425   1.695   2.932 -0.2850  0.2062 -0.8166
 6643TIP3    H141420   3.423   1.607   2.893 -0.2794 -0.6419  1.0721
 6643TIP3    H241421   3.507   1.733   2.901  2.3036 -2.4005  2.4905
 6644TIP3   OH241422   4.260   1.346  15.210 -0.0594  0.3579 -0.0122
 6644TIP3    H141423   4.304   1.261  15.213 -0.4687  0.0538 -1.9178
 6644TIP3    H241424   4.244   1.368  15.302  2.1043 -0.5388  0.6186
 6645TIP3   OH241425   2.396   3.909  15.590 -0.2380  0.1028 -0.5137
 6645TIP3    H141426   2.441   3.836  15.633  1.1444  0.4031 -1.4139
 6645TIP3    H241427   2.466   3.960  15.549 -1.4009  0.4609 -2.1287
 6646TIP3   OH241428   3.632   0.982  12.783 -0.0043 -0.0427  0.2247
 6646TIP3    H141429   3.639   0.974  12.878 -3.2114  0.1218  0.5510
 6646TIP3    H241430   3.715   0.949  12.749  0.9932 -0.5588  3.0620
 6647TIP3   OH241431   3.058   2.027  11.104 -0.1950 -0.4579 -0.2234
 6647TIP3    H141432   3.106   1.986  11.175 -0.6465 -0.7022 -0.0576
 6647TIP3    H241433   3.121   2.031  11.031 -0.2588 -1.7743 -0.3532
 6648TIP3   OH241434   3.673   4.937  16.836  0.0275 -0.5172  0.0694
 6648TIP3    H141435   3.721   5.016  16.811 -0.1831 -0.3614  0.1495
 6648TIP3    H241436   3.582   4.966  16.846 -0.1267 -0.8611 -0.3160
 6649TIP3   OH241437   4.425   6.656   5.105 -0.2162  0.3401 -0.1327
 6649TIP3    H141438   4.463   6.569   5.110 -0.8470  0.1361  1.1509
 6649TIP3    H241439   4.477   6.708   5.167 -0.7546  0.5381  0.1476
 6650TIP3   OH241440   5.173   6.134   0.894 -0.6063  0.3479 -0.5485
 6650TIP3    H141441   5.090   6.162   0.855 -0.5674 -0.2393 -1.0628
 6650TIP3    H241442   5.154   6.049   0.932 -0.3607  0.4248 -0.2544
 6651TIP3   OH241443   1.317   6.769  16.223 -0.0693 -0.1013  0.4714
 6651TIP3    H141444   1.258   6.709  16.177  0.5504 -1.5057  1.4499
 6651TIP3    H241445   1.327   6.843  16.164 -1.1332 -0.8132 -0.6283
 6652TIP3   OH241446   5.366   5.065   2.442 -0.2468 -0.3414 -0.3882
 6652TIP3    H141447   5.412   5.141   2.406 -0.9888  0.0964 -0.4034
 6652TIP3    H241448   5.273   5.086   2.434 -0.4520 -1.1223 -0.1172
 6653TIP3   OH241449   1.062   1.860   4.729 -0.0044  0.0256 -0.1820
 6653TIP3    H141450   1.112   1.839   4.808 -1.3323  1.5484  1.1134
 6653TIP3    H241451   0.984   1.806   4.735  0.2522 -0.4207 -0.8557
 6654TIP3   OH241452   0.152   3.826   5.988 -0.0685 -0.1210  0.8289
 6654TIP3    H141453   0.065   3.866   5.990 -0.4332 -0.9103  1.0354
 6654TIP3    H241454   0.149   3.761   6.058  0.3740 -0.7972  0.2193
 6655TIP3   OH241455   6.618   4.837   5.403 -0.2416  0.1032 -0.0036
 6655TIP3    H141456   6.561   4.914   5.398  1.1150  1.0976 -0.3259
 6655TIP3    H241457   6.696   4.868   5.449  0.0813 -1.2366  0.3790
 6656TIP3   OH241458   0.781   0.716   4.925  0.6723 -0.1206 -0.0622
 6656TIP3    H141459   0.690   0.688   4.936  0.2377  1.6395  1.0145
 6656TIP3    H241460   0.803   0.692   4.835 -1.3599  0.7779 -0.8370
 6657TIP3   OH241461   1.009   2.567  15.143 -0.5430  0.8711  0.0331
 6657TIP3    H141462   1.062   2.628  15.195  2.4216 -0.4507 -1.3659
 6657TIP3    H241463   1.015   2.484  15.189 -1.5329  0.7272 -0.0831
 6658TIP3   OH241464   6.674   2.714   5.805  0.6466  0.4813  0.6363
 6658TIP3    H141465   6.590   2.702   5.850  0.3960 -0.4816 -0.0741
 6658TIP3    H241466   6.670   2.803   5.770 -1.0957 -0.3612 -1.4446
 6659TIP3   OH241467   5.417   0.345  14.671 -0.5289  0.3775  0.1714
 6659TIP3    H141468   5.473   0.311  14.741 -0.4323 -1.9091 -0.9833
 6659TIP3    H241469   5.476   0.353  14.596 -0.5288  3.2268  0.3873
 6660TIP3   OH241470   1.345   5.392   4.996 -0.2104 -0.0884 -0.9819
 6660TIP3    H141471   1.434   5.427   4.995 -0.7330  1.3672  0.4093
 6660TIP3    H241472   1.321   5.381   4.904  0.6178  1.5692 -1.4013
 6661TIP3   OH241473   1.214   1.397   0.473 -0.4291  0.0302 -0.1045
 6661TIP3    H141474   1.119   1.385   0.462 -0.5560  0.2676  0.7239
 6661TIP3    H241475   1.229   1.385   0.566 -0.0651  2.8427  0.2514
 6662TIP3   OH241476   6.796   6.252   0.883  0.2398  0.0409 -0.0251
 6662TIP3    H141477   6.813   6.311   0.810 -2.0110 -0.1024 -0.7128
 6662TIP3    H241478   6.796   6.164   0.844  0.5246 -0.1662  0.4325
 6663TIP3   OH241479   4.855   4.267   5.110 -0.6273  0.0904 -0.0836
 6663TIP3    H141480   4.858   4.186   5.161  0.7705 -0.5121 -1.0515
 6663TIP3    H241481   4.934   4.263   5.055  0.3699  2.9291  1.0612
 6664TIP3   OH241482   1.281   1.757   2.687  0.4653 -0.0365  0.4295
 6664TIP3    H141483   1.196   1.782   2.722 -0.2262 -0.2286 -1.0628
 6664TIP3    H241484   1.291   1.812   2.609 -0.5065 -3.4317 -2.2113
 6665TIP3   OH241485   2.446   5.072   5.273 -0.2848  0.6480 -0.2016
 6665TIP3    H141486   2.468   5.074   5.366  0.9070  1.1796 -0.4959
 6665TIP3    H241487   2.352   5.054   5.272 -0.5167  1.7044  1.1327
 6666TIP3   OH241488   5.954   1.355  14.891  0.2200 -0.5375 -0.1305
 6666TIP3    H141489   5.923   1.339  14.802 -1.1326 -1.7788  0.5397
 6666TIP3    H241490   5.876   1.347  14.946  0.9595  0.6402  1.1330
 6667TIP3   OH241491   2.505   3.369  13.768  0.0015 -0.0924 -0.0804
 6667TIP3    H141492   2.470   3.442  13.716  0.1223 -0.8698 -1.2674
 6667TIP3    H241493   2.589   3.349  13.727  0.6500  0.0430  1.1483
 6668TIP3   OH241494   4.381   3.310   4.931 -0.3658  0.3227 -0.6516
 6668TIP3    H141495   4.355   3.274   4.846 -1.1452 -3.1253  0.9453
 6668TIP3    H241496   4.474   3.329   4.922 -0.0894 -1.4597 -1.8286
 6669TIP3   OH241497   6.102   2.341   0.947  0.2652 -0.6169 -0.2076
 6669TIP3    H141498   6.135   2.353   1.036 -0.4578  2.9869 -0.3654
 6669TIP3    H241499   6.167   2.383   0.891 -0.3379 -1.0020 -1.2147
 6670TIP3   OH241500   4.403   3.965  11.649 -0.3242 -0.0811 -0.8910
 6670TIP3    H141501   4.351   3.912  11.590 -1.2006 -0.8437  0.5534
 6670TIP3    H241502   4.352   3.970  11.730  1.1195  0.4577  0.0207
 6671TIP3   OH241503   3.141   1.211   5.808  0.7729 -0.6971 -0.4019
 6671TIP3    H141504   3.104   1.220   5.896  0.7109 -0.1031 -0.4822
 6671TIP3    H241505   3.079   1.258   5.752  2.1545  1.2068 -0.3968
 6672TIP3   OH241506   3.257   3.949  15.901 -0.3399 -0.2189 -0.0622
 6672TIP3    H141507   3.337   3.899  15.888 -0.5733 -0.3074 -1.1720
 6672TIP3    H241508   3.264   4.022  15.841 -2.1581 -1.5129 -1.9236
 6673TIP3   OH241509   2.964   6.758  13.768 -0.2678  0.9292 -0.4459
 6673TIP3    H141510   2.879   6.733  13.805 -0.2552  2.0465  0.3887
 6673TIP3    H241511   2.983   6.691  13.702 -0.4683 -0.9164  1.3209
 6674TIP3   OH241512   1.250   2.087   1.682 -0.1244  0.6494  0.1610
 6674TIP3    H141513   1.164   2.056   1.651  1.9940 -2.4985 -2.9345
 6674TIP3    H241514   1.277   2.021   1.745  1.9673 -0.9084 -2.2865
 6675TIP3   OH241515   1.001   1.791  14.516 -0.1008  0.5360  0.1056
 6675TIP3    H141516   1.025   1.856  14.583  0.0508  0.7303 -0.1359
 6675TIP3    H241517   0.915   1.818  14.486 -0.2543  0.3331  0.3648
 6676TIP3   OH241518   2.886   2.071  15.110  0.7896 -0.0163 -0.3497
 6676TIP3    H141519   2.814   2.086  15.049  1.2312 -0.8368 -1.0899
 6676TIP3    H241520   2.862   2.121  15.189 -1.4255 -1.6599  0.0713
 6677TIP3   OH241521   0.676   5.037   2.770 -0.5941 -0.3026 -0.0723
 6677TIP3    H141522   0.679   5.123   2.729 -0.4114 -1.2838 -2.1956
 6677TIP3    H241523   0.584   5.011   2.766 -0.6614 -0.1763  0.6328
 6678TIP3   OH241524   2.056   0.472  16.367  0.2502  0.7509 -0.0629
 6678TIP3    H141525   2.133   0.449  16.315  0.2287  0.4236  0.0512
 6678TIP3    H241526   2.045   0.566  16.352  0.3297  0.6857 -0.5338
 6679TIP3   OH241527   2.461   5.910   2.549 -0.1090  0.5359 -0.3685
 6679TIP3    H141528   2.478   5.884   2.640 -0.6700 -0.6208 -0.5789
 6679TIP3    H241529   2.386   5.970   2.556 -0.5974 -0.0858 -0.1136
 6680TIP3   OH241530   3.938   0.025   2.185 -0.1177 -0.0112 -0.8840
 6680TIP3    H141531   3.930   0.119   2.169 -1.0159 -0.1611 -1.3057
 6680TIP3    H241532   4.033   0.009   2.183 -0.0730  0.3972 -3.5425
 6681TIP3   OH241533   0.223   3.199  16.528 -0.1970 -0.6915  0.2180
 6681TIP3    H141534   0.154   3.178  16.590 -1.4556 -0.1604 -0.9696
 6681TIP3    H241535   0.262   3.280  16.562 -1.1231 -0.1981  0.1194
 6682TIP3   OH241536   6.049   4.362  15.617 -0.0489 -0.4904  0.0893
 6682TIP3    H141537   6.094   4.368  15.533 -1.6734  2.1699 -0.6294
 6682TIP3    H241538   5.964   4.322  15.597 -0.5182  0.3242  0.4365
 6683TIP3   OH241539   3.618   2.216   2.065  0.3039 -0.0306 -0.1420
 6683TIP3    H141540   3.698   2.177   2.029 -0.8698 -1.2005 -1.5068
 6683TIP3    H241541   3.594   2.284   2.002 -0.5866 -0.6825 -0.5268
 6684TIP3   OH241542   3.145   5.352  11.125  0.3359  0.0873  0.4161
 6684TIP3    H141543   3.065   5.339  11.176  1.8991 -2.9342  2.2018
 6684TIP3    H241544   3.215   5.357  11.190  1.9068  0.3385 -1.2569
 6685TIP3   OH241545   5.297   6.540   5.756 -0.3177  0.0978  0.0210
 6685TIP3    H141546   5.343   6.620   5.730 -1.5212  0.4099 -1.2579
 6685TIP3    H241547   5.354   6.469   5.727  1.3233  0.4649  2.2189
 6686TIP3   OH241548   5.577   2.523  12.923 -0.4198 -0.6061  0.2013
 6686TIP3    H141549   5.541   2.605  12.889 -3.6143 -1.7639  0.6410
 6686TIP3    H241550   5.579   2.465  12.847  2.1837 -0.0561 -0.1902
 6687TIP3   OH241551   1.990   6.797  12.389 -0.2355 -0.0877 -0.2228
 6687TIP3    H141552   1.953   6.733  12.449  0.2985 -1.1625 -1.0424
 6687TIP3    H241553   2.084   6.794  12.405 -0.0673 -0.5527 -1.2798
 6688TIP3   OH241554   3.878   0.763  11.935 -0.6319  0.4230  0.4054
 6688TIP3    H141555   3.855   0.753  11.842  2.1738  1.0138 -0.3878
 6688TIP3    H241556   3.933   0.841  11.938 -0.9300  0.5809  2.6340
 6689TIP3   OH241557   3.927   2.493  12.167  0.2399  0.2267  1.3673
 6689TIP3    H141558   3.910   2.401  12.143 -1.2646 -0.2499  4.0700
 6689TIP3    H241559   3.959   2.533  12.086 -1.3749 -2.1021 -0.5088
 6690TIP3   OH241560   5.406   2.514  11.880 -0.4053  0.3581 -0.2210
 6690TIP3    H141561   5.333   2.547  11.931 -0.5388 -0.0737 -0.1287
 6690TIP3    H241562   5.376   2.517  11.789 -0.8673 -0.6226 -0.1137
 6691TIP3   OH241563   6.271   1.433  15.036 -0.3602  0.2477  0.7076
 6691TIP3    H141564   6.314   1.368  15.092 -0.4512  1.0060  1.6697
 6691TIP3    H241565   6.190   1.455  15.082  0.5994  2.4863  1.3965
 6692TIP3   OH241566   0.128   4.197   5.385  0.1080  0.2075 -0.3819
 6692TIP3    H141567   0.213   4.176   5.425  0.9254 -1.0876 -2.7505
 6692TIP3    H241568   0.080   4.115   5.386 -0.4514  0.5308 -0.6564
 6693TIP3   OH241569   0.295   5.438  14.242  0.3569  0.4069  0.5172
 6693TIP3    H141570   0.254   5.432  14.155  1.0718  0.1528  0.1897
 6693TIP3    H241571   0.384   5.471  14.224  0.3766  0.7241  1.1890
 6694TIP3   OH241572   1.149   2.406   1.495  0.3835 -0.8960 -0.2346
 6694TIP3    H141573   1.136   2.337   1.430 -0.3932  0.3676 -1.4644
 6694TIP3    H241574   1.073   2.398   1.553  0.9473 -1.8608  0.3977
 6695TIP3   OH241575   3.844   4.967  11.562 -0.6005  0.3606 -0.8449
 6695TIP3    H141576   3.880   4.907  11.498 -0.0833  0.1419 -0.3523
 6695TIP3    H241577   3.916   5.026  11.583 -0.6047  0.0847 -0.0501
 6696TIP3   OH241578   4.917   2.694   4.948  0.2693 -0.4168 -0.2344
 6696TIP3    H141579   4.905   2.655   5.034  1.1230  1.1854  0.6268
 6696TIP3    H241580   4.923   2.619   4.889  1.1600 -1.5698  1.2863
 6697TIP3   OH241581   3.064   6.221   4.189 -0.2014  0.1735 -0.6290
 6697TIP3    H141582   3.129   6.291   4.187 -0.8913  0.8172 -0.8150
 6697TIP3    H241583   3.113   6.143   4.218  1.2583 -0.0211 -3.4443
 6698TIP3   OH241584   1.741   4.320   5.654 -0.2941  0.9919 -0.3466
 6698TIP3    H141585   1.756   4.249   5.592  0.1733  1.4030 -0.7074
 6698TIP3    H241586   1.779   4.290   5.736 -1.1608  0.3295 -0.1786
 6699TIP3   OH241587   1.221   1.048   5.812 -0.1381 -0.1837  0.2849
 6699TIP3    H141588   1.170   0.982   5.765  1.4627  0.2126 -2.1059
 6699TIP3    H241589   1.308   1.043   5.772  0.4566  2.2323  1.2154
 6700TIP3   OH241590   6.819   2.410   5.274  0.3532  0.0065  0.0660
 6700TIP3    H141591   6.782   2.498   5.263  1.1459  0.2101 -1.1514
 6700TIP3    H241592   6.852   2.408   5.364 -2.1033 -0.0010  0.9859
 6701TIP3   OH241593   1.280   2.372   1.778  0.4697  0.4300 -1.1071
 6701TIP3    H141594   1.256   2.281   1.758  0.4695  0.6300 -2.0507
 6701TIP3    H241595   1.270   2.379   1.873  1.1919 -0.7754 -0.9169
 6702TIP3   OH241596   0.871   6.621  12.110  0.1342 -0.0096 -0.1029
 6702TIP3    H141597   0.819   6.576  12.044 -0.0120 -2.6567  1.7362
 6702TIP3    H241598   0.954   6.639  12.066 -0.4806 -0.3955 -1.4641
 6703TIP3   OH241599   2.195   3.798  10.855  0.4355 -0.2233  0.0150
 6703TIP3    H141600   2.123   3.849  10.891  1.7844  1.1525  0.8115
 6703TIP3    H241601   2.152   3.730  10.802 -1.5700 -1.6265  3.2904
 6704TIP3   OH241602   1.178   2.500   3.793 -0.2660  0.0314  0.2474
 6704TIP3    H141603   1.133   2.417   3.774  0.7435 -0.0687 -1.8797
 6704TIP3    H241604   1.133   2.534   3.870 -0.0855 -2.9605  1.7705
 6705TIP3   OH241605   3.757   1.711   6.237  0.3344  0.2901  0.5685
 6705TIP3    H141606   3.669   1.675   6.223  0.3532 -0.3183  1.9302
 6705TIP3    H241607   3.815   1.634   6.232  0.6865  0.5550  0.5729
 6706TIP3   OH241608   5.696   6.071  16.272  0.3486 -0.3015  0.4362
 6706TIP3    H141609   5.749   6.032  16.203  0.4258  1.2648 -0.4138
 6706TIP3    H241610   5.661   5.997  16.321  0.1220 -1.4302 -1.4129
 6707TIP3   OH241611   1.007   0.256   0.557 -0.4582  0.3470  0.1881
 6707TIP3    H141612   0.961   0.328   0.513  0.1767  0.0222 -1.0321
 6707TIP3    H241613   1.072   0.299   0.613 -0.2832  0.7436 -0.3135
 6708TIP3   OH241614   3.271   6.225  10.772 -0.2990  0.5542 -0.2540
 6708TIP3    H141615   3.263   6.286  10.699 -0.3213 -0.2584 -0.9375
 6708TIP3    H241616   3.275   6.139  10.731 -1.0260  0.0377  0.7455
 6709TIP3   OH241617   3.651   4.442   3.903 -0.1712 -0.0774  0.6683
 6709TIP3    H141618   3.678   4.526   3.941 -0.3190  0.6078 -0.6904
 6709TIP3    H241619   3.581   4.411   3.960 -1.8425  1.9582 -0.1929
 6710TIP3   OH241620   6.040   5.770   1.060 -0.3696 -0.4674 -0.2588
 6710TIP3    H141621   6.073   5.696   1.010  0.9168  0.1606 -0.3505
 6710TIP3    H241622   6.062   5.750   1.151  0.2452 -0.0604 -0.3166
 6711TIP3   OH241623   1.891   0.221  13.159 -0.2921 -0.2747 -0.1952
 6711TIP3    H141624   1.891   0.160  13.086 -0.3874  0.4785 -0.8239
 6711TIP3    H241625   1.809   0.202  13.205 -1.0836  0.4562 -1.2901
 6712TIP3   OH241626   4.720   4.159   2.443  0.5958 -0.1483  0.8409
 6712TIP3    H141627   4.719   4.249   2.475 -0.0013 -0.0776  0.6396
 6712TIP3    H241628   4.642   4.119   2.484  1.2311 -0.7624  1.4726
 6713TIP3   OH241629   2.113   3.044  11.594 -0.3991 -0.2748  0.4498
 6713TIP3    H141630   2.059   3.020  11.519 -0.6033  1.8030 -0.0865
 6713TIP3    H241631   2.060   3.022  11.670 -1.5255  0.6636 -0.0574
 6714TIP3   OH241632   5.402   0.444   3.090  0.0329 -0.6373 -0.0780
 6714TIP3    H141633   5.488   0.403   3.103  1.5615  2.4002 -0.2123
 6714TIP3    H241634   5.349   0.410   3.162  2.2067 -0.3237  1.7273
 6715TIP3   OH241635   6.391   1.200   5.834 -0.7350 -0.5792 -0.2807
 6715TIP3    H141636   6.384   1.153   5.751  1.5495  0.9450 -1.3686
 6715TIP3    H241637   6.479   1.180   5.866 -0.6328  0.9730  0.4651
 6716TIP3   OH241638   5.191   5.423   2.293 -0.6276  0.3823  0.3901
 6716TIP3    H141639   5.102   5.433   2.257 -0.8454  0.4799  0.9507
 6716TIP3    H241640   5.237   5.501   2.264 -0.7823  0.4255  0.2568
 6717TIP3   OH241641   4.588   3.854   1.792  0.3396 -0.4388 -0.4445
 6717TIP3    H141642   4.672   3.844   1.836  0.1403 -0.7153 -0.1288
 6717TIP3    H241643   4.548   3.931   1.833  0.7822  0.1696 -1.1448
 6718TIP3   OH241644   1.260   6.109  14.896 -0.0380  0.4027 -0.1079
 6718TIP3    H141645   1.264   6.018  14.925 -1.2731  0.9509  1.9058
 6718TIP3    H241646   1.168   6.125  14.877  0.4709  0.6609 -2.4402
 6719TIP3   OH241647   3.907   2.742   3.099  0.4036 -0.8245 -0.0471
 6719TIP3    H141648   3.871   2.704   3.179 -0.7879  0.1731 -0.0815
 6719TIP3    H241649   3.998   2.762   3.121  0.3532 -1.4390  0.7468
 6720TIP3   OH241650   1.221   0.228  11.484  0.2975 -0.1333  0.2071
 6720TIP3    H141651   1.154   0.224  11.552  0.2505  1.1997  0.2411
 6720TIP3    H241652   1.206   0.150  11.431 -1.5406  0.3681 -0.0365
 6721TIP3   OH241653   6.023   2.486   4.279  0.2701 -0.1085  0.0072
 6721TIP3    H141654   5.985   2.416   4.333 -1.6442  1.0018  0.1311
 6721TIP3    H241655   6.018   2.564   4.335  0.5378  0.5441 -0.8810
 6722TIP3   OH241656   4.191   1.324   4.057 -0.2070  0.0301  0.5181
 6722TIP3    H141657   4.226   1.397   4.006 -2.5115 -0.0482 -1.2577
 6722TIP3    H241658   4.261   1.259   4.056  1.3260  1.6295  0.9003
 6723TIP3   OH241659   3.112   3.777  11.842 -0.1848  0.1359  0.3265
 6723TIP3    H141660   3.202   3.782  11.874 -0.5311  0.4902  1.2565
 6723TIP3    H241661   3.070   3.714  11.901 -0.5847  0.0959 -0.0045
 6724TIP3   OH241662   2.124   1.480  16.596 -0.2055  0.1056 -0.2275
 6724TIP3    H141663   2.181   1.541  16.550  0.5834 -0.7416 -0.3600
 6724TIP3    H241664   2.087   1.425  16.527  0.9971 -1.1784  0.1417
 6725TIP3   OH241665   5.674   2.274   1.332  0.6140  0.2032 -0.5964
 6725TIP3    H141666   5.717   2.355   1.308  0.3190  0.5096 -0.0878
 6725TIP3    H241667   5.588   2.280   1.290  0.8825 -0.2015 -1.2214
 6726TIP3   OH241668   2.507   5.581   4.849 -0.2539  0.4487  0.4692
 6726TIP3    H141669   2.415   5.580   4.823 -0.7517 -0.6275  2.1555
 6726TIP3    H241670   2.529   5.674   4.858 -1.8597  0.6873  2.2509
 6727TIP3   OH241671   6.729   6.547   0.154 -0.0780  0.4295 -0.0261
 6727TIP3    H141672   6.821   6.560   0.175 -0.2613  1.0204  0.4140
 6727TIP3    H241673   6.729   6.478   0.087  0.6448  0.0415  0.3692
 6728TIP3   OH241674   3.335   6.495  10.852 -0.1010  0.2522  0.0926
 6728TIP3    H141675   3.351   6.577  10.806 -0.4665 -1.2032 -2.7608
 6728TIP3    H241676   3.276   6.446  10.794  0.2560 -2.0956  1.6329
 6729TIP3   OH241677   0.308   1.344  15.568  0.0661 -0.1404 -0.5211
 6729TIP3    H141678   0.324   1.255  15.600 -1.5396 -0.5288 -0.7820
 6729TIP3    H241679   0.237   1.335  15.505 -0.8741  1.4737  0.2651
 6730TIP3   OH241680   6.080   1.706   5.127 -0.2816 -0.2136  0.4424
 6730TIP3    H141681   6.159   1.686   5.177  1.5597  2.2514 -1.3291
 6730TIP3    H241682   6.087   1.654   5.048 -0.4987 -0.1171  0.3591
 6731TIP3   OH241683   5.294   3.498  13.216 -0.1840 -0.3520  0.1611
 6731TIP3    H141684   5.335   3.411  13.224  0.7372  0.1431  0.9355
 6731TIP3    H241685   5.367   3.559  13.225 -0.9024  0.5161  0.0942
 6732TIP3   OH241686   3.734   4.492   0.678 -0.2759 -0.0978  0.3727
 6732TIP3    H141687   3.710   4.485   0.586  3.2532 -0.6049 -0.5716
 6732TIP3    H241688   3.744   4.586   0.693  2.6187 -0.1674 -0.7806
 6733TIP3   OH241689   2.185   2.290   1.877  0.4779  0.1832  0.1375
 6733TIP3    H141690   2.142   2.205   1.871  0.7478  0.0836 -0.4306
 6733TIP3    H241691   2.181   2.313   1.970  0.8999 -0.7093  0.3748
 6734TIP3   OH241692   3.722   6.093  10.088 -0.7429  0.2629  0.8315
 6734TIP3    H141693   3.764   6.170  10.126  0.1403  0.6176 -0.8450
 6734TIP3    H241694   3.728   6.026  10.157  1.3130  0.7245  1.1399
 6735TIP3   OH241695   5.278   4.096  12.999  0.7872  0.6063  0.1615
 6735TIP3    H141696   5.214   4.154  13.041  0.7985  1.1416 -0.5583
 6735TIP3    H241697   5.317   4.047  13.072  0.0135  0.7331  0.6624
 6736TIP3   OH241698   2.677   0.158  11.926 -0.0831  0.2356  0.1845
 6736TIP3    H141699   2.685   0.146  11.831  1.8650  0.6501  0.2681
 6736TIP3    H241700   2.733   0.234  11.945  0.0614 -0.2458  1.7436
 6737TIP3   OH241701   0.349   3.476  12.385  0.6700 -0.4019 -0.3475
 6737TIP3    H141702   0.255   3.456  12.381  0.4550  0.2930  0.9766
 6737TIP3    H241703   0.381   3.459  12.296 -0.7252 -0.5782 -0.8250
 6738TIP3   OH241704   0.628   5.527  12.223  0.4668  0.3176 -0.1360
 6738TIP3    H141705   0.625   5.505  12.130  2.3790  0.1435 -0.1770
 6738TIP3    H241706   0.594   5.449  12.267 -1.1070  0.6685 -0.7228
 6739TIP3   OH241707   1.924   4.520  15.253 -0.1426  0.0844 -0.1289
 6739TIP3    H141708   2.007   4.545  15.294  0.1227  0.8492 -1.1031
 6739TIP3    H241709   1.857   4.550  15.314  0.3262 -1.4435  1.1417
 6740TIP3   OH241710   2.087   3.804  15.836  0.5604  0.4985  0.1802
 6740TIP3    H141711   2.120   3.827  15.749  1.1432 -0.8867  0.0228
 6740TIP3    H241712   2.085   3.709  15.837 -1.8131  0.5192  0.8185
 6741TIP3   OH241713   6.277   0.992  14.103  0.1806  0.1177  0.0662
 6741TIP3    H141714   6.186   0.979  14.077  0.4904 -1.3143 -0.3346
 6741TIP3    H241715   6.314   0.903  14.110  1.3850  0.6506  0.7938
 6742TIP3   OH241716   2.785   4.999  14.414 -0.2592 -0.1382 -0.9289
 6742TIP3    H141717   2.810   4.961  14.330  0.1156  1.1554 -1.4182
 6742TIP3    H241718   2.703   5.045  14.397  1.3897  2.7400 -1.3591
 6743TIP3   OH241719   1.748   1.738   1.535  0.8637 -0.0732  0.1554
 6743TIP3    H141720   1.761   1.657   1.584 -1.3318 -0.7550 -0.3595
 6743TIP3    H241721   1.798   1.804   1.584  1.4087 -1.4156  1.4347
 6744TIP3   OH241722   6.782   4.975   0.371  0.1698  0.2970  0.8261
 6744TIP3    H141723   6.849   5.038   0.397 -0.6841  1.2381  0.7841
 6744TIP3    H241724   6.711   4.989   0.434  0.2411 -1.0923  1.2294
 6745TIP3   OH241725   5.369   5.324  14.988 -0.1049 -0.0876 -0.4588
 6745TIP3    H141726   5.439   5.258  14.989  0.0202  0.0624  0.7389
 6745TIP3    H241727   5.291   5.275  14.962  0.3068 -0.3844 -1.1562
 6746TIP3   OH241728   0.836   1.798  16.797 -0.2356 -0.1197 -0.4442
 6746TIP3    H141729   0.762   1.774  16.852 -0.9440 -1.2993 -1.8913
 6746TIP3    H241730   0.854   1.890  16.818 -0.3983 -0.5976  1.8474
 6747TIP3   OH241731   2.905   3.671   6.535  0.0178 -0.3144 -0.0196
 6747TIP3    H141732   2.941   3.733   6.472  0.6375 -0.3496  0.2879
 6747TIP3    H241733   2.816   3.701   6.551 -0.0435 -0.1394 -0.6914
 6748TIP3   OH241734   5.304   0.699  14.559 -0.2925 -0.0958  0.1537
 6748TIP3    H141735   5.345   0.699  14.646  0.4588  0.2507 -0.2003
 6748TIP3    H241736   5.212   0.678  14.577 -0.2381  0.4049  1.0769
 6749TIP3   OH241737   3.303   3.585   5.001 -0.0073 -0.1374  0.2576
 6749TIP3    H141738   3.393   3.614   4.987  0.0894 -0.7646 -0.4500
 6749TIP3    H241739   3.303   3.547   5.088  0.5388 -0.6196  0.0475
 6750TIP3   OH241740   3.503   2.170  15.033 -0.7018  0.1151  0.0642
 6750TIP3    H141741   3.533   2.229  15.101  0.5319 -0.7369  0.2709
 6750TIP3    H241742   3.523   2.214  14.950  2.2800 -0.9438  0.1593
 6751TIP3   OH241743   6.556   4.531   3.717  0.3137  0.1682 -0.0805
 6751TIP3    H141744   6.513   4.615   3.699 -2.0247 -0.7600  0.8741
 6751TIP3    H241745   6.484   4.473   3.744  2.0230 -1.8505  0.2783
 6752TIP3   OH241746   0.761   0.500  13.925 -0.3498  0.7856 -0.0885
 6752TIP3    H141747   0.793   0.584  13.891  0.8083  1.1474  1.8615
 6752TIP3    H241748   0.751   0.514  14.019  4.1471 -2.5689  1.0347
 6753TIP3   OH241749   3.142   1.706  15.714  0.0570  0.5883 -0.2443
 6753TIP3    H141750   3.133   1.719  15.619 -0.5053 -0.0466 -0.2773
 6753TIP3    H241751   3.133   1.794  15.750  3.0078  1.2522 -0.9632
 6754TIP3   OH241752   4.370   1.707   1.964  0.2772 -0.0625 -0.1320
 6754TIP3    H141753   4.398   1.657   2.040  0.8180 -1.0097 -0.9493
 6754TIP3    H241754   4.451   1.727   1.918 -0.2108 -1.1877 -1.5070
 6755TIP3   OH241755   6.406   5.178   2.257  0.9194  0.1926 -0.2488
 6755TIP3    H141756   6.406   5.091   2.297 -0.4048  0.7894  1.1154
 6755TIP3    H241757   6.465   5.230   2.312  0.6814  0.4924 -0.2775
 6756TIP3   OH241758   1.692   6.053   1.679  0.4583 -0.2785 -0.2484
 6756TIP3    H141759   1.680   6.089   1.767  2.9177 -0.3607  0.1643
 6756TIP3    H241760   1.670   6.124   1.620 -3.4606 -0.8925  0.3132
 6757TIP3   OH241761   0.877   3.415   3.096  0.1922 -0.1237  0.2186
 6757TIP3    H141762   0.972   3.429   3.091  0.4872 -2.0174  0.2242
 6757TIP3    H241763   0.867   3.334   3.146 -1.4372  0.0085  0.1377
 6758TIP3   OH241764   6.442   6.120  14.674 -0.1108 -0.3149  0.1327
 6758TIP3    H141765   6.433   6.123  14.769 -0.3468 -0.6637  0.1250
 6758TIP3    H241766   6.467   6.030  14.655  2.8430  0.4691  0.0917
 6759TIP3   OH241767   5.545   1.962   1.200 -0.1866  0.2256  0.1993
 6759TIP3    H141768   5.638   1.959   1.221 -0.1044 -0.2581 -0.2071
 6759TIP3    H241769   5.539   2.025   1.128  0.0731 -1.0332 -0.9462
 6760TIP3   OH241770   0.274   3.122  11.244  0.2200  0.8621 -0.0141
 6760TIP3    H141771   0.195   3.107  11.192  0.5700  2.1121 -0.8991
 6760TIP3    H241772   0.346   3.090  11.190  0.3714  0.0781  0.6354
 6761TIP3   OH241773   4.409   1.420   3.649 -0.1409  0.0816 -0.3308
 6761TIP3    H141774   4.358   1.420   3.569  0.5008  1.1931 -0.7481
 6761TIP3    H241775   4.344   1.428   3.719 -0.8330 -2.4464 -0.6121
 6762TIP3   OH241776   0.560   3.930   0.111  0.5347  0.6882 -0.1396
 6762TIP3    H141777   0.612   3.864   0.157 -0.9156 -0.0673  0.4569
 6762TIP3    H241778   0.497   3.880   0.061  0.9419  1.5712 -1.5704
 6763TIP3   OH241779   3.758   1.820   1.517  0.3531 -0.2973  0.4366
 6763TIP3    H141780   3.685   1.878   1.539  2.0599  1.6832  1.0276
 6763TIP3    H241781   3.836   1.874   1.530  1.8625 -1.9266 -1.6406
 6764TIP3   OH241782   6.766   4.806  16.468  1.0536 -0.1672 -0.1218
 6764TIP3    H141783   6.721   4.722  16.470  1.3741 -0.3163  2.3035
 6764TIP3    H241784   6.800   4.813  16.379 -3.1980 -0.3034 -1.8330
 6765TIP3   OH241785   1.387   5.250   5.538 -0.0618 -0.2491  0.1664
 6765TIP3    H141786   1.369   5.273   5.447  1.6758 -1.0945 -0.4026
 6765TIP3    H241787   1.347   5.163   5.548  0.8572 -0.7193 -0.1734
 6766TIP3   OH241788   2.004   5.173   4.014 -0.6273  0.1896  0.3775
 6766TIP3    H141789   2.013   5.079   4.028 -1.7644 -0.0261 -0.3313
 6766TIP3    H241790   2.023   5.185   3.921 -0.6054  0.6459  0.4387
 6767TIP3   OH241791   0.599   4.614  16.016 -0.3583 -0.3433 -0.0049
 6767TIP3    H141792   0.672   4.675  16.030 -0.5482  0.2488 -1.5312
 6767TIP3    H241793   0.520   4.669  16.021 -0.6738 -0.8733  1.0138
 6768TIP3   OH241794   1.734   1.235   4.660  0.7050  0.3641  0.1146
 6768TIP3    H141795   1.694   1.319   4.684 -0.6285 -0.8611  2.3764
 6768TIP3    H241796   1.671   1.195   4.600  0.6636  0.3924  0.1393
 6769TIP3   OH241797   4.621   1.973  16.216  0.3891  0.0814 -0.9484
 6769TIP3    H141798   4.548   1.972  16.154 -0.0261  1.3137 -0.5003
 6769TIP3    H241799   4.624   1.885  16.251 -0.7520 -0.0350 -1.1312
 6770TIP3   OH241800   4.567   3.325   5.238  0.2842  0.0961  0.3172
 6770TIP3    H141801   4.638   3.309   5.301 -2.0014 -0.1463  2.9316
 6770TIP3    H241802   4.546   3.418   5.250 -0.9174 -0.2290  0.7166
 6771TIP3   OH241803   5.977   0.957  14.797 -0.0051 -0.1817  0.1302
 6771TIP3    H141804   6.013   0.937  14.710 -0.6351 -1.8552  0.2400
 6771TIP3    H241805   6.047   0.934  14.858 -0.0916 -0.4033  0.1485
 6772TIP3   OH241806   4.990   3.257   0.838  0.3182 -0.9432 -0.1826
 6772TIP3    H141807   5.012   3.251   0.931  0.9434 -0.1932 -0.2793
 6772TIP3    H241808   5.057   3.315   0.802 -1.4091  0.7749 -0.6432
 6773TIP3   OH241809   4.913   0.095  16.155 -0.0480 -0.0274  0.6886
 6773TIP3    H141810   4.998   0.064  16.187 -0.7346 -1.2738  1.3109
 6773TIP3    H241811   4.855   0.020  16.163 -0.7529  0.2358 -1.5887
 6774TIP3   OH241812   5.810   2.401  15.232 -0.1610 -0.4481  0.3339
 6774TIP3    H141813   5.763   2.484  15.245  2.2774  0.9070  0.7817
 6774TIP3    H241814   5.901   2.427  15.221  0.3544 -2.9533 -1.6031
 6775TIP3   OH241815   3.713   3.935  13.568  0.1282 -0.1960 -0.3375
 6775TIP3    H141816   3.739   3.896  13.484 -0.3606 -0.0321 -0.5671
 6775TIP3    H241817   3.639   3.992  13.546  0.4899  0.4445  0.0816
 6776TIP3   OH241818   6.355   5.081  10.996  0.3341  0.0848 -0.3601
 6776TIP3    H141819   6.293   5.136  10.949  0.1229 -1.4428 -1.9413
 6776TIP3    H241820   6.304   5.006  11.024  1.1489 -0.5190 -0.4654
 6777TIP3   OH241821   4.524   1.851   0.163  0.2123 -0.1570  0.0125
 6777TIP3    H141822   4.560   1.862   0.075 -0.4244 -0.1142 -0.2447
 6777TIP3    H241823   4.593   1.880   0.221 -0.7407  3.5052 -0.5613
 6778TIP3   OH241824   3.110   3.269  16.476  0.0638  0.0776 -0.5725
 6778TIP3    H141825   3.148   3.340  16.425  0.6841  0.0123 -0.2078
 6778TIP3    H241826   3.067   3.213  16.411  0.3133  0.3277 -0.9530
 6779TIP3   OH241827   5.265   3.311  15.884 -0.5375  0.2305  0.7066
 6779TIP3    H141828   5.199   3.372  15.917 -0.5304  2.1172 -2.5100
 6779TIP3    H241829   5.216   3.248  15.831  0.0689  0.9535 -0.7454
 6780TIP3   OH241830   5.618   2.048  11.812  0.2697  0.8689 -0.0960
 6780TIP3    H141831   5.541   2.010  11.771  0.1624  0.8148  0.1559
 6780TIP3    H241832   5.585   2.093  11.889  0.6614 -0.4777  0.8790
 6781TIP3   OH241833   1.040   1.984   6.281  0.3198  0.2251  0.2067
 6781TIP3    H141834   1.022   1.981   6.187 -0.4627 -0.0881  0.3643
 6781TIP3    H241835   1.018   2.074   6.306  0.4234  0.2777  0.1060
 6782TIP3   OH241836   4.616   1.190   3.219  0.1976 -0.0674  0.3883
 6782TIP3    H141837   4.630   1.210   3.312 -1.6792 -0.2296  0.7347
 6782TIP3    H241838   4.638   1.271   3.174 -0.7673  0.6635  1.1830
 6783TIP3   OH241839   2.001   5.749   6.429  0.4964 -0.1787 -0.0431
 6783TIP3    H141840   1.906   5.751   6.438  0.3640 -1.1457 -1.2737
 6783TIP3    H241841   2.020   5.668   6.382  1.6736  1.7055 -2.9065
 6784TIP3   OH241842   3.304   2.461   1.568  0.0567  0.1657 -0.7124
 6784TIP3    H141843   3.258   2.497   1.491  1.6319  1.8969 -0.8988
 6784TIP3    H241844   3.293   2.528   1.635  2.8522  0.9742 -0.9828
 6785TIP3   OH241845   3.419   0.623   4.431 -0.1836  0.7049 -0.4010
 6785TIP3    H141846   3.472   0.565   4.376 -1.9041 -1.0539 -0.2610
 6785TIP3    H241847   3.402   0.572   4.510 -3.5324  0.5158 -1.1718
 6786TIP3   OH241848   0.874   2.313  12.699  0.2900 -0.2743  0.2468
 6786TIP3    H141849   0.837   2.378  12.639 -1.2332 -1.7123 -0.4252
 6786TIP3    H241850   0.806   2.301  12.765  0.4078 -1.4310  0.1652
 6787TIP3   OH241851   6.530   0.629  11.461  0.3508  0.1963  0.3284
 6787TIP3    H141852   6.492   0.654  11.377 -0.3530  0.5827  0.7614
 6787TIP3    H241853   6.587   0.556  11.440  0.1096  0.2322 -0.4758
 6788TIP3   OH241854   2.442   2.953   2.061  0.2458  0.0722  0.0487
 6788TIP3    H141855   2.463   2.912   1.977 -0.7298  1.2046 -0.7667
 6788TIP3    H241856   2.356   2.920   2.083 -1.4006  3.0606 -1.5670
 6789TIP3   OH241857   5.435   2.765   5.317  0.1857 -0.1391  0.3926
 6789TIP3    H141858   5.437   2.791   5.224  1.3505  1.8475  0.9543
 6789TIP3    H241859   5.523   2.732   5.334  0.7457  1.8490  1.4321
 6790TIP3   OH241860   5.468   3.737   2.935 -0.1911 -0.0323 -0.5152
 6790TIP3    H141861   5.539   3.742   2.998  0.4909  0.4373 -1.3127
 6790TIP3    H241862   5.501   3.782   2.857 -2.4470  2.7967  0.0959
 6791TIP3   OH241863   3.432   6.353   2.480 -0.5991 -0.4437  0.0806
 6791TIP3    H141864   3.360   6.358   2.542 -0.4044  1.2679  0.1738
 6791TIP3    H241865   3.463   6.443   2.471  1.2295 -1.0880 -0.2975
 6792TIP3   OH241866   5.029   0.467   4.227 -0.2101  0.0258 -0.0444
 6792TIP3    H141867   5.098   0.459   4.292 -0.0003 -1.5833 -0.4485
 6792TIP3    H241868   4.949   0.479   4.278  0.0937 -0.1415  0.4758
 6793TIP3   OH241869   2.508   5.693   0.519  0.9482  0.6731 -0.6314
 6793TIP3    H141870   2.467   5.773   0.486 -3.1777 -0.8864  0.4043
 6793TIP3    H241871   2.500   5.630   0.447 -1.4629 -0.5587  0.6299
 6794TIP3   OH241872   4.633   1.775   4.336  0.8852  0.4024 -0.3505
 6794TIP3    H141873   4.645   1.868   4.356  0.4335  0.2038  0.9110
 6794TIP3    H241874   4.606   1.736   4.420 -0.7657 -0.5247 -1.3013
 6795TIP3   OH241875   4.641   2.288  12.107 -0.2985 -0.3426  0.5040
 6795TIP3    H141876   4.564   2.233  12.123 -1.1761  0.6138 -0.3414
 6795TIP3    H241877   4.676   2.257  12.024  2.3305 -3.1174  2.5391
 6796TIP3   OH241878   3.079   1.582  13.751  0.1713  0.2522  0.1897
 6796TIP3    H141879   3.080   1.639  13.674 -0.2285 -0.3520 -0.2727
 6796TIP3    H241880   3.138   1.510  13.728  0.9201  0.6301  0.8956
 6797TIP3   OH241881   2.952   4.516   2.662  0.4069 -0.5294  0.0322
 6797TIP3    H141882   3.030   4.524   2.717 -1.3684  0.9226  2.4908
 6797TIP3    H241883   2.925   4.606   2.645 -1.8411 -0.9903  0.9372
 6798TIP3   OH241884   3.745   6.472  11.650  0.1262  0.1829 -0.5503
 6798TIP3    H141885   3.768   6.427  11.569 -0.7901  2.0766 -1.9144
 6798TIP3    H241886   3.651   6.488  11.643  0.2936  1.6160  0.2151
 6799TIP3   OH241887   3.688   5.268  13.069  0.5424 -0.2577 -0.1187
 6799TIP3    H141888   3.712   5.341  13.127 -0.1590 -0.1444  0.0322
 6799TIP3    H241889   3.771   5.222  13.053  1.2314  1.3386 -1.2739
 6800TIP3   OH241890   0.626   3.472  17.105 -0.2175  0.0383  0.4094
 6800TIP3    H141891   0.720   3.485  17.097  0.1246 -2.7141 -0.5130
 6800TIP3    H241892   0.588   3.559  17.094  2.1896  1.1376  0.6137
 6801TIP3   OH241893   2.319   2.420  16.533  0.2882 -0.7797  0.0935
 6801TIP3    H141894   2.403   2.461  16.554  0.2685 -0.6698 -0.0421
 6801TIP3    H241895   2.279   2.401  16.618  0.1299 -0.1787  0.1535
 6802TIP3   OH241896   4.197   3.369   2.953  0.5025  0.3196 -0.0263
 6802TIP3    H141897   4.224   3.291   2.905 -1.2119 -0.7230  0.6493
 6802TIP3    H241898   4.265   3.382   3.019  1.3298  0.0117 -0.8173
 6803TIP3   OH241899   5.323   4.895  16.059 -0.7476 -0.0654 -0.4953
 6803TIP3    H141900   5.410   4.857  16.053 -0.6655  0.0883 -0.2695
 6803TIP3    H241901   5.325   4.970  15.999 -0.1787  0.9811  0.8237
 6804TIP3   OH241902   3.743   3.147   5.704 -0.0747  0.7268  0.0470
 6804TIP3    H141903   3.711   3.068   5.746 -1.5137  1.5912  0.6275
 6804TIP3    H241904   3.808   3.117   5.641 -2.9360 -1.2231 -2.0690
 6805TIP3   OH241905   6.135   2.801  16.402 -0.4084 -0.2541  0.6436
 6805TIP3    H141906   6.175   2.849  16.474  0.5026  0.9347 -0.6324
 6805TIP3    H241907   6.065   2.859  16.371 -1.7065 -1.3576  1.4387
 6806TIP3   OH241908   5.718   1.295   4.550 -1.0551  0.4864 -0.2574
 6806TIP3    H141909   5.629   1.271   4.575 -1.6363  0.4472 -2.3335
 6806TIP3    H241910   5.716   1.390   4.540 -0.5162  0.6405  0.9943
 6807TIP3   OH241911   3.669   0.844  13.709 -0.4759  0.3359 -0.1993
 6807TIP3    H141912   3.750   0.893  13.727 -0.6725  0.5102  0.2234
 6807TIP3    H241913   3.621   0.900  13.648  0.0247 -0.0811 -0.9753
 6808TIP3   OH241914   3.714   4.518  14.034 -0.0616  0.0186  0.3915
 6808TIP3    H141915   3.667   4.471  14.102 -0.1180  0.9022  0.9658
 6808TIP3    H241916   3.758   4.449  13.984  0.7038 -0.5801  1.8590
 6809TIP3   OH241917   6.324   1.579  17.198 -0.3434  0.0386 -0.4217
 6809TIP3    H141918   6.341   1.620  17.283  0.0056  1.4364 -1.1487
 6809TIP3    H241919   6.390   1.510  17.190 -0.0159  0.2827  0.1917
 6810TIP3   OH241920   0.492   1.115  15.408 -0.0084  0.5449 -0.3459
 6810TIP3    H141921   0.408   1.136  15.368 -0.2700 -0.9183 -0.5968
 6810TIP3    H241922   0.526   1.043  15.355 -0.8607 -2.1968  2.6827
 6811TIP3   OH241923   5.411   0.860   6.160  0.1942  0.3963  0.4213
 6811TIP3    H141924   5.409   0.953   6.137  0.7744  0.5355  0.9159
 6811TIP3    H241925   5.498   0.831   6.134 -0.3111 -0.2333 -0.5768
 6812TIP3   OH241926   0.207   6.594   0.127  0.2097 -0.1754  0.2774
 6812TIP3    H141927   0.268   6.529   0.163 -0.5333 -1.5514 -0.9450
 6812TIP3    H241928   0.237   6.607   0.037 -0.9168 -0.3889 -0.1286
 6813TIP3   OH241929   3.061   5.055  13.912 -0.0704 -0.5836 -0.5485
 6813TIP3    H141930   3.059   4.973  13.862 -0.9416  0.4597 -2.2549
 6813TIP3    H241931   2.971   5.067  13.942  0.4791 -1.3045  1.5154
 6814TIP3   OH241932   2.886   6.518   1.159  0.1245  0.4251 -0.4362
 6814TIP3    H141933   2.960   6.552   1.210 -0.1837  2.6154 -1.3691
 6814TIP3    H241934   2.871   6.430   1.193  2.1504  0.5501  0.8431
 6815TIP3   OH241935   0.482   4.579  11.836 -0.3045  0.2237  0.0495
 6815TIP3    H141936   0.577   4.572  11.848 -0.3301 -2.7578 -1.1547
 6815TIP3    H241937   0.466   4.673  11.830  2.6191  0.7684 -0.1386
 6816TIP3   OH241938   0.424   1.517  11.682  0.0929 -0.2443  0.1287
 6816TIP3    H141939   0.465   1.599  11.656  0.8001  0.2949  2.8926
 6816TIP3    H241940   0.333   1.540  11.700 -0.5101 -0.7016 -2.1601
 6817TIP3   OH241941   4.875   5.417  13.046 -0.0755 -0.4720 -0.3531
 6817TIP3    H141942   4.823   5.484  13.003 -0.9851 -0.1316  1.2399
 6817TIP3    H241943   4.829   5.335  13.028  0.1735 -0.4812 -0.9698
 6818TIP3   OH241944   3.849   6.709  17.205 -0.2363 -0.6116 -0.0303
 6818TIP3    H141945   3.770   6.667  17.239  0.3526 -0.9321  0.9953
 6818TIP3    H241946   3.885   6.755  17.281  0.2926 -0.0544 -0.6169
 6819TIP3   OH241947   4.694   1.622  11.818 -0.2239 -0.4397  0.2652
 6819TIP3    H141948   4.753   1.687  11.855 -1.7887  0.4960  1.1806
 6819TIP3    H241949   4.663   1.660  11.736 -0.6630 -0.2750  0.5007
 6820TIP3   OH241950   4.740   2.035   0.793  0.1343  0.3879 -0.1798
 6820TIP3    H141951   4.705   2.007   0.709 -0.5406  2.4127 -0.6017
 6820TIP3    H241952   4.832   2.009   0.790  1.6081  5.2283 -3.8873
 6821TIP3   OH241953   2.274   4.623   0.514  0.2359  0.5181  0.4659
 6821TIP3    H141954   2.196   4.648   0.564  0.4137  1.5857  0.2094
 6821TIP3    H241955   2.318   4.706   0.494  2.2664 -0.1487  1.9569
 6822TIP3   OH241956   6.233   0.642   4.787 -0.2719  0.1509  0.1250
 6822TIP3    H141957   6.309   0.652   4.729 -1.9010  2.0255 -1.7564
 6822TIP3    H241958   6.159   0.630   4.728 -1.6607 -0.3034  1.9053
 6823TIP3   OH241959   3.333   0.788  11.264 -0.6989  0.0657 -0.4024
 6823TIP3    H141960   3.328   0.845  11.341  1.0215 -0.3313  0.0270
 6823TIP3    H241961   3.243   0.760  11.249 -1.4184  2.0493  0.0243
 6824TIP3   OH241962   3.073   2.330  16.795  0.2678 -0.7141  0.0408
 6824TIP3    H141963   3.159   2.333  16.838  1.3653  2.5323 -2.2015
 6824TIP3    H241964   3.028   2.408  16.825 -1.2073 -1.4111 -0.2797
 6825TIP3   OH241965   3.674   3.210   1.338  0.4089 -0.1610 -0.1772
 6825TIP3    H141966   3.612   3.188   1.268 -0.4470  1.3119  0.1154
 6825TIP3    H241967   3.686   3.304   1.330  0.2328  0.0280  1.7345
 6826TIP3   OH241968   5.454   6.149  15.441 -0.1923  0.5892 -0.1345
 6826TIP3    H141969   5.541   6.156  15.403  0.0354  0.5803  0.3818
 6826TIP3    H241970   5.457   6.205  15.519  0.3843 -2.0173  1.7573
 6827TIP3   OH241971   1.241   2.547  12.377  0.1804  0.0710  0.9549
 6827TIP3    H141972   1.270   2.631  12.412 -0.8516 -0.0460  2.1161
 6827TIP3    H241973   1.154   2.564  12.341  0.4469 -0.2389  0.1665
 6828TIP3   OH241974   1.773   0.426  15.271  0.2488 -0.1313 -0.9058
 6828TIP3    H141975   1.771   0.342  15.224 -0.8960 -0.1759 -0.7833
 6828TIP3    H241976   1.688   0.432  15.313  0.1696  1.3051 -1.2532
 6829TIP3   OH241977   3.224   3.120  11.244 -0.6835 -0.1856  0.1718
 6829TIP3    H141978   3.211   3.085  11.155 -1.6670 -0.6306  0.4799
 6829TIP3    H241979   3.216   3.043  11.300 -1.3464  0.3020  0.7450
 6830TIP3   OH241980   6.095   4.696  14.184  0.1974 -0.0055  0.1720
 6830TIP3    H141981   6.121   4.753  14.256  1.2655 -3.2829  2.4615
 6830TIP3    H241982   6.177   4.669  14.143 -0.0534 -2.6731  1.3373
 6831TIP3   OH241983   1.769   4.953   5.659  0.0180  0.4021  0.0426
 6831TIP3    H141984   1.731   4.990   5.739  0.7949  0.2581  0.4900
 6831TIP3    H241985   1.719   4.993   5.588  0.7494  2.2339  0.5272
 6832TIP3   OH241986   2.107   3.520   2.297 -0.2206  0.4204  0.3201
 6832TIP3    H141987   2.182   3.497   2.352 -0.8802  0.0007  1.0599
 6832TIP3    H241988   2.100   3.615   2.304 -0.2250  0.3822  0.8676
 6833TIP3   OH241989   5.043   6.012  11.846 -0.7893  0.1817  0.0417
 6833TIP3    H141990   5.089   6.092  11.821 -1.9270  0.6278 -0.6860
 6833TIP3    H241991   5.055   6.005  11.940  1.5533 -0.2248 -0.2425
 6834TIP3   OH241992   5.305   3.239   5.856 -0.0671 -0.2394 -0.9319
 6834TIP3    H141993   5.331   3.238   5.764  0.1997 -1.5775 -0.8476
 6834TIP3    H241994   5.357   3.310   5.895  0.2376 -0.0499 -1.6815
 6835TIP3   OH241995   1.211   3.305   4.421  0.2314  0.3312  0.2545
 6835TIP3    H141996   1.276   3.239   4.400  0.1408  0.7622 -1.4324
 6835TIP3    H241997   1.136   3.256   4.455 -0.1830 -0.5161 -1.8310
 6836TIP3   OH241998   3.824   0.615  16.710  0.2055 -0.4642  0.1374
 6836TIP3    H141999   3.755   0.675  16.735  1.3079  0.5213  0.8517
 6836TIP3    H242000   3.895   0.672  16.680  0.9854 -1.4367  0.1310
 6837TIP3   OH242001   0.204   5.571   1.616 -0.6261  0.2274  0.2538
 6837TIP3    H142002   0.266   5.504   1.589 -1.8657 -0.2058 -1.5893
 6837TIP3    H242003   0.185   5.551   1.707  0.3073 -0.9035  0.2126
 6838TIP3   OH242004   0.402   0.031  12.602 -0.3217  0.2618  0.3393
 6838TIP3    H142005   0.445  -0.015  12.530  0.1758  0.5776  0.4305
 6838TIP3    H242006   0.439  -0.009  12.681 -2.5600 -1.6819  0.4526
 6839TIP3   OH242007   5.684   3.923   5.037 -0.1078  0.0911  0.0183
 6839TIP3    H142008   5.592   3.922   5.012  0.1690 -0.7981 -0.9966
 6839TIP3    H242009   5.724   3.990   4.982 -0.2016  0.7069  0.6892
 6840TIP3   OH242010   6.575   4.012   5.713  0.4114  0.4289  0.1971
 6840TIP3    H142011   6.507   4.065   5.672 -0.5121 -0.6545  0.3276
 6840TIP3    H242012   6.528   3.952   5.771  1.5008 -0.0550  0.5992
 6841TIP3   OH242013   4.643   0.892   3.426  0.1181 -0.3605 -0.0001
 6841TIP3    H142014   4.733   0.898   3.457  0.4904  2.4045 -1.4995
 6841TIP3    H242015   4.590   0.926   3.498  0.4220 -0.2654  0.1776
 6842TIP3   OH242016   2.964   6.033  14.099 -0.3460  0.1929 -0.4634
 6842TIP3    H142017   2.913   6.088  14.039 -1.0680 -0.4155 -0.4096
 6842TIP3    H242018   3.027   5.987  14.043  1.0800  1.9734 -0.3663
 6843TIP3   OH242019   1.151   3.623  14.591  0.6709 -0.0922 -0.5723
 6843TIP3    H142020   1.093   3.547  14.587  1.7090 -1.0731  1.7248
 6843TIP3    H242021   1.094   3.697  14.609  0.1430 -1.1910  2.6593
 6844TIP3   OH242022   3.116   6.402  12.254 -0.2754  0.0562  0.4100
 6844TIP3    H142023   3.041   6.413  12.195  0.6645 -0.6773 -0.9418
 6844TIP3    H242024   3.122   6.486  12.300 -0.1739  1.1769 -1.5661
 6845TIP3   OH242025   3.501   5.968  11.326  0.2219 -0.3301  0.1172
 6845TIP3    H142026   3.580   5.994  11.373 -0.9723 -0.5343  2.3095
 6845TIP3    H242027   3.493   5.874  11.341 -1.3630 -0.0168  1.4094
 6846TIP3   OH242028   6.765   2.476   2.366  0.1296  0.1651  0.0299
 6846TIP3    H142029   6.805   2.556   2.399  1.6281  0.9060 -3.3477
 6846TIP3    H242030   6.774   2.412   2.437  0.0780  2.5998  2.2673
 6847TIP3   OH242031   3.206   6.545  13.375  0.5465  0.0214 -0.1813
 6847TIP3    H142032   3.277   6.604  13.400 -0.0378  0.3288  0.7647
 6847TIP3    H242033   3.197   6.485  13.450 -0.6635  0.4341  0.0072
 6848TIP3   OH242034   3.425   1.721  11.934 -0.1342 -0.1700  0.6484
 6848TIP3    H142035   3.518   1.739  11.920 -0.3567 -0.7281 -1.7529
 6848TIP3    H242036   3.382   1.755  11.856 -1.9286 -0.2587  1.5667
 6849TIP3   OH242037   3.237   3.494  11.059  0.3772  0.2081 -0.0311
 6849TIP3    H142038   3.256   3.451  10.976  0.3440  1.2106 -0.5638
 6849TIP3    H242039   3.160   3.449  11.093  0.6541 -0.4938 -0.3256
 6850TIP3   OH242040   4.590   4.661   6.102 -0.0645 -0.2809  0.4909
 6850TIP3    H142041   4.640   4.602   6.158 -1.7638 -1.9224  0.3190
 6850TIP3    H242042   4.640   4.663   6.020  0.1112 -1.3501  0.5566
 6851TIP3   OH242043   3.909   5.592   3.920 -0.2795  0.1314 -0.2093
 6851TIP3    H142044   3.996   5.617   3.889 -0.5335 -1.3008 -2.1498
 6851TIP3    H242045   3.855   5.670   3.904 -0.0198 -0.0020 -1.8035
 6852TIP3   OH242046   0.652   6.467  11.637 -0.1946  0.1150  0.6318
 6852TIP3    H142047   0.593   6.435  11.569 -0.3089  1.4991  0.0597
 6852TIP3    H242048   0.705   6.391  11.660 -0.9221 -0.6624 -0.2000
 6853TIP3   OH242049   0.963   3.172   4.445 -0.1538  0.3014  0.3915
 6853TIP3    H142050   0.896   3.219   4.395 -0.5144 -0.3815  0.2355
 6853TIP3    H242051   0.948   3.080   4.426 -0.3231  0.0302  1.7874
 6854TIP3   OH242052   1.357   6.549  12.982 -0.3395 -0.2043  0.1621
 6854TIP3    H142053   1.359   6.623  12.921 -2.2125 -1.9889 -2.1598
 6854TIP3    H242054   1.346   6.472  12.926  0.3366 -2.1392  2.6172
 6855TIP3   OH242055   6.245   1.871  14.038 -0.1692 -0.6093  0.1399
 6855TIP3    H142056   6.291   1.868  13.954  3.8803  0.9973  2.1290
 6855TIP3    H242057   6.255   1.783  14.074  2.5096 -0.0109  1.0218
 6856TIP3   OH242058   3.438   3.096   2.272 -0.0631  0.3479  0.3650
 6856TIP3    H142059   3.383   3.018   2.266  1.1475 -0.4519 -0.5385
 6856TIP3    H242060   3.431   3.138   2.186  0.8502  0.1480  0.1809
 6857TIP3   OH242061   3.454   1.794  12.305 -0.7340  0.6956 -0.1671
 6857TIP3    H142062   3.393   1.724  12.283 -0.5438  0.1719  0.9339
 6857TIP3    H242063   3.447   1.855  12.232  0.3719 -1.2990 -2.0339
 6858TIP3   OH242064   1.377   2.470   0.302  0.1843  0.1175 -0.6619
 6858TIP3    H142065   1.387   2.450   0.208 -3.2675  0.4528 -1.1387
 6858TIP3    H242066   1.343   2.389   0.340  3.8837 -0.8510  0.8490
 6859TIP3   OH242067   2.045   3.691   3.369  0.3593  0.4489  0.1004
 6859TIP3    H142068   1.950   3.680   3.361  0.5240 -0.5263 -0.6805
 6859TIP3    H242069   2.077   3.603   3.386  1.1139  0.8143  0.5720
 6860TIP3   OH242070   0.578   1.256   4.489 -0.3059  0.1409  0.1058
 6860TIP3    H142071   0.649   1.274   4.427  0.9425 -3.3211  0.4062
 6860TIP3    H242072   0.512   1.210   4.438 -0.1456 -0.9784  0.8883
 6861TIP3   OH242073   2.483   5.734   5.783 -0.6622  0.3405  0.3406
 6861TIP3    H142074   2.572   5.764   5.804  0.0997 -1.2091 -0.6029
 6861TIP3    H242075   2.483   5.724   5.688 -0.9724 -2.3015  0.5806
 6862TIP3   OH242076   0.580   3.841   2.303  0.0467 -0.1672  0.3726
 6862TIP3    H142077   0.637   3.770   2.274 -0.0313 -0.2012  0.3031
 6862TIP3    H242078   0.615   3.919   2.259  0.1643 -0.1534  0.4903
 6863TIP3   OH242079   2.830   2.403   2.397 -0.6267 -0.0468  0.7023
 6863TIP3    H142080   2.806   2.412   2.305  3.7227  2.1349 -0.3808
 6863TIP3    H242081   2.807   2.487   2.436 -1.5108 -0.5955  1.3667
 6864TIP3   OH242082   1.318   2.336  15.664  0.0111 -0.0943 -0.8854
 6864TIP3    H142083   1.260   2.323  15.589 -3.0778  0.7816  1.2671
 6864TIP3    H242084   1.312   2.254  15.713  0.7784 -0.0576 -0.7181
 6865TIP3   OH242085   1.727   1.634  12.960  0.0718 -0.4927 -0.2920
 6865TIP3    H142086   1.812   1.672  12.982  0.4618 -1.2976 -0.3777
 6865TIP3    H242087   1.726   1.631  12.864  0.5474 -1.8011 -0.2637
 6866TIP3   OH242088   5.008   4.595  11.333 -0.3108  0.1504 -0.0052
 6866TIP3    H142089   5.001   4.683  11.371 -3.5850  0.3015 -0.8105
 6866TIP3    H242090   4.924   4.554  11.352 -0.0066 -1.6966 -2.4012
 6867TIP3   OH242091   2.013   2.464  12.339 -0.2885 -0.4701 -0.4117
 6867TIP3    H142092   1.952   2.454  12.413 -1.6022 -2.2264 -1.6644
 6867TIP3    H242093   2.045   2.554  12.346 -2.6297  0.3300  0.6057
 6868TIP3   OH242094   1.552   5.587  12.948 -0.3382 -1.0331  0.1519
 6868TIP3    H142095   1.578   5.561  13.036 -1.6512 -0.2893  0.7798
 6868TIP3    H242096   1.517   5.676  12.958 -1.1498 -1.1997 -0.9891
 6869TIP3   OH242097   6.802   0.432   4.359 -0.1433  0.5693  0.4036
 6869TIP3    H142098   6.857   0.449   4.435 -0.6832  1.8170  0.5250
 6869TIP3    H242099   6.724   0.389   4.395 -0.0192  0.3781  0.4455
 6870TIP3   OH242100   0.584   5.028  13.766 -0.2043  0.2500  0.0071
 6870TIP3    H142101   0.554   5.101  13.712 -0.0995 -0.1845 -0.6426
 6870TIP3    H242102   0.674   5.012  13.738 -0.0813  0.1530  0.4505
 6871TIP3   OH242103   6.721   5.030   4.079 -0.1860  0.2714 -0.3809
 6871TIP3    H142104   6.714   5.098   4.146  1.8503 -0.0412  0.1712
 6871TIP3    H242105   6.683   5.070   4.001  0.7975  2.0031 -0.0114
 6872TIP3   OH242106   0.589   3.542   6.347  0.0302 -0.4824 -0.0546
 6872TIP3    H142107   0.569   3.604   6.417 -1.4226 -1.6475  0.5879
 6872TIP3    H242108   0.585   3.456   6.389 -0.2651 -1.1593 -1.4386
 6873TIP3   OH242109   3.853   0.859   0.539  0.1738  0.0164 -0.0031
 6873TIP3    H142110   3.773   0.900   0.573  0.1723  1.2650 -1.4531
 6873TIP3    H242111   3.875   0.792   0.604 -0.6861  1.2870  1.6525
 6874TIP3   OH242112   2.002   5.529   5.095  0.6406 -0.1633  0.4811
 6874TIP3    H142113   2.083   5.514   5.046  1.6540 -2.8270  2.7743
 6874TIP3    H242114   1.983   5.444   5.135 -1.3769  1.3051  2.7945
 6875TIP3   OH242115   4.442   0.102  10.672  0.5723  0.5692  0.3434
 6875TIP3    H142116   4.357   0.138  10.648  0.1949  0.8946  2.1099
 6875TIP3    H242117   4.464   0.144  10.755  1.7928 -0.5776  0.6313
 6876TIP3   OH242118   2.405   5.078  15.016 -0.6103  0.0676  0.7589
 6876TIP3    H142119   2.393   4.992  14.976  0.4620  0.5092 -0.5431
 6876TIP3    H242120   2.496   5.101  14.997 -0.7779  1.3369  1.4231
 6877TIP3   OH242121   0.730   0.043   4.682  0.1533  0.1669 -0.2473
 6877TIP3    H142122   0.776   0.110   4.733  0.0824 -0.5292  0.7429
 6877TIP3    H242123   0.768  -0.040   4.711 -3.2333 -0.6234  2.2898
 6878TIP3   OH242124   3.337   3.258   4.029 -0.6656 -0.5419  0.0847
 6878TIP3    H142125   3.309   3.330   3.973 -0.2002 -1.6346 -1.5910
 6878TIP3    H242126   3.401   3.297   4.089 -2.8553  1.1372  1.3990
 6879TIP3   OH242127   4.634   4.931   1.654 -0.0407  0.1400 -0.3303
 6879TIP3    H142128   4.663   4.967   1.738 -1.1966  1.5559 -0.5186
 6879TIP3    H242129   4.688   4.976   1.589 -0.3238  0.2973 -0.4559
 6880TIP3   OH242130   6.771   3.949  14.451  0.2081 -0.4182  0.3507
 6880TIP3    H142131   6.705   3.953  14.520  0.1575 -1.1497  0.3408
 6880TIP3    H242132   6.806   4.038  14.447  0.4409 -0.4438  1.5522
 6881TIP3   OH242133   3.540   0.718   3.974 -1.0333 -0.0898 -0.4792
 6881TIP3    H142134   3.551   0.671   3.892 -1.5595  1.5188 -1.4836
 6881TIP3    H242135   3.447   0.739   3.978 -0.9239  0.2969  0.2711
 6882TIP3   OH242136   1.293   4.379   3.663  0.1978  0.1241  0.0111
 6882TIP3    H142137   1.221   4.419   3.712 -0.2556 -0.5769 -0.0806
 6882TIP3    H242138   1.280   4.408   3.573  0.1684  0.1852  0.0348
 6883TIP3   OH242139   5.463   5.737  13.539  0.0059 -0.3591  0.2949
 6883TIP3    H142140   5.438   5.695  13.621 -3.4291 -0.8660 -0.9279
 6883TIP3    H242141   5.484   5.665  13.480 -3.4309 -0.3769 -1.0312
 6884TIP3   OH242142   1.730   4.370   4.065  0.2192 -0.0430  0.1356
 6884TIP3    H142143   1.788   4.300   4.035  0.9714  0.9237 -0.7059
 6884TIP3    H242144   1.690   4.336   4.145  0.7004 -1.3642 -0.1767
 6885TIP3   OH242145   0.497   3.184   3.742 -0.2057  0.4079  0.0686
 6885TIP3    H142146   0.495   3.182   3.646 -1.4584 -1.2498  0.1130
 6885TIP3    H242147   0.470   3.273   3.765  1.3890  1.2304 -1.1303
 6886TIP3   OH242148   5.787   2.726   0.392  0.0244 -0.7752  0.1399
 6886TIP3    H142149   5.831   2.811   0.390 -2.4575  0.5323 -0.3611
 6886TIP3    H242150   5.762   2.714   0.484  0.6337 -1.1228  0.2655
 6887TIP3   OH242151   6.150   5.872  13.082  0.0469 -0.3028 -0.1636
 6887TIP3    H142152   6.231   5.920  13.064 -0.1477 -0.4759 -1.5306
 6887TIP3    H242153   6.174   5.780  13.076  0.1285 -0.3840  1.1919
 6888TIP3   OH242154   3.593   3.103   4.179 -0.2736 -0.6476 -0.4169
 6888TIP3    H142155   3.516   3.159   4.190 -0.3567 -1.1473  1.7285
 6888TIP3    H242156   3.591   3.044   4.254  2.2370 -0.6133 -0.2775
 6889TIP3   OH242157   5.724   1.493  16.765 -0.3968 -0.6698  0.8446
 6889TIP3    H142158   5.696   1.565  16.708 -0.7075 -0.9353  0.6599
 6889TIP3    H242159   5.658   1.425  16.751 -0.7130 -0.5647  1.8522
 6890TIP3   OH242160   0.979   4.126   6.377 -0.0252 -0.3509 -0.7092
 6890TIP3    H142161   1.070   4.148   6.396  0.2468 -1.3027 -0.8794
 6890TIP3    H242162   0.929   4.203   6.404  0.9923  0.8764 -2.2564
 6891TIP3   OH242163   5.980   5.938   6.429  0.5695 -0.4873 -0.5391
 6891TIP3    H142164   6.019   5.895   6.505  1.4310  2.3202  0.6613
 6891TIP3    H242165   5.885   5.926   6.441  0.7703 -1.6146  0.0069
 6892TIP3   OH242166   3.064   0.366  10.648  0.2260  0.0930  0.4573
 6892TIP3    H142167   3.018   0.301  10.596 -0.1599  0.2421  0.6159
 6892TIP3    H242168   2.996   0.414  10.695  0.5513  0.1600  0.8698
 6893TIP3   OH242169   2.960   6.709  11.035  0.2980  0.6338 -0.0950
 6893TIP3    H142170   2.982   6.798  11.060  0.4304  0.9396 -1.2512
 6893TIP3    H242171   2.960   6.711  10.939  1.7696 -0.9445 -0.1628
 6894TIP3   OH242172   4.728   2.204   2.748 -0.3835 -0.0319  0.0200
 6894TIP3    H142173   4.777   2.207   2.830 -1.1997 -2.9269  0.6758
 6894TIP3    H242174   4.693   2.115   2.745 -0.5464  0.1093 -3.3785
 6895TIP3   OH242175   1.609   2.420  13.956 -0.1634 -0.2033  0.3284
 6895TIP3    H142176   1.538   2.406  14.019  0.3362 -0.0572  0.9245
 6895TIP3    H242177   1.668   2.480  14.000  1.1766 -1.6171  0.4778
 6896TIP3   OH242178   1.541   2.666  14.961 -0.0478  0.2522  0.5591
 6896TIP3    H142179   1.581   2.582  14.986 -0.4838 -0.2873 -0.5338
 6896TIP3    H242180   1.447   2.647  14.955  0.0532  0.3328 -1.5960
 6897TIP3   OH242181   2.016   2.164  13.542  0.1083  0.3103 -0.0449
 6897TIP3    H142182   2.049   2.114  13.468  0.5293  1.4110 -0.6023
 6897TIP3    H242183   1.925   2.184  13.520 -0.2110 -0.6280  0.4024
 6898TIP3   OH242184   4.521   1.906   5.700 -0.1143  0.1406 -0.2555
 6898TIP3    H142185   4.550   1.985   5.744 -0.7048  1.1047 -1.5527
 6898TIP3    H242186   4.431   1.892   5.730 -0.2992  0.4368 -0.6730
 6899TIP3   OH242187   5.485   0.330  16.653  0.0044  0.2015 -0.1107
 6899TIP3    H142188   5.560   0.359  16.705  0.7144  0.7716 -1.4194
 6899TIP3    H242189   5.498   0.236  16.643  1.1928  0.4766 -1.3129
 6900TIP3   OH242190   4.390   6.632   1.263 -0.0102  0.1834  0.4509
 6900TIP3    H142191   4.405   6.608   1.172  1.0051 -1.4155  1.0115
 6900TIP3    H242192   4.392   6.548   1.310 -0.9995  0.9385  1.8754
 6901TIP3   OH242193   3.657   2.021  11.203 -0.6507  0.0821  0.9000
 6901TIP3    H142194   3.572   2.052  11.171 -0.2912  1.7633  1.5202
 6901TIP3    H242195   3.697   2.098  11.243  0.6798 -0.9815  1.6546
 6902TIP3   OH242196   4.176   2.059  13.241  0.8721 -0.5012 -0.1112
 6902TIP3    H142197   4.271   2.069  13.251  1.0771 -0.9350 -1.5380
 6902TIP3    H242198   4.143   2.149  13.231  0.9245 -0.2273  2.0353
 6903TIP3   OH242199   1.773   4.719   0.473 -0.4359  0.2636 -1.1540
 6903TIP3    H142200   1.800   4.810   0.486  1.2562 -0.0505 -2.2656
 6903TIP3    H242201   1.708   4.724   0.402 -0.9454  0.6854 -0.6650
 6904TIP3   OH242202   6.308   3.206   5.946 -0.2728 -0.7103  0.0727
 6904TIP3    H142203   6.313   3.110   5.948 -0.0718 -0.6980  0.1871
 6904TIP3    H242204   6.371   3.231   5.878  0.9999 -0.5670  1.2861
 6905TIP3   OH242205   6.638   1.200  13.743 -0.3123  0.2409  0.1811
 6905TIP3    H142206   6.712   1.159  13.786  0.1218  0.0671 -0.7150
 6905TIP3    H242207   6.561   1.156  13.779  0.1384 -1.2491 -0.6598
 6906TIP3   OH242208   0.548   3.973   4.594 -0.1939  0.0546  0.0962
 6906TIP3    H142209   0.495   3.895   4.609 -2.0963  1.1242 -0.9101
 6906TIP3    H242210   0.615   3.945   4.533  0.0407 -1.1657  0.8978
 6907TIP3   OH242211   0.056   3.365  11.382  0.4294  0.2391  0.4561
 6907TIP3    H142212   0.023   3.410  11.305  1.0547  1.0152  0.6396
 6907TIP3    H242213   0.087   3.435  11.439  1.2259 -0.4170  0.8289
 6908TIP3   OH242214   3.555   6.111   2.985 -0.1762  0.3501  0.4388
 6908TIP3    H142215   3.609   6.187   2.960  0.5672 -0.1284  0.5797
 6908TIP3    H242216   3.543   6.120   3.079 -0.1441  0.3301  0.4446
 6909TIP3   OH242217   6.483   0.465   2.773  0.4012 -0.5816 -0.5097
 6909TIP3    H142218   6.462   0.558   2.778  0.5600 -0.5187 -0.9755
 6909TIP3    H242219   6.558   0.453   2.830 -0.6508 -0.7322  0.8662
 6910TIP3   OH242220   5.204   3.086   1.734 -0.2901  0.5537  0.5950
 6910TIP3    H142221   5.228   3.061   1.824 -0.1996  1.9889  0.9834
 6910TIP3    H242222   5.108   3.087   1.735 -0.4109 -3.2197 -0.4106
 6911TIP3   OH242223   2.854   6.245   5.779  0.2053  0.2459  0.0025
 6911TIP3    H142224   2.881   6.195   5.856 -0.4042  0.5057  0.3867
 6911TIP3    H242225   2.771   6.206   5.753 -0.9471  1.9259  1.1039
 6912TIP3   OH242226   5.839   0.360  14.642  0.2912  0.1195  0.2312
 6912TIP3    H142227   5.790   0.440  14.621  1.4912 -0.0182 -3.3385
 6912TIP3    H242228   5.914   0.391  14.694  0.5493  1.2708 -0.8110
 6913TIP3   OH242229   4.695   0.086  15.298 -0.8646  0.0317  0.2308
 6913TIP3    H142230   4.756   0.158  15.314  0.9803 -1.5052  0.2388
 6913TIP3    H242231   4.637   0.086  15.375  0.3430  0.2981  1.1471
 6914TIP3   OH242232   6.367   4.203   5.657  0.1787 -0.1734  0.3306
 6914TIP3    H142233   6.359   4.181   5.750 -0.7815 -0.8631  0.0940
 6914TIP3    H242234   6.353   4.297   5.653  0.4810 -0.1048  0.9212
 6915TIP3   OH242235   3.608   2.100  12.492 -1.2123  0.5506 -0.3787
 6915TIP3    H142236   3.529   2.075  12.443 -1.1165 -1.1156  0.2820
 6915TIP3    H242237   3.599   2.054  12.576  0.6919 -0.0382 -0.4855
 6916TIP3   OH242238   0.530   3.193  14.584  0.0020 -1.0729 -0.4984
 6916TIP3    H142239   0.572   3.198  14.499  0.0159 -0.3178 -0.4504
 6916TIP3    H242240   0.536   3.282  14.619 -0.1946 -1.3281  0.1952
 6917TIP3   OH242241   6.198   6.273  15.186  0.7740  0.2005  0.0806
 6917TIP3    H142242   6.275   6.298  15.136  0.8176  1.1077  0.5916
 6917TIP3    H242243   6.181   6.183  15.160  1.6834  0.1716 -0.4388
 6918TIP3   OH242244   2.305   2.565   3.456  0.8208 -0.6004 -0.1344
 6918TIP3    H142245   2.368   2.492   3.463  1.0163 -0.5010 -0.7900
 6918TIP3    H242246   2.282   2.567   3.363  1.5794  0.8061 -0.3085
 6919TIP3   OH242247   4.304   6.125   0.722  0.6334  0.1865 -0.2411
 6919TIP3    H142248   4.345   6.040   0.738  0.6577  0.7687  3.1024
 6919TIP3    H242249   4.360   6.166   0.656  1.8949 -1.4823 -0.2590
 6920TIP3   OH242250   0.727   6.033   3.968  0.0652  0.1766 -0.1092
 6920TIP3    H142251   0.728   6.034   4.064  0.9722  2.4159 -0.1066
 6920TIP3    H242252   0.686   5.950   3.945  1.1907 -1.0510  2.2047
 6921TIP3   OH242253   4.134   0.348   0.065 -0.5949  0.0082 -0.2460
 6921TIP3    H142254   4.112   0.383   0.151 -0.7439 -0.0886 -0.2434
 6921TIP3    H242255   4.219   0.308   0.076 -1.1104 -0.9918  0.1381
 6922TIP3   OH242256   3.332   2.454  16.627  0.5136 -0.3956  0.0722
 6922TIP3    H142257   3.279   2.510  16.683  1.2106  1.1967 -0.8362
 6922TIP3    H242258   3.422   2.479  16.646  0.7623  0.2745 -1.8269
 6923TIP3   OH242259   0.746   6.719   6.635  0.0617  0.0684 -0.3295
 6923TIP3    H142260   0.726   6.744   6.545  0.0397 -0.4314 -0.4637
 6923TIP3    H242261   0.766   6.802   6.679  0.2092  0.2999 -0.8282
 6924TIP3   OH242262   5.758   2.363  16.894 -0.8288  0.0889  0.4473
 6924TIP3    H142263   5.689   2.303  16.865 -1.1109  0.9170 -0.6300
 6924TIP3    H242264   5.822   2.307  16.937 -1.7874 -0.7950  0.7496
 6925TIP3   OH242265   5.774   6.618   3.125 -0.4223 -0.0591 -0.4468
 6925TIP3    H142266   5.757   6.533   3.164  1.0410 -0.5132 -0.7625
 6925TIP3    H242267   5.762   6.605   3.031 -1.9101  0.5286 -0.3603
 6926TIP3   OH242268   1.445   6.082  16.338 -0.4646 -0.4878  0.9088
 6926TIP3    H142269   1.425   6.004  16.391 -0.0984 -0.7568  0.6569
 6926TIP3    H242270   1.391   6.151  16.376  0.0924 -0.5731  1.9070
 6927TIP3   OH242271   3.135   4.710   1.028 -0.0439  0.3220 -0.0769
 6927TIP3    H142272   3.099   4.695   1.116  0.0796 -0.1577 -0.1069
 6927TIP3    H242273   3.218   4.661   1.028  0.4239  1.1054 -0.1361
 6928TIP3   OH242274   0.434   2.659  12.836 -0.6501  0.2036 -0.3485
 6928TIP3    H142275   0.385   2.629  12.912  2.2960 -1.2215  1.0267
 6928TIP3    H242276   0.410   2.598  12.766  0.1975 -1.3206  0.6768
 6929TIP3   OH242277   4.335   1.159   2.496 -0.4261 -0.4876  0.0716
 6929TIP3    H142278   4.374   1.134   2.580  0.5901 -1.7442 -0.7577
 6929TIP3    H242279   4.242   1.136   2.506 -0.9044  1.9797  1.8346
 6930TIP3   OH242280   6.392   2.893   4.095 -0.6210  0.0736  0.7397
 6930TIP3    H142281   6.328   2.942   4.146 -0.7802  1.1024 -0.4230
 6930TIP3    H242282   6.464   2.955   4.081 -0.4283 -0.3045  0.0083
 6931TIP3   OH242283   4.035   0.837  16.699  0.1022 -0.0648  0.3798
 6931TIP3    H142284   4.041   0.904  16.630  1.4156 -0.7269 -0.1617
 6931TIP3    H242285   3.982   0.878  16.768 -1.4659  0.5103 -1.1206
 6932TIP3   OH242286   2.572   4.898  13.775  0.3794 -0.5968 -0.1018
 6932TIP3    H142287   2.596   4.975  13.723 -1.0455 -1.0462 -1.4555
 6932TIP3    H242288   2.556   4.933  13.863  0.1971  0.5755 -0.5873
 6933TIP3   OH242289   6.510   6.234  13.579 -0.2948 -0.2128 -1.0306
 6933TIP3    H142290   6.580   6.186  13.623 -0.7347 -0.6071 -0.7452
 6933TIP3    H242291   6.487   6.304  13.640 -0.7036 -0.5795 -0.7592
 6934TIP3   OH242292   6.322   4.663   1.425  0.1642 -0.5559 -0.2316
 6934TIP3    H142293   6.251   4.604   1.453  0.9325 -1.7406 -0.7643
 6934TIP3    H242294   6.350   4.706   1.506 -1.8205  0.6635 -0.1624
 6935TIP3   OH242295   0.402   5.333   2.927  0.6257 -0.2576 -1.0199
 6935TIP3    H142296   0.352   5.373   2.999  1.5309 -1.0310  0.0506
 6935TIP3    H242297   0.366   5.245   2.919  1.5144 -0.6766 -0.5203
 6936TIP3   OH242298   2.760   1.590  11.507  0.3674  0.3276  0.7394
 6936TIP3    H142299   2.716   1.602  11.423 -0.9589  0.7777  1.4776
 6936TIP3    H242300   2.739   1.500  11.532  2.6709 -0.5719 -0.4761
 6937TIP3   OH242301   3.486   1.661   1.414 -0.6222 -0.3251  0.1726
 6937TIP3    H142302   3.394   1.685   1.401 -0.9443  0.5491  3.5476
 6937TIP3    H242303   3.499   1.667   1.509  2.7929 -0.9436 -0.1922
 6938TIP3   OH242304   5.327   6.284   2.617  0.0879 -0.2632  0.0613
 6938TIP3    H142305   5.249   6.229   2.626  0.0636 -0.2730 -0.2258
 6938TIP3    H242306   5.295   6.374   2.625  0.0889 -0.2773  0.2358
 6939TIP3   OH242307   3.726   0.443  14.663 -0.1504  0.1299 -0.1813
 6939TIP3    H142308   3.746   0.350  14.663 -0.7474 -0.0121  1.1460
 6939TIP3    H242309   3.806   0.486  14.694 -0.3117 -0.0409  0.4619
 6940TIP3   OH242310   6.071   4.731  12.019 -0.2608 -0.1871  0.1853
 6940TIP3    H142311   6.052   4.744  11.926 -0.1697 -0.3743  0.1408
 6940TIP3    H242312   5.998   4.771  12.065  0.6105  1.5901  0.0715
 6941TIP3   OH242313   2.287   3.048   2.733  0.0672  0.4882  0.0420
 6941TIP3    H142314   2.356   3.114   2.742 -0.2450  0.6715  1.1269
 6941TIP3    H242315   2.207   3.093   2.757 -0.3265  0.0513 -0.4493
 6942TIP3   OH242316   5.213   3.495  17.217  0.0224 -0.0094 -0.0802
 6942TIP3    H142317   5.171   3.411  17.204  0.5929 -0.1812 -0.7980
 6942TIP3    H242318   5.163   3.536  17.288 -1.5077 -0.1052 -1.0777
 6943TIP3   OH242319   5.115   4.946  14.688  0.6656 -0.5273  0.0947
 6943TIP3    H142320   5.195   4.946  14.636  0.8699  0.9870  0.3946
 6943TIP3    H242321   5.096   4.853  14.703  1.2133 -0.9582 -1.7236
 6944TIP3   OH242322   0.682   3.451  12.438 -0.1609 -0.6003 -0.3036
 6944TIP3    H142323   0.616   3.488  12.497 -0.0804  0.4058 -0.8365
 6944TIP3    H242324   0.761   3.502  12.454 -0.0961 -0.4172 -1.1649
 6945TIP3   OH242325   4.120   5.375  13.736  1.1328  0.4338 -0.0458
 6945TIP3    H142326   4.146   5.320  13.810  0.1569 -0.0332 -0.0453
 6945TIP3    H242327   4.058   5.322  13.687  2.4028  0.4209 -1.6766
 6946TIP3   OH242328   3.345   6.591  12.546  0.3568 -0.6120  0.0094
 6946TIP3    H142329   3.289   6.531  12.596 -1.1735 -2.2004 -3.4205
 6946TIP3    H242330   3.430   6.547  12.541  0.8485  0.0636  2.0723
 6947TIP3   OH242331   6.099   1.205  11.788 -0.0357 -0.7885 -0.2186
 6947TIP3    H142332   6.054   1.279  11.827  0.6790  1.2337 -3.0828
 6947TIP3    H242333   6.184   1.202  11.833  0.2408  0.6414 -0.6132
 6948TIP3   OH242334   2.390   0.904  10.959 -0.4937  1.0028 -0.1012
 6948TIP3    H142335   2.410   0.819  10.921 -2.0595 -0.1037  1.4481
 6948TIP3    H242336   2.471   0.931  11.002 -0.0259  0.2498 -0.5075
 6949TIP3   OH242337   5.871   5.327  16.793  0.2396  0.4764  0.4245
 6949TIP3    H142338   5.934   5.307  16.862  1.3417  0.5667 -0.5259
 6949TIP3    H242339   5.858   5.244  16.747 -0.5616  0.3932  0.7890
 6950TIP3   OH242340   4.601   6.410  15.727  0.4872  0.2712  0.1546
 6950TIP3    H142341   4.671   6.395  15.663  0.2529  0.0142 -0.0376
 6950TIP3    H242342   4.555   6.487  15.695 -0.7146 -0.8699 -0.9237
 6951TIP3   OH242343   2.048   0.034   3.933  0.3005  0.1305 -0.1606
 6951TIP3    H142344   1.971  -0.020   3.915  1.0251 -0.5095 -1.4645
 6951TIP3    H242345   2.069   0.018   4.024 -0.2886 -0.7650 -0.1796
 6952TIP3   OH242346   1.233   5.327   4.750 -0.2713 -0.6709  0.6290
 6952TIP3    H142347   1.261   5.360   4.665  0.4360 -0.2846  1.0097
 6952TIP3    H242348   1.258   5.234   4.749 -0.8464 -0.8201  0.1673
 6953TIP3   OH242349   0.922   6.003   3.787 -0.1818 -0.1492 -0.1312
 6953TIP3    H142350   0.899   6.041   3.703  1.0604  3.7440  1.1920
 6953TIP3    H242351   0.869   6.051   3.851  0.2472 -1.7687  1.5138
 6954TIP3   OH242352   4.057   5.693  10.229  0.3799  0.5598  0.0661
 6954TIP3    H142353   4.039   5.778  10.267 -0.6935  0.4243 -0.1108
 6954TIP3    H242354   4.150   5.677  10.246  0.7920  2.1518 -0.6923
 6955TIP3   OH242355   3.471   0.140  16.036  0.5038  0.4467 -0.7341
 6955TIP3    H142356   3.564   0.161  16.030  0.8586 -0.7336  0.3680
 6955TIP3    H242357   3.462   0.062  15.980 -0.0165  1.1525 -1.6348
 6956TIP3   OH242358   6.774   2.312   0.486 -0.0148  0.0421 -0.9011
 6956TIP3    H142359   6.722   2.336   0.563 -0.8683  0.5898 -1.6337
 6956TIP3    H242360   6.864   2.332   0.510 -0.1812 -0.5374  0.2455
 6957TIP3   OH242361   1.126   5.564   5.402 -0.0149 -0.3070 -0.0643
 6957TIP3    H142362   1.168   5.576   5.487 -0.6674 -1.0160  0.3697
 6957TIP3    H242363   1.184   5.608   5.339  1.5545 -1.5778  0.4748
 6958TIP3   OH242364   5.912   3.867  16.433 -0.0541 -0.4382  0.4257
 6958TIP3    H142365   6.002   3.859  16.465  0.3136 -2.2142 -1.0383
 6958TIP3    H242366   5.863   3.803  16.484 -0.0192 -1.1910 -0.4771
 6959TIP3   OH242367   1.065   6.254  11.646  0.5315 -0.3102  0.2570
 6959TIP3    H142368   1.023   6.168  11.650  0.2871 -0.2278 -0.4681
 6959TIP3    H242369   1.063   6.286  11.737 -0.0719 -0.7367  0.4002
 6960TIP3   OH242370   5.509   2.599   1.442  0.4152  0.2050  0.4077
 6960TIP3    H142371   5.474   2.681   1.409 -0.1584  0.2023  0.9914
 6960TIP3    H242372   5.496   2.537   1.370 -2.4591 -0.2389  1.2098
 6961TIP3   OH242373   5.905   1.377   1.176  0.1822 -0.3391  0.4134
 6961TIP3    H142374   5.996   1.392   1.148  0.4194 -1.0236  0.7956
 6961TIP3    H242375   5.912   1.355   1.269 -0.1667 -2.4170 -0.0241
 6962TIP3   OH242376   4.693   1.699   0.365  0.4250  0.4891 -0.6075
 6962TIP3    H142377   4.701   1.741   0.279  1.0009  2.5359  0.4208
 6962TIP3    H242378   4.758   1.743   0.419 -1.1276  0.4139  1.3531
 6963TIP3   OH242379   3.888   3.639  17.048  0.4820  0.4451 -0.2870
 6963TIP3    H142380   3.795   3.653  17.029  0.3200  1.5314  1.2082
 6963TIP3    H242381   3.914   3.566  16.991 -1.7902 -1.2141  0.7352
 6964TIP3   OH242382   1.463   1.174  14.239  0.0435  0.0544  0.5251
 6964TIP3    H142383   1.518   1.096  14.236  0.9289  0.7061 -0.3963
 6964TIP3    H242384   1.378   1.142  14.269  0.8747 -0.9845  1.8570
 6965TIP3   OH242385   2.555   1.664   2.367 -0.4878  0.1218 -0.3779
 6965TIP3    H142386   2.575   1.632   2.279  0.6072  1.2529 -0.5368
 6965TIP3    H242387   2.598   1.602   2.426 -1.0369 -0.5094 -0.6360
 6966TIP3   OH242388   3.685   5.180  16.577 -0.2889  0.3502  0.7660
 6966TIP3    H142389   3.656   5.270  16.561 -0.0234  0.5564  1.4376
 6966TIP3    H242390   3.758   5.189  16.638  1.2130 -0.1603 -0.9152
 6967TIP3   OH242391   6.115   6.744  11.870  0.4729  0.2356  0.0309
 6967TIP3    H142392   6.123   6.823  11.816 -1.9104  1.0275  0.7935
 6967TIP3    H242393   6.033   6.755  11.917  2.0041 -0.9066  3.1018
 6968TIP3   OH242394   2.697   5.699  10.752  0.3161 -0.2113 -0.3784
 6968TIP3    H142395   2.712   5.701  10.846 -2.2522  1.2312  0.0387
 6968TIP3    H242396   2.667   5.610  10.734 -2.1536  0.3618  0.6968
 6969TIP3   OH242397   3.765   1.788   3.895 -0.6049  0.4591  0.3502
 6969TIP3    H142398   3.696   1.726   3.921 -1.3287  0.9626 -0.3681
 6969TIP3    H242399   3.744   1.811   3.805  1.8155 -1.1420 -0.6660
 6970TIP3   OH242400   6.403   4.186  16.888 -0.2701 -0.0534  0.2750
 6970TIP3    H142401   6.350   4.130  16.831 -0.9336  1.2431 -0.4169
 6970TIP3    H242402   6.493   4.158  16.871 -0.4882  0.0263 -1.1162
 6971TIP3   OH242403   5.169   6.712   1.093  0.3130 -0.5760 -0.3513
 6971TIP3    H142404   5.248   6.667   1.062  1.9896  1.2178  1.1047
 6971TIP3    H242405   5.159   6.683   1.184  0.1725  0.3257 -0.0733
 6972TIP3   OH242406   3.764   0.282  14.023  0.4937  0.0794  0.2783
 6972TIP3    H142407   3.719   0.362  13.996  0.6813  0.6745  1.6593
 6972TIP3    H242408   3.853   0.311  14.044  1.2789 -0.9385 -1.6015
 6973TIP3   OH242409   6.018   6.336   3.482  0.3147  0.3172  0.4858
 6973TIP3    H142410   6.059   6.251   3.497  0.3672  0.7259  2.9346
 6973TIP3    H242411   6.084   6.386   3.433  0.6022 -0.7682 -0.2458
 6974TIP3   OH242412   4.979   3.551  15.015  0.0357  0.0176  0.0682
 6974TIP3    H142413   5.060   3.577  14.972 -0.9154  0.4241 -1.5289
 6974TIP3    H242414   4.976   3.456  15.005  0.2605  0.0145  0.0386
 6975TIP3   OH242415   6.706   5.241  13.750 -0.0549  0.6024 -0.3651
 6975TIP3    H142416   6.616   5.223  13.726 -0.0249  1.4866 -1.1586
 6975TIP3    H242417   6.758   5.184  13.692 -0.0928  0.3260 -0.1281
 6976TIP3   OH242418   5.803   3.702   2.443  0.3497  0.1787 -0.1126
 6976TIP3    H142419   5.851   3.621   2.425  2.6937  1.4797  0.1543
 6976TIP3    H242420   5.726   3.673   2.492  0.8088 -1.9599 -0.5926
 6977TIP3   OH242421   1.768   2.607  11.352  0.1209 -0.1532  0.2768
 6977TIP3    H142422   1.853   2.608  11.309 -0.0072  0.5682  0.0279
 6977TIP3    H242423   1.710   2.561  11.291 -0.0643  0.8810 -0.3424
 6978TIP3   OH242424   1.332   3.174   6.470 -0.1840  0.3199  0.1207
 6978TIP3    H142425   1.414   3.148   6.512 -0.8776  0.6021  1.6768
 6978TIP3    H242426   1.351   3.170   6.376  1.7599  0.8926  0.4670
 6979TIP3   OH242427   0.563   2.875   5.953  0.2083  0.0359  0.1590
 6979TIP3    H142428   0.618   2.802   5.926  0.1729 -0.3633  1.1338
 6979TIP3    H242429   0.582   2.944   5.890  1.4542 -0.2663  0.1940
 6980TIP3   OH242430   0.766   4.669   2.129  0.2504 -0.2800  0.0481
 6980TIP3    H142431   0.719   4.722   2.193  0.5160  0.6758 -0.5375
 6980TIP3    H242432   0.851   4.712   2.119  0.6444 -1.0813 -0.0882
 6981TIP3   OH242433   1.956   2.883  15.871 -0.2241  0.1327 -0.0560
 6981TIP3    H142434   1.901   2.943  15.820 -0.1775  1.2758  1.2083
 6981TIP3    H242435   1.957   2.921  15.959 -0.4658 -1.9153  0.8539
 6982TIP3   OH242436   3.388   2.785  16.161 -0.2446  0.0649  0.5023
 6982TIP3    H142437   3.359   2.737  16.239  0.9052  1.0547  1.5583
 6982TIP3    H242438   3.478   2.809  16.180  0.5863 -1.0356 -1.8012
 6983TIP3   OH242439   0.200   5.510   1.889 -0.2218  0.3401  0.4543
 6983TIP3    H142440   0.161   5.546   1.968 -1.2491 -0.2998  0.2530
 6983TIP3    H242441   0.252   5.435   1.920  0.0497  0.5936  0.6132
 6984TIP3   OH242442   1.126   3.658  16.053  0.1572  0.1232 -1.0438
 6984TIP3    H142443   1.087   3.699  16.130  0.6209 -1.2270 -0.0625
 6984TIP3    H242444   1.175   3.584  16.088  1.1609  0.0492 -2.5514
 6985TIP3   OH242445   2.470   2.981  10.625  0.6239 -0.0541  0.0620
 6985TIP3    H142446   2.551   2.982  10.575  0.5911 -0.8363 -0.0179
 6985TIP3    H242447   2.497   2.968  10.716  0.5854 -0.3261  0.0347
 6986TIP3   OH242448   3.064   5.394  15.123  0.0464 -0.4700 -0.0453
 6986TIP3    H142449   3.003   5.330  15.086  0.0739  1.0864 -2.9275
 6986TIP3    H242450   3.150   5.366  15.092  0.7290 -2.0126  3.0763
 6987TIP3   OH242451   5.021   6.188   6.524  0.1831  0.0938 -0.0388
 6987TIP3    H142452   4.935   6.191   6.568  0.1231  0.7565 -0.1929
 6987TIP3    H242453   5.024   6.102   6.483 -0.2575 -0.0765  0.2813
 6988TIP3   OH242454   1.148   5.546  15.834  0.5674 -0.2134  0.7270
 6988TIP3    H142455   1.056   5.538  15.810  0.5095  1.3768  0.3580
 6988TIP3    H242456   1.153   5.516  15.925 -0.4352  0.4315  0.9940
 6989TIP3   OH242457   6.033   3.304   5.286  0.4944 -0.2180 -0.1430
 6989TIP3    H142458   5.971   3.373   5.310  0.6432 -0.2878  0.4706
 6989TIP3    H242459   6.115   3.332   5.327  1.0410  0.2159 -1.4925
 6990TIP3   OH242460   6.786   3.761  12.519 -0.7143  0.0164  0.1512
 6990TIP3    H142461   6.803   3.825  12.450 -0.3888 -0.4603 -0.2067
 6990TIP3    H242462   6.867   3.757  12.570  0.3775 -2.4258 -1.7011
 6991TIP3   OH242463   3.120   0.560   2.372 -0.3656  0.3991  0.0338
 6991TIP3    H142464   3.135   0.465   2.378  1.5890  0.5454 -1.9513
 6991TIP3    H242465   3.144   0.582   2.282 -1.5453  2.6738  0.2547
 6992TIP3   OH242466   3.162   3.981  11.623 -0.2939  0.0905  0.0995
 6992TIP3    H142467   3.172   3.916  11.693 -0.8839  1.7553  1.7619
 6992TIP3    H242468   3.081   3.955  11.578  0.0286 -0.9141  0.0804
 6993TIP3   OH242469   5.345   1.023  12.794 -0.7181  0.2114 -0.4649
 6993TIP3    H142470   5.264   1.044  12.840 -1.0672  0.0732 -1.0257
 6993TIP3    H242471   5.369   0.936  12.826  0.6492  1.3504  1.7454
 6994TIP3   OH242472   6.195   4.091  17.145  0.1393 -0.5252  0.1121
 6994TIP3    H142473   6.166   4.133  17.064  2.2722  3.2786  1.2355
 6994TIP3    H242474   6.284   4.061  17.126  0.4690 -0.0456  0.8908
 6995TIP3   OH242475   3.548   2.054  13.005  0.0256 -0.3293 -0.0507
 6995TIP3    H142476   3.501   1.985  13.052 -0.2618 -0.5903 -0.7055
 6995TIP3    H242477   3.486   2.126  12.999 -0.4587 -0.8302 -1.2868
 6996TIP3   OH242478   6.610   5.902   0.180 -0.5168 -0.4079  0.1096
 6996TIP3    H142479   6.546   5.922   0.248 -2.0727 -1.6911 -0.9517
 6996TIP3    H242480   6.559   5.862   0.110  1.3168 -0.6073 -1.1378
 6997TIP3   OH242481   6.752   2.701  14.119 -0.2485  0.1791  0.3071
 6997TIP3    H142482   6.787   2.613  14.134 -1.4820 -0.3497  0.1652
 6997TIP3    H242483   6.815   2.742  14.059  1.0273 -0.1350  1.4192
 6998TIP3   OH242484   1.251   5.897   1.398  0.1699 -0.1365  0.3446
 6998TIP3    H142485   1.270   5.987   1.371  0.5467 -0.2392  0.2650
 6998TIP3    H242486   1.172   5.873   1.349  0.0644  0.1511  0.3709
 6999TIP3   OH242487   0.840   3.145   3.209 -0.0978  0.3474 -0.0712
 6999TIP3    H142488   0.816   3.054   3.222 -0.9175 -0.0653 -3.8596
 6999TIP3    H242489   0.932   3.143   3.186  0.2515  0.6562  1.2338
 7000TIP3   OH242490   4.646   0.695  11.646 -0.0639  0.6299  0.0038
 7000TIP3    H142491   4.576   0.630  11.641  0.7806 -0.1395 -2.3680
 7000TIP3    H242492   4.630   0.753  11.571  2.7694 -0.5161 -1.5329
 7001TIP3   OH242493   3.677   5.947   0.779  0.3250  0.0656  0.8609
 7001TIP3    H142494   3.661   5.871   0.835  1.7552  0.4307  1.7637
 7001TIP3    H242495   3.713   6.013   0.837 -0.5447  1.3262  0.0011
 7002TIP3   OH242496   6.163   5.323  14.726  0.2633 -0.3092  0.2569
 7002TIP3    H142497   6.253   5.302  14.702  0.6066  0.6542  0.6841
 7002TIP3    H242498   6.166   5.415  14.752 -1.0265  0.0167 -0.6787
 7003TIP3   OH242499   3.501   1.089  16.102 -0.0023 -0.1695  0.0511
 7003TIP3    H142500   3.558   1.045  16.165 -0.8005 -0.6120  0.4722
 7003TIP3    H242501   3.414   1.085  16.142 -1.1441 -3.3392 -2.5248
 7004TIP3   OH242502   1.201   5.006  12.750 -0.2849  0.4749 -0.5558
 7004TIP3    H142503   1.245   5.057  12.682  1.3059 -0.2104 -0.0677
 7004TIP3    H242504   1.233   4.916  12.737 -1.6139 -0.0483 -0.2412
 7005TIP3   OH242505   2.493   3.744  14.441 -0.2435 -0.2477  0.3470
 7005TIP3    H142506   2.471   3.716  14.529 -1.4515 -1.0345 -0.1945
 7005TIP3    H242507   2.521   3.835  14.451  1.8805 -1.0368  1.8428
 7006TIP3   OH242508   6.555   6.493  13.458  0.1734 -0.1186 -0.2924
 7006TIP3    H142509   6.469   6.524  13.488 -0.3553 -0.3672 -1.5207
 7006TIP3    H242510   6.552   6.399  13.474  0.6702  0.0343  0.7426
 7007TIP3   OH242511   1.479   3.795  12.294 -0.4042 -0.1943 -0.6161
 7007TIP3    H142512   1.441   3.709  12.274 -2.4651  0.7850 -1.0065
 7007TIP3    H242513   1.469   3.845  12.214 -3.2124  1.8009  0.9115
 7008TIP3   OH242514   1.108   2.304   4.766 -0.8704  0.3452 -0.2806
 7008TIP3    H142515   1.165   2.379   4.744 -0.2723  0.1928  0.7445
 7008TIP3    H242516   1.162   2.248   4.821 -2.0232  0.2060  0.7341
 7009TIP3   OH242517   1.212   1.659  11.795 -0.0377 -0.1305 -0.7060
 7009TIP3    H142518   1.195   1.730  11.732  0.8981  0.5928 -0.1660
 7009TIP3    H242519   1.201   1.700  11.880 -0.1730 -0.8240 -0.3879
 7010TIP3   OH242520   5.074   1.486   5.463  0.2526 -1.0037  0.0119
 7010TIP3    H142521   5.155   1.459   5.508  0.3920 -0.6676 -0.0375
 7010TIP3    H242522   5.004   1.447   5.514  0.2356  2.0619  2.4308
 7011TIP3   OH242523   0.499   2.327  13.979  0.1222  0.4602 -0.5306
 7011TIP3    H142524   0.471   2.409  14.020  0.6699  1.1665 -1.5440
 7011TIP3    H242525   0.459   2.329  13.892  0.9341  0.1131 -0.9152
 7012TIP3   OH242526   3.281   1.254  14.063 -0.5383 -0.3469 -0.7010
 7012TIP3    H142527   3.324   1.215  13.987  0.0677 -0.9555 -0.0488
 7012TIP3    H242528   3.353   1.280  14.121 -0.9903  0.1945 -0.3793
 7013TIP3   OH242529   3.475   3.658  16.895 -0.1173  0.3397 -0.0016
 7013TIP3    H142530   3.539   3.685  16.829 -0.2547 -0.7492 -0.6012
 7013TIP3    H242531   3.406   3.724  16.891  0.5315  1.0301  0.0270
 7014TIP3   OH242532   3.609   6.761   4.243 -0.1778 -0.0957 -0.3070
 7014TIP3    H142533   3.680   6.713   4.286  0.2384  0.2037 -0.6529
 7014TIP3    H242534   3.614   6.735   4.151  0.1071  0.6730 -0.5157
 7015TIP3   OH242535   5.648   5.081   4.461 -0.1423 -0.0904 -0.1663
 7015TIP3    H142536   5.653   5.133   4.381 -0.6559  0.2805  0.0431
 7015TIP3    H242537   5.577   5.120   4.511  1.0354  0.5111  1.0706
 7016TIP3   OH242538   3.617   2.151  15.771 -0.3270 -0.3069  0.0786
 7016TIP3    H142539   3.697   2.188  15.735  0.4363  0.3598  2.3782
 7016TIP3    H242540   3.553   2.158  15.700  1.2559  0.4931 -1.2930
 7017TIP3   OH242541   1.893   0.471   5.859  0.0966  0.4037  0.3287
 7017TIP3    H142542   1.980   0.438   5.883 -0.6947 -0.2925  2.3629
 7017TIP3    H242543   1.909   0.529   5.784  2.0470 -1.3043 -0.6197
 7018TIP3   OH242544   1.920   1.536  11.504  0.0757  0.4766  0.2440
 7018TIP3    H142545   1.992   1.474  11.498 -0.2766  0.1300 -0.4919
 7018TIP3    H242546   1.928   1.590  11.425 -0.4619  0.4291  0.1498
 7019TIP3   OH242547   1.207   1.554   2.473 -0.2888  0.7142  0.5852
 7019TIP3    H142548   1.276   1.611   2.505 -0.4599  0.3661  1.5911
 7019TIP3    H242549   1.195   1.489   2.542 -3.1480  2.0535  1.4365
 7020TIP3   OH242550   4.435   6.333  13.549 -0.1512 -0.3944  0.1911
 7020TIP3    H142551   4.524   6.306  13.572  0.0765  1.1827  1.2395
 7020TIP3    H242552   4.379   6.284  13.608  0.0272 -1.1717 -0.2707
 7021TIP3   OH242553   3.379   6.536   0.522 -0.1334 -0.8855 -0.3272
 7021TIP3    H142554   3.335   6.501   0.599 -2.2414 -0.1494 -1.1472
 7021TIP3    H242555   3.468   6.556   0.552 -1.5681  1.6309  2.5943
 7022TIP3   OH242556   4.823   5.533   4.019  0.4550  0.1302 -0.0590
 7022TIP3    H142557   4.844   5.551   3.927  1.2183  2.8445  0.6092
 7022TIP3    H242558   4.834   5.438   4.028  0.3648 -0.1715 -2.7569
 7023TIP3   OH242559   1.741   1.737  14.273 -0.9753  0.5677  0.0807
 7023TIP3    H142560   1.715   1.710  14.362  0.2095 -1.2925 -0.1023
 7023TIP3    H242561   1.702   1.670  14.216  0.9279 -0.0704 -0.5074
 7024TIP3   OH242562   6.816   0.424   5.525  0.1907  0.5690  0.1725
 7024TIP3    H142563   6.854   0.511   5.517 -1.8131  1.4933  0.3076
 7024TIP3    H242564   6.737   0.427   5.470 -0.2528 -0.9465  0.6838
 7025TIP3   OH242565   0.244   4.528  16.388  0.1767  0.5122 -0.3307
 7025TIP3    H142566   0.171   4.468  16.404  1.2982 -0.6084  0.7532
 7025TIP3    H242567   0.320   4.470  16.377  1.2698  1.7256  0.6756
 7026TIP3   OH242568   3.860   5.906  16.401  0.3087  0.1109 -0.0191
 7026TIP3    H142569   3.819   5.883  16.485  1.7054  2.1584  1.2990
 7026TIP3    H242570   3.817   5.987  16.375  0.9303  0.2931 -0.4909
 7027TIP3   OH242571   1.235   4.591   0.302  0.4575 -0.3070  0.7419
 7027TIP3    H142572   1.298   4.520   0.305  2.4885  1.4109 -0.2464
 7027TIP3    H242573   1.205   4.593   0.211  0.5712  0.2465  0.7152
 7028TIP3   OH242574   5.052   0.944   6.817  0.2655  0.0503  0.3789
 7028TIP3    H142575   4.984   0.884   6.786  0.4955 -0.8042  1.5071
 7028TIP3    H242576   5.134   0.909   6.780  0.1589  0.8381 -0.6317
 7029TIP3   OH242577   1.725   1.347  14.979 -0.0106  0.5511  0.3865
 7029TIP3    H142578   1.725   1.362  15.073 -3.1579  1.2277  0.3122
 7029TIP3    H242579   1.650   1.396  14.946  0.8310  0.0437 -2.4391
 7030TIP3   OH242580   0.015   3.797  13.892 -0.3961 -0.3439  0.2792
 7030TIP3    H142581  -0.029   3.831  13.970 -0.8842 -0.6270  0.1261
 7030TIP3    H242582   0.091   3.751  13.925  1.2173  2.2895  0.4236
 7031TIP3   OH242583   2.851   4.802  12.065  0.3238  0.1710  0.1322
 7031TIP3    H142584   2.783   4.785  12.000 -0.6843  1.8748  0.6890
 7031TIP3    H242585   2.919   4.738  12.047 -2.5960 -3.4446  1.2913
 7032TIP3   OH242586   1.288   5.038  12.441  0.0475 -0.4251 -0.5358
 7032TIP3    H142587   1.208   5.018  12.392 -0.3098 -0.7544  0.1688
 7032TIP3    H242588   1.356   4.984  12.399 -0.0233  0.1172 -1.3526
 7033TIP3   OH242589   3.654   5.580   0.526  0.8061  0.0756 -0.0561
 7033TIP3    H142590   3.660   5.492   0.562  0.4388  0.3012  0.5629
 7033TIP3    H242591   3.563   5.606   0.542  0.5234  0.0109 -1.5320
 7034TIP3   OH242592   3.529   6.225  11.519  0.8191 -0.0468 -0.0089
 7034TIP3    H142593   3.589   6.201  11.449  1.8219  0.5461  0.6452
 7034TIP3    H242594   3.574   6.198  11.599  0.4067  0.7928  0.5114
 7035TIP3   OH242595   0.981   4.020   5.613  0.3272 -0.6717 -1.1039
 7035TIP3    H142596   0.918   3.983   5.675 -0.3038 -1.0478 -1.9467
 7035TIP3    H242597   0.945   3.998   5.527  2.1134 -1.7532 -1.6030
 7036TIP3   OH242598   3.405   5.758   1.665 -0.3464 -0.3482  0.2696
 7036TIP3    H142599   3.437   5.847   1.678 -2.3624  0.5441 -0.6258
 7036TIP3    H242600   3.333   5.749   1.727 -1.5792 -0.5597 -1.1501
 7037TIP3   OH242601   6.357   5.558   1.395 -0.0543  0.2318 -0.0301
 7037TIP3    H142602   6.320   5.483   1.442  0.6317  0.5250  0.9989
 7037TIP3    H242603   6.430   5.587   1.450  2.2712 -0.8766 -2.4367
 7038TIP3   OH242604   1.637   4.257  13.615  0.2092 -0.9787  0.1660
 7038TIP3    H142605   1.654   4.347  13.643  0.6262 -1.0772  0.2306
 7038TIP3    H242606   1.663   4.254  13.523 -1.0468 -0.6901 -0.2173
 7039TIP3   OH242607   6.498   1.540   2.264 -0.0345 -0.7944  0.1290
 7039TIP3    H142608   6.407   1.568   2.276 -0.2967 -1.0340 -1.2635
 7039TIP3    H242609   6.509   1.468   2.326 -0.4389  0.0075  1.1452
 7040TIP3   OH242610   1.565   0.651  12.815  0.4556 -0.1086 -0.5066
 7040TIP3    H142611   1.603   0.684  12.733 -0.5973  1.0531 -0.5345
 7040TIP3    H242612   1.628   0.675  12.882  0.8902 -0.2701 -0.8521
 7041TIP3   OH242613   2.861   0.854   2.023 -0.3709 -0.1628  0.4382
 7041TIP3    H142614   2.872   0.946   2.049 -0.6671 -0.3535  1.2548
 7041TIP3    H242615   2.846   0.808   2.105 -3.2029 -0.5139 -0.2470
 7042TIP3   OH242616   5.280   0.156  13.462 -0.4786 -0.5224  0.6605
 7042TIP3    H142617   5.287   0.065  13.433  4.4054  0.3150 -1.2249
 7042TIP3    H242618   5.213   0.195  13.405  0.4245 -1.8996 -1.3911
 7043TIP3   OH242619   5.650   0.586  11.477 -0.2761  0.1338 -0.1821
 7043TIP3    H142620   5.698   0.589  11.560 -1.2714  1.4729  0.3656
 7043TIP3    H242621   5.622   0.495  11.469 -0.5336  0.0855  1.1549
 7044TIP3   OH242622   5.475   1.528   0.386  0.0034 -0.4260  0.2352
 7044TIP3    H142623   5.538   1.465   0.352 -0.4685  0.1378 -1.8031
 7044TIP3    H242624   5.512   1.614   0.364 -1.3406 -0.0866 -0.8232
 7045TIP3   OH242625   2.408   4.020   3.223 -0.2532 -0.2353 -0.3465
 7045TIP3    H142626   2.446   3.991   3.306 -1.0405 -0.5862 -0.1058
 7045TIP3    H242627   2.316   3.994   3.228 -0.4180  0.1790 -1.1266
 7046TIP3   OH242628   4.671   3.404  14.956  0.8158  0.8925 -0.0659
 7046TIP3    H142629   4.615   3.474  14.988  1.2593  1.3065 -0.1924
 7046TIP3    H242630   4.700   3.358  15.036 -0.3022  0.2055 -0.0415
 7047TIP3   OH242631   1.540   5.933   4.875  0.4150  0.1128  0.1284
 7047TIP3    H142632   1.625   5.890   4.879 -0.4588 -1.4650  2.7195
 7047TIP3    H242633   1.491   5.883   4.810  0.0197 -1.7598  1.8150
 7048TIP3   OH242634   1.961   4.508   2.629  0.0675  0.0027  0.4207
 7048TIP3    H142635   1.992   4.494   2.719 -0.7008 -2.9255  0.2927
 7048TIP3    H242636   1.990   4.430   2.582 -0.9115  0.7815 -1.4925
 7049TIP3   OH242637   6.629   0.661   5.101 -0.4423 -0.1606 -0.1038
 7049TIP3    H142638   6.670   0.579   5.130 -0.8753  0.5051  2.4609
 7049TIP3    H242639   6.667   0.677   5.014  1.3288 -1.9020  0.3101
 7050TIP3   OH242640   0.034   4.349  15.703  0.3515  0.0345 -0.0039
 7050TIP3    H142641   0.004   4.392  15.623  0.9889 -1.3041 -0.9995
 7050TIP3    H242642  -0.016   4.389  15.773 -0.7355  0.7364 -1.1659
 7051TIP3   OH242643   6.474   6.057  16.585 -0.3028  0.2719  0.2093
 7051TIP3    H142644   6.443   6.031  16.498 -0.2084  1.4846 -0.1911
 7051TIP3    H242645   6.548   6.115  16.568 -0.0377  0.2077  1.1117
 7052TIP3   OH242646   2.298   0.960  16.019  0.3043  0.3593 -0.7300
 7052TIP3    H142647   2.229   1.005  15.970 -1.2218  1.6060  2.4311
 7052TIP3    H242648   2.341   1.030  16.069  1.4811 -0.9390  0.0948
 7053TIP3   OH242649   0.029   3.078  11.465  0.3879  0.3093 -0.1552
 7053TIP3    H142650   0.037   3.157  11.411  0.1663  0.1309 -0.4524
 7053TIP3    H242651   0.073   3.100  11.547 -0.5918  1.0968  0.1536
 7054TIP3   OH242652   2.727   5.963   4.629  0.1482 -0.2808 -0.0445
 7054TIP3    H142653   2.761   6.040   4.674 -0.9798  0.6246 -0.7103
 7054TIP3    H242654   2.716   5.991   4.538  0.1951 -1.3753 -0.3956
 7055TIP3   OH242655   3.887   4.300   1.914  0.4757 -0.0105  0.2274
 7055TIP3    H142656   3.978   4.328   1.925  0.4454 -0.2913  1.2395
 7055TIP3    H242657   3.893   4.207   1.895  0.3971 -0.0720  0.4965
 7056TIP3   OH242658   5.062   6.690   4.955  0.4644  0.4416  0.0131
 7056TIP3    H142659   5.075   6.773   5.000 -1.7038  1.0539 -0.4009
 7056TIP3    H242660   4.975   6.698   4.915 -0.2894 -2.4417  0.9219
 7057TIP3   OH242661   2.782   2.033  11.131  0.1793  0.4591 -0.1075
 7057TIP3    H142662   2.739   2.035  11.046 -0.8199 -0.0059  0.3671
 7057TIP3    H242663   2.874   2.052  11.113  0.0270  0.0696 -1.3183
 7058TIP3   OH242664   3.639   1.721  15.084 -0.0003 -0.0599 -0.1993
 7058TIP3    H142665   3.645   1.692  15.175 -2.4388 -1.1004 -0.3266
 7058TIP3    H242666   3.582   1.798  15.086  0.9284  0.6505 -0.7077
 7059TIP3   OH242667   3.196   2.187   0.311  0.4668  0.2724  0.3056
 7059TIP3    H142668   3.227   2.253   0.250  0.9853 -0.7740 -0.5815
 7059TIP3    H242669   3.272   2.131   0.326  0.1489  0.1091  1.3632
 7060TIP3   OH242670   5.710   3.675   5.546 -0.9979  0.1041 -0.5022
 7060TIP3    H142671   5.642   3.733   5.511  1.0941  1.5508 -2.3549
 7060TIP3    H242672   5.763   3.732   5.602  0.3847 -0.2716 -1.3947
 7061TIP3   OH242673   5.725   2.666  15.164 -0.0348 -0.6400  0.2084
 7061TIP3    H142674   5.796   2.703  15.112  0.8130 -0.7548  1.2751
 7061TIP3    H242675   5.667   2.740  15.181 -0.3688 -0.6165 -0.9570
 7062TIP3   OH242676   5.986   1.398  15.907 -0.0732  0.4478 -0.0609
 7062TIP3    H142677   5.996   1.366  15.818  0.2691  2.1232 -0.6398
 7062TIP3    H242678   6.066   1.371  15.951 -0.0662 -0.0326 -0.3635
 7063TIP3   OH242679   1.344   4.711  13.281 -0.6156  0.6937  0.6279
 7063TIP3    H142680   1.392   4.794  13.275  1.6969 -0.6357  0.0080
 7063TIP3    H242681   1.314   4.708  13.372  0.7499  1.4470  1.1250
 7064TIP3   OH242682   5.420   4.565   1.977  0.0493 -0.4787  0.3453
 7064TIP3    H142683   5.369   4.574   1.896  0.7479  0.6164  0.0128
 7064TIP3    H242684   5.420   4.653   2.014  1.3944 -0.5407  0.5221
 7065TIP3   OH242685   4.184   3.214   5.938 -0.3081 -0.1556  0.4864
 7065TIP3    H142686   4.242   3.244   5.867  0.1771  0.3491  1.0851
 7065TIP3    H242687   4.237   3.149   5.985 -1.2449 -1.7443 -0.6204
 7066TIP3   OH242688   0.902   2.295   5.010  0.1625 -0.0113  0.0917
 7066TIP3    H142689   0.857   2.326   4.932  0.9602 -0.6118 -0.6275
 7066TIP3    H242690   0.868   2.207   5.024 -0.2178  0.2179  0.6167
 7067TIP3   OH242691   1.676   2.052   3.554 -0.3464  0.0542 -0.6399
 7067TIP3    H142692   1.713   2.133   3.590  0.4792 -0.1301 -1.0726
 7067TIP3    H242693   1.607   2.028   3.616 -0.4035  0.9313 -0.3557
 7068TIP3   OH242694   1.963   4.123  15.032 -0.0552  0.1097  0.1863
 7068TIP3    H142695   1.939   4.089  14.946 -1.1363 -1.1868  0.9720
 7068TIP3    H242696   1.916   4.206  15.039  0.3858  0.4341 -0.6441
 7069TIP3   OH242697   1.528   1.129  12.122  0.0697 -0.2164 -0.0147
 7069TIP3    H142698   1.540   1.056  12.182 -0.8992 -0.5644 -0.2432
 7069TIP3    H242699   1.605   1.185  12.137 -0.0172 -0.4466  1.3267
 7070TIP3   OH242700   4.057   1.458  14.162  0.4098  0.4167 -0.3143
 7070TIP3    H142701   4.005   1.516  14.106 -0.6872  2.2525  2.4673
 7070TIP3    H242702   4.118   1.517  14.207 -1.2287 -0.4121  3.1348
 7071TIP3   OH242703   3.924   6.054   5.691  0.2577  0.2033 -0.0727
 7071TIP3    H142704   4.014   6.028   5.712  0.2046  0.6170  0.6683
 7071TIP3    H242705   3.874   6.032   5.769 -0.1420  0.7149 -0.1870
 7072TIP3   OH242706   2.265   2.479  13.567  0.6468  0.0405  0.0149
 7072TIP3    H142707   2.283   2.406  13.627  1.5669 -1.0260 -1.5413
 7072TIP3    H242708   2.209   2.441  13.499 -0.1549  1.1750  0.0223
 7073TIP3   OH242709   3.790   4.794   5.957 -0.0443 -0.1930 -0.6136
 7073TIP3    H142710   3.856   4.767   5.893  1.1920 -0.1131  0.6073
 7073TIP3    H242711   3.796   4.889   5.961 -0.5768 -0.1455 -0.8571
 7074TIP3   OH242712   5.453   2.046   5.015 -0.4081  0.5983 -0.4046
 7074TIP3    H142713   5.442   1.985   4.942 -0.1443  0.1872 -0.1031
 7074TIP3    H242714   5.433   2.132   4.978 -0.2171  0.3980 -0.9751
 7075TIP3   OH242715   2.781   1.841   4.870 -0.0919 -0.9103  0.1865
 7075TIP3    H142716   2.875   1.854   4.885 -0.2495  0.5520 -0.0857
 7075TIP3    H242717   2.777   1.767   4.810  0.9734  0.1939 -1.2696
 7076TIP3   OH242718   3.695   1.729   3.637 -0.0886  0.3593  0.1660
 7076TIP3    H142719   3.615   1.773   3.610  0.0511 -0.1125 -1.0228
 7076TIP3    H242720   3.665   1.661   3.698 -0.7398 -0.6929 -1.3014
 7077TIP3   OH242721   1.722   0.012  15.966  0.3424  0.5821 -0.0428
 7077TIP3    H142722   1.700   0.104  15.983 -1.6363  0.1183  0.0334
 7077TIP3    H242723   1.756  -0.021  16.049  1.2764  1.2905 -0.1332
 7078TIP3   OH242724   5.679   6.464  10.914 -0.2708 -1.4370 -0.0896
 7078TIP3    H142725   5.599   6.430  10.952 -1.6687 -0.6816 -2.2722
 7078TIP3    H242726   5.748   6.439  10.976 -2.3205 -1.0647  2.3981
 7079TIP3   OH242727   6.604   3.264   0.663 -0.0106 -0.4209  0.2673
 7079TIP3    H142728   6.559   3.323   0.602 -1.4398  0.0360  1.6932
 7079TIP3    H242729   6.544   3.258   0.738  0.8210 -2.4913  0.8001
 7080TIP3   OH242730   5.918   1.155  11.560 -0.2178 -0.0130  0.0729
 7080TIP3    H142731   5.878   1.200  11.634 -0.2415 -3.6035  2.3562
 7080TIP3    H242732   6.012   1.154  11.581 -0.2870 -1.5326  0.4376
 7081TIP3   OH242733   5.686   1.792   4.624  0.0583 -0.1015  0.0833
 7081TIP3    H142734   5.704   1.859   4.559  2.0417  1.4291  2.1290
 7081TIP3    H242735   5.760   1.797   4.685 -3.5871  1.2613  4.6631
 7082TIP3   OH242736   3.016   4.415   0.746 -0.6967 -0.2977 -0.0369
 7082TIP3    H142737   3.098   4.431   0.699 -1.2016  1.0870 -0.4908
 7082TIP3    H242738   2.955   4.385   0.679 -0.9705  0.1068  0.0311
 7083TIP3   OH242739   1.252   0.910  17.275  0.1965  0.0585 -0.0620
 7083TIP3    H142740   1.187   0.979  17.266  1.1981  0.9045 -1.0405
 7083TIP3    H242741   1.300   0.933  17.354 -1.0104 -0.8435  0.9348
 7084TIP3   OH242742   1.050   4.708   4.826 -0.1161 -0.1281  1.0585
 7084TIP3    H142743   0.964   4.668   4.839  0.3677 -1.0080  1.6582
 7084TIP3    H242744   1.094   4.651   4.763  0.5361 -0.4800  1.8260
 7085TIP3   OH242745   0.423   1.918  16.982  0.1270  0.6107  0.2223
 7085TIP3    H142746   0.427   1.994  17.041 -1.5837  1.2523 -0.4517
 7085TIP3    H242747   0.386   1.953  16.901 -0.0930 -0.8271 -0.3123
 7086TIP3   OH242748   1.742   0.246   3.066  0.0708  0.4539 -0.1712
 7086TIP3    H142749   1.651   0.221   3.080 -0.2254  1.6459  0.0818
 7086TIP3    H242750   1.763   0.302   3.140  0.6868  1.0200 -0.7693
 7087TIP3   OH242751   1.596   5.643   2.466  0.1049  0.1295  0.1351
 7087TIP3    H142752   1.540   5.566   2.475 -0.4025  0.4881  0.0387
 7087TIP3    H242753   1.565   5.687   2.387  0.0884  0.6871  0.4491
 7088TIP3   OH242754   6.535   2.682  11.838  0.7196 -0.5884  0.3879
 7088TIP3    H142755   6.494   2.742  11.899  2.2987  0.7686  0.1298
 7088TIP3    H242756   6.542   2.600  11.886 -0.4194 -0.2737  1.1131
 7089TIP3   OH242757   5.713   6.400   5.863  0.1140  0.3907 -0.2668
 7089TIP3    H142758   5.679   6.391   5.952 -1.8347 -1.0278 -1.1210
 7089TIP3    H242759   5.803   6.368   5.868  0.4156  1.4515  1.4257
 7090TIP3   OH242760   3.296   3.411   0.441  0.1388 -0.6312  0.0892
 7090TIP3    H142761   3.230   3.463   0.395 -1.6698 -3.1206 -0.2272
 7090TIP3    H242762   3.372   3.411   0.382  0.3508  2.0002  0.3177
 7091TIP3   OH242763   5.782   1.591   1.080  0.0246 -0.1925  0.3411
 7091TIP3    H142764   5.733   1.590   1.163 -1.4017  0.0363 -0.4741
 7091TIP3    H242765   5.823   1.505   1.075 -0.7182 -0.5820  0.8040
 7092TIP3   OH242766   1.743   6.136  15.438  0.5363 -0.3753 -0.1815
 7092TIP3    H142767   1.690   6.210  15.409  0.8008  0.7706  2.1711
 7092TIP3    H242768   1.768   6.091  15.357 -1.0083  1.1312 -1.5322
 7093TIP3   OH242769   5.324   0.494   3.371  0.1449 -0.5698 -0.2747
 7093TIP3    H142770   5.241   0.534   3.349  0.4044  0.7287  1.0998
 7093TIP3    H242771   5.390   0.548   3.327  0.3139 -1.2335 -0.8565
 7094TIP3   OH242772   2.809   2.301  12.101 -0.3984  0.5302 -0.0823
 7094TIP3    H142773   2.872   2.343  12.043 -0.8570 -0.3929 -1.2671
 7094TIP3    H242774   2.862   2.247  12.160  0.0825  1.6414  0.5104
 7095TIP3   OH242775   2.251   1.679   2.413  0.3414 -0.4979 -0.1445
 7095TIP3    H142776   2.276   1.661   2.504 -0.4686 -0.7516  0.0329
 7095TIP3    H242777   2.334   1.682   2.366  0.7115 -1.2706  0.4431
 7096TIP3   OH242778   4.164   3.482  13.304  0.4785 -0.3287 -0.3670
 7096TIP3    H142779   4.253   3.479  13.269  0.3926 -0.1478 -0.6066
 7096TIP3    H242780   4.129   3.565  13.272 -0.1138 -0.8530 -1.0991
 7097TIP3   OH242781   4.767   5.614  15.031  0.2934 -0.5234  0.2262
 7097TIP3    H142782   4.700   5.581  14.971  1.8872 -1.5012 -1.0612
 7097TIP3    H242783   4.743   5.705  15.046 -0.2184 -0.3159 -1.7566
 7098TIP3   OH242784   1.045   6.051   5.626  0.3109 -0.0262 -0.5007
 7098TIP3    H142785   1.111   6.002   5.675 -0.0211  0.3181  0.3093
 7098TIP3    H242786   0.987   5.983   5.590  1.2172 -0.3404 -1.4049
 7099TIP3   OH242787   0.419   2.645  15.848 -0.0033  0.4071 -0.5491
 7099TIP3    H142788   0.480   2.711  15.816  1.4902  0.2243  1.8319
 7099TIP3    H242789   0.343   2.695  15.877  0.9004  1.0767  0.7421
 7100TIP3   OH242790   5.264   1.230   5.767 -0.0574 -0.1009 -0.1060
 7100TIP3    H142791   5.303   1.212   5.853 -2.8869  0.0707  1.2809
 7100TIP3    H242792   5.170   1.239   5.785 -0.5717  0.9839 -3.0783
 7101TIP3   OH242793   0.839   4.403   3.177 -0.2931  0.1059 -0.0534
 7101TIP3    H142794   0.819   4.356   3.096 -0.6094  1.0704 -0.5475
 7101TIP3    H242795   0.923   4.445   3.160  0.6632 -1.3797  0.8850
 7102TIP3   OH242796   6.405   5.638  12.748 -0.6223  0.4594  0.0868
 7102TIP3    H142797   6.377   5.618  12.837 -0.3427 -0.0880  0.0494
 7102TIP3    H242798   6.495   5.670  12.758 -0.8156  1.0111  0.0691
 7103TIP3   OH242799   0.992   0.291  15.390  0.3737  0.1161  0.5416
 7103TIP3    H142800   0.973   0.321  15.479 -1.5555 -0.5134  0.3600
 7103TIP3    H242801   1.036   0.207  15.401 -3.2917 -1.8377  0.8643
 7104TIP3   OH242802   6.282   0.338  16.873 -0.0851  0.0162  0.1809
 7104TIP3    H142803   6.243   0.421  16.900 -1.6102 -0.5156 -0.3050
 7104TIP3    H242804   6.257   0.329  16.781  0.9259 -0.5100 -0.0487
 7105TIP3   OH242805   3.639   3.220  13.757  0.4015  0.0069  0.3582
 7105TIP3    H142806   3.662   3.138  13.801  1.7950  0.6476  0.8755
 7105TIP3    H242807   3.721   3.269  13.755 -0.7942  2.1398  1.6586
 7106TIP3   OH242808   5.518   5.777   1.590 -0.6823 -0.4568  0.2618
 7106TIP3    H142809   5.481   5.690   1.603  0.4318 -1.1128 -0.8956
 7106TIP3    H242810   5.546   5.777   1.498 -1.5612  1.4521 -0.0348
 7107TIP3   OH242811   6.097   6.552   4.039 -0.2018  0.6334 -0.1213
 7107TIP3    H142812   6.014   6.591   4.066 -0.7351 -0.0094 -0.7884
 7107TIP3    H242813   6.084   6.458   4.052  1.2527  0.7023  1.9776
 7108TIP3   OH242814   0.857   0.942   2.209 -0.3044 -0.2456  0.3559
 7108TIP3    H142815   0.815   0.877   2.266 -1.4953 -0.2112 -0.4415
 7108TIP3    H242816   0.922   0.892   2.160 -0.8458 -0.7476  0.1333
 7109TIP3   OH242817   3.110   3.902  14.003 -0.4157 -0.6013 -0.8981
 7109TIP3    H142818   3.089   3.903  14.097  0.2167  1.8341 -0.7441
 7109TIP3    H242819   3.176   3.833  13.995 -0.1901 -0.5834  0.5291
 7110TIP3   OH242820   5.144   0.139  14.831  0.7559 -0.3957  0.0915
 7110TIP3    H142821   5.170   0.101  14.747 -1.1645 -1.4903 -0.0469
 7110TIP3    H242822   5.144   0.064  14.892 -0.8046 -0.1830  0.3599
 7111TIP3   OH242823   3.992   2.358  13.253 -0.1352 -0.5380  0.8615
 7111TIP3    H142824   3.987   2.427  13.320 -2.3330 -0.4159  0.6136
 7111TIP3    H242825   3.903   2.351  13.220  1.0275 -0.1561 -2.5473
 7112TIP3   OH242826   5.898   6.650  12.768 -0.4240 -0.6491  0.3090
 7112TIP3    H142827   5.960   6.587  12.732 -1.2099 -0.3309 -1.6501
 7112TIP3    H242828   5.885   6.622  12.859  2.2247 -0.9769  0.6108
 7113TIP3   OH242829   5.433   0.806   4.625  0.8514 -0.5195 -0.7037
 7113TIP3    H142830   5.467   0.828   4.712  1.2034 -0.6049 -0.8200
 7113TIP3    H242831   5.379   0.729   4.639  1.8615 -1.2476 -0.7508
 7114TIP3   OH242832   2.279   3.644  15.061 -0.2823  0.5759  0.1537
 7114TIP3    H142833   2.286   3.582  15.134  1.0353  0.2568 -0.2282
 7114TIP3    H242834   2.199   3.693  15.079  0.5213  1.1672  2.3355
 7115TIP3   OH242835   0.497   5.263  12.349  0.5182  0.5539 -0.3018
 7115TIP3    H142836   0.495   5.184  12.295 -0.0705  0.4774 -0.1738
 7115TIP3    H242837   0.563   5.243  12.416  0.2665  0.1089 -0.1810
 7116TIP3   OH242838   3.532   4.740  15.725  0.5509  0.0773  0.2670
 7116TIP3    H142839   3.561   4.826  15.695  2.1722 -0.6406 -0.2735
 7116TIP3    H242840   3.469   4.759  15.794 -1.2554  1.7326 -1.7516
 7117TIP3   OH242841   4.074   4.104   1.248  0.1125  0.1180  0.3299
 7117TIP3    H142842   4.002   4.162   1.222 -1.4276 -1.3097  1.3215
 7117TIP3    H242843   4.060   4.089   1.342  0.5352 -1.7703  0.1129
 7118TIP3   OH242844   6.561   6.762   4.374  0.2216  0.0912 -0.3821
 7118TIP3    H142845   6.610   6.703   4.431 -0.0377  1.4784  1.3571
 7118TIP3    H242846   6.600   6.848   4.390 -1.2236  0.8376 -0.7379
 7119TIP3   OH242847   2.470   0.241  16.540  0.5019 -0.2683  0.2782
 7119TIP3    H142848   2.516   0.160  16.559  1.6095  0.4474  0.6597
 7119TIP3    H242849   2.520   0.309  16.584 -1.0267  0.5030  0.8643
 7120TIP3   OH242850   4.042   6.761  11.733 -0.1594  0.3098 -0.7295
 7120TIP3    H142851   4.050   6.751  11.828 -0.5452 -1.3611 -0.8618
 7120TIP3    H242852   4.067   6.852  11.716  0.2045  0.5280  0.9381
 7121TIP3   OH242853   5.973   2.906   6.544 -0.5459 -0.1679 -0.0892
 7121TIP3    H142854   6.054   2.953   6.561  0.2236  0.1137 -4.1366
 7121TIP3    H242855   6.000   2.815   6.531 -0.9011 -0.1190 -1.1856
 7122TIP3   OH242856   5.357   2.037  15.672  0.2533 -0.2420  0.3575
 7122TIP3    H142857   5.280   2.022  15.727  0.2970 -1.4749  0.0928
 7122TIP3    H242858   5.395   1.950  15.659  2.1352  0.4183  1.1187
 7123TIP3   OH242859   3.465   1.232   3.043 -0.3745  0.0115  0.4549
 7123TIP3    H142860   3.473   1.144   3.007  2.8517  0.3179  0.2629
 7123TIP3    H242861   3.404   1.223   3.116  2.3482 -3.0926  2.5085
 7124TIP3   OH242862   4.324   3.664   3.341  0.4774  0.3727 -0.8839
 7124TIP3    H142863   4.394   3.608   3.310  1.2101  0.4987  0.4735
 7124TIP3    H242864   4.248   3.642   3.286  0.2460 -3.1988  0.7237
 7125TIP3   OH242865   4.842   4.474   1.704  0.2630  0.3765 -0.1770
 7125TIP3    H142866   4.811   4.530   1.632 -1.4027  0.3561  0.5059
 7125TIP3    H242867   4.803   4.512   1.782 -1.9668 -2.4634  0.1738
 7126TIP3   OH242868   3.912   1.045  15.359  0.8797 -0.0133 -0.2896
 7126TIP3    H142869   3.838   1.081  15.408 -0.7048 -0.8720 -2.0131
 7126TIP3    H242870   3.945   1.119  15.307  2.0681  0.6974  1.4317
 7127TIP3   OH242871   2.642   2.714   2.275 -0.2356 -0.5062  0.3286
 7127TIP3    H142872   2.650   2.775   2.201 -1.0741 -1.1267 -0.2864
 7127TIP3    H242873   2.713   2.739   2.334 -0.4609  0.9603  0.0128
 7128TIP3   OH242874   4.569   0.687  17.090 -0.1107  0.1019 -0.0701
 7128TIP3    H142875   4.499   0.716  17.032 -0.5496 -0.7799  0.0213
 7128TIP3    H242876   4.558   0.740  17.169 -0.3109  0.3812 -0.2847
 7129TIP3   OH242877   2.301   0.519   2.728 -0.3310  0.1946  0.2268
 7129TIP3    H142878   2.390   0.496   2.756  0.2339  0.5998 -1.2136
 7129TIP3    H242879   2.293   0.485   2.640 -1.1966  1.1991 -0.0982
 7130TIP3   OH242880   2.466   0.906   3.006  0.5236  0.2559 -0.4751
 7130TIP3    H142881   2.374   0.891   3.027 -0.1632  3.2203 -1.0654
 7130TIP3    H242882   2.483   0.851   2.930 -1.1204  0.5696 -1.0912
 7131TIP3   OH242883   3.846   5.461  16.261  0.7848  0.2401 -0.2786
 7131TIP3    H142884   3.859   5.380  16.212 -0.1266  0.2739 -0.5854
 7131TIP3    H242885   3.874   5.440  16.350  1.4582 -0.1286 -0.5742
 7132TIP3   OH242886   2.100   0.560   0.749  0.0744 -0.1770  0.3259
 7132TIP3    H142887   2.064   0.626   0.808  1.8350  0.5342  0.6583
 7132TIP3    H242888   2.181   0.600   0.716  0.4266 -1.6013 -0.5711
 7133TIP3   OH242889   4.629   5.554  17.039  0.7022  0.3438  0.6204
 7133TIP3    H142890   4.709   5.570  16.988  0.0426  1.3954 -0.1242
 7133TIP3    H242891   4.641   5.467  17.075  2.0006  0.3092  0.1658
 7134TIP3   OH242892   4.800   0.450   4.353  0.5017 -1.0755  0.3967
 7134TIP3    H142893   4.777   0.360   4.374 -1.9320 -0.0728  2.2466
 7134TIP3    H242894   4.830   0.488   4.436 -0.8320  0.4843  0.1849
 7135TIP3   OH242895   4.125   6.729   0.036  0.7253 -0.5487 -0.7302
 7135TIP3    H142896   4.200   6.769   0.079 -0.9287  2.6718 -0.7087
 7135TIP3    H242897   4.067   6.802   0.013 -2.5582 -2.9248 -0.5135
 7136TIP3   OH242898   1.852   1.770  12.720 -0.3741 -0.4792 -1.1139
 7136TIP3    H142899   1.772   1.809  12.756 -0.1916 -0.0953 -1.1240
 7136TIP3    H242900   1.869   1.819  12.640 -0.6880 -1.2259 -1.6471
 7137TIP3   OH242901   5.403   1.746  15.626  0.6054 -0.0852  0.2678
 7137TIP3    H142902   5.356   1.672  15.664 -0.8742  1.2585  1.1354
 7137TIP3    H242903   5.351   1.770  15.548  1.0628  0.0536  0.0020
 7138TIP3   OH242904   5.652   3.979   1.053  0.0699 -0.2356  0.2362
 7138TIP3    H142905   5.732   3.999   1.005 -0.9003  0.4078 -1.1552
 7138TIP3    H242906   5.681   3.959   1.142  1.7764 -0.1702 -0.2967
 7139TIP3   OH242907   0.458   6.612   3.929  0.1452 -0.5709 -0.0022
 7139TIP3    H142908   0.410   6.608   3.847  0.6513  0.2903 -0.3492
 7139TIP3    H242909   0.546   6.640   3.904  0.6550 -1.5296  0.6909
 7140TIP3   OH242910   3.369   3.034  12.498 -0.1081  0.1088  0.1724
 7140TIP3    H142911   3.356   2.953  12.449  0.5946  1.9830 -3.2332
 7140TIP3    H242912   3.464   3.047  12.499 -0.2008  0.8170  0.8413
 7141TIP3   OH242913   4.980   0.654  16.796 -0.0039 -0.6642 -0.9450
 7141TIP3    H142914   4.956   0.626  16.884 -1.5419 -0.2208 -1.2041
 7141TIP3    H242915   4.987   0.573  16.746 -0.3149 -0.8467 -0.6966
 7142TIP3   OH242916   4.752   0.275  15.664  0.0933  0.1852 -0.1864
 7142TIP3    H142917   4.801   0.254  15.584  0.7488 -1.2475  0.5764
 7142TIP3    H242918   4.818   0.299  15.728 -0.2429 -0.8598  0.5745
 7143TIP3   OH242919   1.570   2.530   2.475  0.6018  0.4193  0.1000
 7143TIP3    H142920   1.580   2.435   2.482  0.7529  0.3713 -0.6870
 7143TIP3    H242921   1.654   2.560   2.441 -0.0234  0.6393 -1.2860
 7144TIP3   OH242922   1.334   3.029   4.946 -0.2557  0.2310  0.4836
 7144TIP3    H142923   1.412   3.079   4.922  0.3821 -2.6567 -3.9308
 7144TIP3    H242924   1.368   2.947   4.982 -1.2329 -0.6665 -0.6068
 7145TIP3   OH242925   2.817   6.218  13.934 -0.4817 -0.0131  0.2455
 7145TIP3    H142926   2.828   6.311  13.952 -0.1072  0.2538 -1.2950
 7145TIP3    H242927   2.722   6.205  13.934 -0.5094  0.1672  1.4227
 7146TIP3   OH242928   0.740   1.435   0.685 -0.2669 -1.3283 -0.1440
 7146TIP3    H142929   0.646   1.440   0.671 -0.3669 -0.8893  0.6565
 7146TIP3    H242930   0.775   1.514   0.643 -0.2771 -1.4113 -0.3061
 7147TIP3   OH242931   1.010   0.760   0.766  0.2350 -0.0677  0.3083
 7147TIP3    H142932   1.018   0.713   0.849  0.5856  0.0289  0.3306
 7147TIP3    H242933   1.097   0.796   0.751  0.3000 -0.4897 -0.3438
 7148TIP3   OH242934   2.912   0.795   4.781  0.5164 -0.1422 -0.2437
 7148TIP3    H142935   2.859   0.823   4.707  1.0850  0.5349 -0.4025
 7148TIP3    H242936   3.000   0.829   4.761  0.6043  0.2965  0.8859
 7149TIP3   OH242937   6.318   2.093   6.296 -0.1197 -0.7192 -0.2899
 7149TIP3    H142938   6.282   2.005   6.302 -1.6717 -0.0889 -0.1355
 7149TIP3    H242939   6.274   2.141   6.366 -0.0821  0.4448 -1.0577
 7150TIP3   OH242940   1.220   1.325  12.313 -0.0498 -0.3413  0.0262
 7150TIP3    H142941   1.178   1.271  12.247  1.2157 -1.5370  0.1811
 7150TIP3    H242942   1.286   1.268  12.353  1.3190  1.2979  0.1905
 7151TIP3   OH242943   6.671   3.114   1.572 -0.3608 -0.2949  0.5307
 7151TIP3    H142944   6.658   3.089   1.481 -0.4137 -0.1377  0.4944
 7151TIP3    H242945   6.583   3.127   1.606 -0.2941  1.4755  0.0854
 7152TIP3   OH242946   6.262   6.543  12.202  0.3361 -0.1286 -0.5589
 7152TIP3    H142947   6.290   6.551  12.110  0.6329  1.5505 -0.3481
 7152TIP3    H242948   6.210   6.463  12.205  0.1864 -0.1080 -2.2355
 7153TIP3   OH242949   1.999   2.788  14.470  0.3817  0.3245 -0.3547
 7153TIP3    H142950   2.044   2.704  14.467  0.4072  0.3422 -0.5000
 7153TIP3    H242951   1.981   2.809  14.378  0.5279  0.5589 -0.3309
 7154TIP3   OH242952   5.076   6.097  13.888 -0.0095  0.0500 -0.0277
 7154TIP3    H142953   5.087   6.186  13.921 -1.5132  0.6869 -1.1864
 7154TIP3    H242954   4.984   6.075  13.907  0.0588 -0.8501 -0.6788
 7155TIP3   OH242955   5.151   0.476   1.309  0.1884  0.2100 -0.4187
 7155TIP3    H142956   5.227   0.453   1.361  0.5784 -0.1463 -1.1374
 7155TIP3    H242957   5.091   0.518   1.371  0.2887 -0.9708  0.4947
 7156TIP3   OH242958   1.240   1.683  16.339 -0.1314  0.4928  0.0559
 7156TIP3    H142959   1.211   1.755  16.396 -2.3915 -0.4591  0.1852
 7156TIP3    H242960   1.252   1.609  16.399  0.3976  0.2827 -0.3099
 7157TIP3   OH242961   6.534   1.047  16.202  0.3831 -0.6715 -0.0163
 7157TIP3    H142962   6.574   1.127  16.234  0.2235 -0.7651  0.4168
 7157TIP3    H242963   6.558   1.043  16.109  2.7001 -1.5553  0.6003
 7158TIP3   OH242964   5.063   5.981  12.121 -0.0243 -0.1710 -0.4191
 7158TIP3    H142965   5.007   6.033  12.179  0.8090 -1.2524  1.3834
 7158TIP3    H242966   5.092   5.908  12.175  1.7117 -0.5732 -1.8624
 7159TIP3   OH242967   2.236   0.384   5.206  0.5356 -0.6129 -0.0705
 7159TIP3    H142968   2.296   0.432   5.262  0.2537  0.4109 -0.6421
 7159TIP3    H242969   2.209   0.447   5.139 -1.8761 -0.7493  0.6998
 7160TIP3   OH242970   1.793   0.267   1.311  0.4118 -0.2981 -0.0235
 7160TIP3    H142971   1.742   0.284   1.232 -0.4524 -0.1179  0.5576
 7160TIP3    H242972   1.783   0.347   1.363  1.4159 -0.2060  0.0328
 7161TIP3   OH242973   0.059   0.931   0.558  0.3006  0.2236 -0.2639
 7161TIP3    H142974   0.069   0.995   0.488 -0.6134  0.0173 -0.5942
 7161TIP3    H242975  -0.031   0.943   0.588  0.8130  0.5834  1.1461
 7162TIP3   OH242976   5.415   3.263  13.273  0.2214  0.4866  0.8663
 7162TIP3    H142977   5.392   3.175  13.301 -0.0395  0.6126  1.0514
 7162TIP3    H242978   5.508   3.259  13.254 -0.3691 -0.6646 -2.1642
 7163TIP3   OH242979   2.777   3.857  15.580 -0.0367 -0.0301 -0.3156
 7163TIP3    H142980   2.733   3.814  15.653  0.8060  0.5319  0.5434
 7163TIP3    H242981   2.709   3.911  15.540 -0.0176  1.2594  1.3347
 7164TIP3   OH242982   6.111   0.571  13.269 -0.5787 -0.0731  0.2081
 7164TIP3    H142983   6.083   0.544  13.182 -1.1934 -2.2068  1.0089
 7164TIP3    H242984   6.196   0.611  13.256 -1.0436  0.4152 -1.4607
 7165TIP3   OH242985   3.434   3.974  11.649  0.3684  0.0407  0.6765
 7165TIP3    H142986   3.340   3.976  11.633  0.7186 -1.0197 -1.8879
 7165TIP3    H242987   3.455   4.061  11.682 -1.3800  0.6021  0.3508
 7166TIP3   OH242988   1.586   4.601   4.050 -0.0610 -0.3277  0.3892
 7166TIP3    H142989   1.553   4.616   4.139  2.1048 -0.9474  1.3514
 7166TIP3    H242990   1.632   4.517   4.056  0.2946 -0.2586 -1.2601
 7167TIP3   OH242991   2.963   6.390   6.186 -0.4213 -0.4183 -0.3146
 7167TIP3    H142992   2.996   6.479   6.189  1.8043 -1.2363  0.9607
 7167TIP3    H242993   2.926   6.375   6.273  1.2246 -1.4337  0.2368
 7168TIP3   OH242994   3.623   1.901  13.915  0.7522  0.1836  0.4187
 7168TIP3    H142995   3.596   1.990  13.892  0.1607  0.2133  1.2062
 7168TIP3    H242996   3.612   1.852  13.834 -1.7712  0.1931  0.6885
 7169TIP3   OH242997   5.206   5.305  12.895 -0.2675 -0.0488 -0.4325
 7169TIP3    H142998   5.134   5.251  12.861 -1.5486  0.1352  1.8764
 7169TIP3    H242999   5.264   5.243  12.939  1.1488 -0.2275 -2.4915
 7170TIP3   OH243000   0.014   0.392   4.858 -0.4757  0.1794 -0.0924
 7170TIP3    H143001   0.069   0.386   4.937 -0.2623 -0.2712 -0.2747
 7170TIP3    H243002  -0.043   0.316   4.862 -0.3148  0.0349 -0.4869
 7171TIP3   OH243003   5.650   0.877   1.706 -0.0050 -0.2457  0.1365
 7171TIP3    H143004   5.705   0.912   1.636  0.1249 -0.7307 -0.0034
 7171TIP3    H243005   5.649   0.946   1.772 -0.5256  0.4152 -0.5568
 7172TIP3   OH243006   4.523   3.731  11.286  0.6630  0.7863  0.2381
 7172TIP3    H143007   4.544   3.738  11.193  1.4879  0.6489  0.4134
 7172TIP3    H243008   4.601   3.763  11.331  0.1052  1.2667  0.8830
 7173TIP3   OH243009   3.600   4.308   4.486 -0.4298  0.4718 -0.1501
 7173TIP3    H143010   3.694   4.322   4.482  0.1402 -3.0232 -0.6752
 7173TIP3    H243011   3.584   4.282   4.577 -0.4568 -1.3530 -0.6520
 7174TIP3   OH243012   2.430   3.296  11.579 -0.9047 -0.3112  0.0207
 7174TIP3    H143013   2.477   3.332  11.654  2.4806  0.9689 -2.5727
 7174TIP3    H243014   2.468   3.209  11.566 -1.0615 -0.3002 -0.5248
 7175TIP3   OH243015   1.489   6.447   1.779 -0.0932 -0.7255  0.1765
 7175TIP3    H143016   1.399   6.415   1.792 -0.7624  0.5874 -0.9937
 7175TIP3    H243017   1.535   6.374   1.738 -0.5265 -1.5308  1.1089
 7176TIP3   OH243018   4.667   1.719   3.786  0.2109 -0.4173  0.0553
 7176TIP3    H143019   4.638   1.747   3.873  0.1137 -0.3741  0.0094
 7176TIP3    H243020   4.625   1.634   3.773  1.1429 -0.9534  0.5240
 7177TIP3   OH243021   2.089   3.428   5.856  0.0040  0.1949 -0.0386
 7177TIP3    H143022   2.042   3.396   5.779  0.5272 -1.7290  0.4111
 7177TIP3    H243023   2.181   3.412   5.836  0.1063 -0.8356  1.2061
 7178TIP3   OH243024   3.998   4.167   4.262  0.3720 -0.0157  0.4616
 7178TIP3    H143025   3.914   4.180   4.219  0.9693  0.1883 -0.6625
 7178TIP3    H243026   3.977   4.125   4.346 -1.0434  2.2415  1.2765
 7179TIP3   OH243027   2.197   6.688  11.776  0.0862 -0.8240 -1.2205
 7179TIP3    H143028   2.250   6.643  11.711  0.9528  0.5543 -1.4886
 7179TIP3    H243029   2.234   6.776  11.781 -0.4646 -0.6652  0.5621
 7180TIP3   OH243030   3.486   2.595   1.246  0.0473  0.1760  0.1041
 7180TIP3    H143031   3.397   2.609   1.280  1.1069 -0.8225  3.5195
 7180TIP3    H243032   3.534   2.674   1.271  0.5997 -0.1078 -0.0489
 7181TIP3   OH243033   1.189   0.975  13.372 -0.0108 -0.1228 -0.7241
 7181TIP3    H143034   1.172   1.046  13.310 -1.6857 -0.7613 -1.0376
 7181TIP3    H243035   1.130   0.992  13.445  1.8777  0.5647  0.6613
 7182TIP3   OH243036   0.741   1.013   5.504  0.0591  0.3469  0.1220
 7182TIP3    H143037   0.699   1.079   5.450  0.0692  0.2126 -0.0510
 7182TIP3    H243038   0.799   0.966   5.443  1.3301  1.2782  0.5863
 7183TIP3   OH243039   5.639   5.977  12.165 -0.1300 -0.0007 -0.3393
 7183TIP3    H143040   5.650   5.882  12.167  0.2652  0.0519 -0.0389
 7183TIP3    H243041   5.718   6.009  12.122 -1.1629  0.0541 -2.2669
 7184TIP3   OH243042   5.305   1.037   2.328 -0.7820 -0.0434 -0.6096
 7184TIP3    H143043   5.303   1.077   2.241  0.0845 -1.6232 -1.3790
 7184TIP3    H243044   5.220   0.993   2.335 -1.3689  1.1449 -0.1266
 7185TIP3   OH243045   5.954   2.465  12.965  0.2273  0.1104 -0.1966
 7185TIP3    H143046   6.010   2.398  13.005 -0.5219  0.5322  1.5809
 7185TIP3    H243047   5.965   2.542  13.020 -4.0751 -0.5588  1.8015
 7186TIP3   OH243048   6.540   0.146  14.711  0.0716 -0.4737 -0.2741
 7186TIP3    H143049   6.545   0.078  14.643  0.1298 -1.7169  0.9623
 7186TIP3    H243050   6.614   0.204  14.692  0.9137 -1.5910 -0.4315
 7187TIP3   OH243051   5.691   2.177  10.574  0.0387  0.2114 -0.0815
 7187TIP3    H143052   5.759   2.244  10.564  0.0034  0.4965  1.5290
 7187TIP3    H243053   5.721   2.124  10.648  0.7031 -2.3465 -2.0989
 7188TIP3   OH243054   4.648   3.798   2.768  0.5593 -0.0427  0.0235
 7188TIP3    H143055   4.610   3.715   2.797 -0.3939  0.5236  0.3914
 7188TIP3    H243056   4.718   3.814   2.832 -0.1072  0.0938  0.7318
 7189TIP3   OH243057   3.028   0.480  16.756 -0.3184 -0.5972 -0.1323
 7189TIP3    H143058   2.991   0.543  16.819  0.2745 -0.2754 -0.1050
 7189TIP3    H243059   3.075   0.417  16.810  1.7050  0.6845 -0.3532
 7190TIP3   OH243060   2.989   1.953   0.180 -0.6958  0.5081 -0.1319
 7190TIP3    H143061   3.048   2.011   0.132 -1.1736  1.8346  0.8576
 7190TIP3    H243062   3.004   1.975   0.272 -0.1141 -1.6886  0.3188
 7191TIP3   OH243063   2.356   5.584   1.356  0.8031 -0.2483 -0.3136
 7191TIP3    H143064   2.449   5.584   1.337  0.2666 -1.8468 -3.1417
 7191TIP3    H243065   2.315   5.626   1.281 -0.9049 -1.2164  0.0307
 7192TIP3   OH243066   0.521   4.627  12.672  0.0454 -1.0823 -0.8491
 7192TIP3    H143067   0.462   4.558  12.642 -0.4648 -0.9539 -0.1436
 7192TIP3    H243068   0.475   4.708  12.653  0.3181 -0.9563 -0.9739
 7193TIP3   OH243069   1.944   1.065   0.359 -0.2337 -0.1146  0.1432
 7193TIP3    H143070   1.990   0.992   0.400  2.4307  0.6843 -1.2920
 7193TIP3    H243071   1.913   1.118   0.432  0.4259 -1.1137  1.1609
 7194TIP3   OH243072   6.321   1.668  15.704  0.0218  0.3519 -0.8718
 7194TIP3    H143073   6.256   1.700  15.766  1.0742  1.6664 -0.4148
 7194TIP3    H243074   6.362   1.594  15.747 -0.2860  0.3159 -0.6388
 7195TIP3   OH243075   2.527   0.901  15.506 -0.3275 -0.4754  0.1198
 7195TIP3    H143076   2.455   0.850  15.544  0.9124 -1.5049  1.1151
 7195TIP3    H243077   2.529   0.982  15.557 -1.2596 -0.0922 -0.4229
 7196TIP3   OH243078   0.797   5.538  16.707 -0.0155 -0.5646 -0.2714
 7196TIP3    H143079   0.847   5.607  16.751  1.1703 -1.2966 -0.4523
 7196TIP3    H243080   0.863   5.476  16.677 -1.0261 -1.4647 -0.6655
 7197TIP3   OH243081   2.305   3.127   3.125 -1.0037  0.0182 -0.0587
 7197TIP3    H143082   2.312   3.095   3.215 -0.2791  0.1699 -0.0569
 7197TIP3    H243083   2.249   3.064   3.081 -0.5582 -0.6016  0.2511
 7198TIP3   OH243084   0.706   5.970  17.249 -0.0411 -0.3473 -0.4540
 7198TIP3    H143085   0.770   5.995  17.316 -1.4692 -0.2694  0.9043
 7198TIP3    H243086   0.662   5.894  17.285 -0.3865 -0.7084 -1.6110
 7199TIP3   OH243087   4.684   6.193  13.345  0.1522  0.5381  0.4735
 7199TIP3    H143088   4.615   6.259  13.335 -0.6949 -0.3752  0.3019
 7199TIP3    H243089   4.758   6.229  13.296 -1.4243 -0.2573 -2.6578
 7200TIP3   OH243090   6.569   1.202  12.695  0.2887  0.0128  0.1899
 7200TIP3    H143091   6.509   1.173  12.764 -0.4183 -0.3833 -0.5806
 7200TIP3    H243092   6.652   1.218  12.741  0.4671 -2.3769  0.7766
 7201TIP3   OH243093   0.459   1.433   1.826  0.1666  0.7527  0.7113
 7201TIP3    H143094   0.407   1.405   1.901  0.5285  2.0757  1.4816
 7201TIP3    H243095   0.462   1.357   1.768 -0.2374 -0.2340  1.9742
 7202TIP3   OH243096   4.911   5.701  15.287  0.4298  0.2021  0.7294
 7202TIP3    H143097   4.954   5.703  15.373  0.9570  0.2803  0.4676
 7202TIP3    H243098   4.871   5.788  15.278  1.2324  0.5508  0.4680
 7203TIP3   OH243099   0.863   4.596  13.142  0.2830  0.1599 -0.3470
 7203TIP3    H143100   0.804   4.588  13.217 -0.7280 -1.2364 -1.2659
 7203TIP3    H243101   0.863   4.689  13.122  0.4647  0.5277  1.3158
 7204TIP3   OH243102   2.827   6.619  13.225  0.2100  0.3473 -0.1972
 7204TIP3    H143103   2.880   6.678  13.279 -0.2304 -0.3037  0.9594
 7204TIP3    H243104   2.882   6.541  13.215 -1.2310 -1.1084  2.6091
 7205TIP3   OH243105   6.162   5.983  16.166 -0.1510 -0.3295 -0.2655
 7205TIP3    H143106   6.094   6.018  16.225 -0.9541 -2.2047 -0.0527
 7205TIP3    H243107   6.133   5.894  16.147  2.1897 -1.0927 -0.3152
 7206TIP3   OH243108   6.599   0.189  14.432  0.4050  0.4155  0.5622
 7206TIP3    H143109   6.591   0.100  14.465  1.2961  0.0246 -0.2591
 7206TIP3    H243110   6.579   0.182  14.338 -1.8068  1.4578  0.9118
 7207TIP3   OH243111   4.017   5.799   3.420 -0.7866 -0.6548 -0.2408
 7207TIP3    H143112   4.017   5.888   3.456 -2.5600 -0.2687 -1.1398
 7207TIP3    H243113   3.926   5.785   3.392 -0.2750 -2.3537 -1.0770
 7208TIP3   OH243114   1.529   0.377   1.685  0.2507 -0.0931  0.0034
 7208TIP3    H143115   1.554   0.407   1.598  1.0825  0.6794  0.4874
 7208TIP3    H243116   1.600   0.317   1.711  0.7500  0.7766  0.6989
 7209TIP3   OH243117   4.212   5.376  15.570 -0.0909  0.0050  0.0218
 7209TIP3    H143118   4.167   5.342  15.648  1.6461 -2.9352 -0.1624
 7209TIP3    H243119   4.165   5.336  15.497  0.8062 -0.5070 -0.2800
 7210TIP3   OH243120   4.458   1.333  12.211 -0.3620 -0.0025  0.1729
 7210TIP3    H143121   4.468   1.416  12.165  2.9040 -0.3292  0.1685
 7210TIP3    H243122   4.444   1.268  12.142  0.2619  0.1175 -0.0712
 7211TIP3   OH243123   2.724   0.675   4.581  0.5560  0.7143  0.1464
 7211TIP3    H143124   2.639   0.718   4.568  0.5655  0.8092  0.4030
 7211TIP3    H243125   2.729   0.611   4.510 -0.6094 -0.6794  1.2963
 7212TIP3   OH243126   3.560   6.540  14.629 -0.2296 -0.1401  0.7817
 7212TIP3    H143127   3.492   6.515  14.566 -1.0795  1.1239  1.1899
 7212TIP3    H243128   3.608   6.610  14.586 -2.1695  2.2349  2.3583
 7213TIP3   OH243129   0.634   0.376  14.218  0.6223 -0.3033  0.0631
 7213TIP3    H143130   0.711   0.432  14.231 -0.2025  1.2577 -1.4872
 7213TIP3    H243131   0.607   0.351  14.307  0.7675  2.1411  0.8480
 7214TIP3   OH243132   5.816   0.788   5.222 -0.3829  0.2558 -0.6956
 7214TIP3    H143133   5.758   0.821   5.292  1.1568 -0.6256  1.0369
 7214TIP3    H243134   5.780   0.825   5.142 -1.0596  2.8975  0.7726
 7215TIP3   OH243135   3.226   2.932   4.304  0.2367 -0.2828  0.1336
 7215TIP3    H143136   3.252   2.847   4.340  0.8090  0.2006  0.8994
 7215TIP3    H243137   3.296   2.991   4.332  0.6278  0.1364 -1.7076
 7216TIP3   OH243138   2.319   6.296  16.667 -0.1480  0.4627 -0.3235
 7216TIP3    H143139   2.293   6.368  16.609  0.3298  2.4827  1.8459
 7216TIP3    H243140   2.245   6.236  16.667  0.0753  0.1245 -3.4230
 7217TIP3   OH243141   1.194   3.303   0.513 -0.3414  0.4713 -0.6565
 7217TIP3    H143142   1.143   3.297   0.593  0.5380 -0.7244 -0.1764
 7217TIP3    H243143   1.264   3.239   0.524  0.5779  1.2597 -1.8051
 7218TIP3   OH243144   4.347   5.711  15.767  0.1609  0.3786  0.0567
 7218TIP3    H143145   4.313   5.801  15.774  1.0253  0.6212  1.1439
 7218TIP3    H243146   4.282   5.658  15.812  0.6636  0.7163  1.2025
 7219TIP3   OH243147   2.580   3.395   5.661  0.3208  0.5355  0.1757
 7219TIP3    H143148   2.585   3.477   5.613 -1.3671 -0.3020 -1.4977
 7219TIP3    H243149   2.641   3.336   5.616 -1.4505 -0.3281 -1.1360
 7220TIP3   OH243150   2.047   5.485   1.692  0.1090 -0.2781  0.0507
 7220TIP3    H143151   2.042   5.552   1.623 -0.6897  0.8801  1.2177
 7220TIP3    H243152   2.139   5.457   1.692  1.0838  2.7408  1.3373
 7221TIP3   OH243153   0.118   2.082  12.123  0.2200  0.0500 -0.6332
 7221TIP3    H143154   0.043   2.036  12.159 -0.0477 -0.2539 -1.5792
 7221TIP3    H243155   0.180   2.013  12.100 -0.1636  0.1597 -2.0092
 7222TIP3   OH243156   6.775   5.233   6.685 -0.2544 -0.1343 -0.3636
 7222TIP3    H143157   6.827   5.161   6.650  0.7181  0.6764 -0.6387
 7222TIP3    H243158   6.827   5.311   6.665 -1.0975  0.6016  0.2815
 7223TIP3   OH243159   2.156   0.316   5.748 -0.5963  0.3667  0.3653
 7223TIP3    H143160   2.229   0.338   5.807  0.8758 -2.2295 -0.4451
 7223TIP3    H243161   2.094   0.269   5.804  0.5503 -1.6139 -0.0060
 7224TIP3   OH243162   3.199   0.929  12.137 -0.9775  0.3919  0.6542
 7224TIP3    H143163   3.263   0.872  12.179  0.2721  1.4602  0.2528
 7224TIP3    H243164   3.119   0.918  12.188 -0.7863 -1.7833  0.4998
 7225TIP3   OH243165   5.540   3.532   3.797  0.1372 -0.0308  0.0915
 7225TIP3    H143166   5.489   3.587   3.857  1.1840  1.2077 -0.1299
 7225TIP3    H243167   5.510   3.443   3.815 -2.0831  0.6690 -0.0287
 7226TIP3   OH243168   1.240   3.475  16.319 -0.1102  0.9600  0.4173
 7226TIP3    H143169   1.229   3.477  16.414  0.2359  0.7026  0.4617
 7226TIP3    H243170   1.334   3.463  16.305 -0.1670  0.9311  0.0461
 7227TIP3   OH243171   1.576   5.449   0.265  0.1123  0.1131  0.1111
 7227TIP3    H143172   1.498   5.437   0.320  0.3081  1.6006  0.7217
 7227TIP3    H243173   1.649   5.432   0.323  0.2676 -1.1648 -0.4349
 7228TIP3   OH243174   0.050   5.854  17.199 -0.0187  0.1096 -0.0452
 7228TIP3    H143175   0.127   5.883  17.247  1.6645 -2.7016 -0.9506
 7228TIP3    H243176   0.078   5.851  17.108 -1.0576 -1.2932 -0.3434
 7229TIP3   OH243177   0.106   2.604  11.588 -0.5112  0.2042  0.0495
 7229TIP3    H143178   0.018   2.640  11.594 -0.9302 -0.9598  1.0558
 7229TIP3    H243179   0.159   2.662  11.643 -0.6030  0.9723 -0.6469
 7230TIP3   OH243180   1.584   1.997  16.728 -0.0633 -0.1032  0.0369
 7230TIP3    H143181   1.490   2.012  16.714  0.1530  1.7100  0.3865
 7230TIP3    H243182   1.617   2.081  16.760  1.7487 -0.6307 -0.3966
 7231TIP3   OH243183   3.985   5.613  13.458 -0.1605  0.5374 -0.4562
 7231TIP3    H143184   3.922   5.660  13.403 -1.1370 -1.0885 -0.7668
 7231TIP3    H243185   3.990   5.526  13.419  1.7029  0.4040  0.0441
 7232TIP3   OH243186   3.645   6.722  12.850  0.2208 -0.3082  0.1355
 7232TIP3    H143187   3.739   6.729  12.868  0.1113  0.5103  0.4138
 7232TIP3    H243188   3.640   6.667  12.771  0.9846  0.3854 -0.4124
 7233TIP3   OH243189   2.045   0.343  15.224 -0.5823 -0.1235  0.1542
 7233TIP3    H143190   2.032   0.355  15.129  0.7983 -1.1625 -0.1735
 7233TIP3    H243191   1.957   0.350  15.261 -1.1829 -0.0989 -1.2462
 7234TIP3   OH243192   0.980   0.645   5.931 -0.3065  0.0760 -0.1247
 7234TIP3    H143193   1.065   0.654   5.888 -1.4480  1.1883 -2.2492
 7234TIP3    H243194   0.993   0.680   6.019  2.0748 -2.1880  0.4733
 7235TIP3   OH243195   1.171   0.820  15.967  0.0097  0.2773 -0.3006
 7235TIP3    H143196   1.192   0.749  16.028 -0.4474  0.2397 -0.1863
 7235TIP3    H243197   1.255   0.862  15.950  0.5199 -1.2137 -1.5338
 7236TIP3   OH243198   6.068   6.514   3.134  0.1345  0.3154  0.3797
 7236TIP3    H143199   6.135   6.449   3.115  0.4289  0.3267  1.3517
 7236TIP3    H243200   6.077   6.579   3.065 -0.0746 -0.5991 -0.5155
 7237TIP3   OH243201   6.553   3.939  11.169 -0.4078 -0.1574 -0.0943
 7237TIP3    H143202   6.558   3.882  11.246  0.4567 -1.0735 -0.8206
 7237TIP3    H243203   6.489   3.897  11.112  0.5455 -0.6594 -0.8187
 7238TIP3   OH243204   0.573   4.044   5.334 -0.8688 -0.4448 -0.3371
 7238TIP3    H143205   0.525   4.105   5.278 -0.3583  0.1365 -0.1326
 7238TIP3    H243206   0.572   3.961   5.285 -2.3461 -0.5261 -0.2011
 7239TIP3   OH243207   6.545   0.721   1.116 -0.0064  0.5214  0.1343
 7239TIP3    H143208   6.593   0.789   1.163  1.5995  0.0143 -0.7299
 7239TIP3    H243209   6.520   0.658   1.183 -1.8802  2.1370  1.0171
 7240TIP3   OH243210   4.829   4.235   6.592 -0.1849  0.2521  0.0489
 7240TIP3    H143211   4.888   4.267   6.525  0.1107  2.0189  1.1136
 7240TIP3    H243212   4.773   4.310   6.613 -1.9421 -0.9955  0.0052
 7241TIP3   OH243213   5.170   3.709   5.947  0.2167  0.3688  0.1196
 7241TIP3    H143214   5.240   3.735   6.007  0.9095  1.0342 -0.9530
 7241TIP3    H243215   5.132   3.630   5.987 -0.2216  1.5309  2.1076
 7242TIP3   OH243216   0.007   1.133   1.152 -0.7363  0.1137 -0.1941
 7242TIP3    H143217   0.086   1.104   1.107 -0.9151  0.4524 -0.7397
 7242TIP3    H243218  -0.033   1.053   1.185  0.0924 -0.0132  0.5255
 7243TIP3   OH243219   1.389   5.374   1.697 -0.3209 -0.3303 -0.1208
 7243TIP3    H143220   1.357   5.290   1.663  1.2462 -0.9824 -0.0414
 7243TIP3    H243221   1.435   5.414   1.623  2.3088 -1.3389  0.8834
 7244TIP3   OH243222   1.327   5.761   3.915  0.1674 -0.0606  0.2118
 7244TIP3    H143223   1.378   5.741   3.994 -0.4850  0.1273  0.6795
 7244TIP3    H243224   1.236   5.751   3.942 -0.0186 -3.6889 -1.4766
 7245TIP3   OH243225   0.520   6.077   2.710  0.5597 -0.6332 -0.4070
 7245TIP3    H143226   0.509   6.006   2.647 -0.6884 -2.5230  1.8456
 7245TIP3    H243227   0.431   6.099   2.737  1.0996 -0.3268  1.1857
 7246TIP3   OH243228   5.543   5.903   6.029 -0.2216  0.4400  0.2558
 7246TIP3    H143229   5.556   5.830   6.089 -0.3987  0.3615  0.2013
 7246TIP3    H243230   5.627   5.914   5.985  0.0027  0.7070  0.7464
 7247TIP3   OH243231   0.369   4.452   0.297 -0.1612  0.3465  0.0669
 7247TIP3    H143232   0.457   4.469   0.263 -0.6992  1.0249 -1.0425
 7247TIP3    H243233   0.319   4.530   0.273 -1.5937 -0.9325 -1.2112
 7248TIP3   OH243234   1.066   2.909  15.729  0.2108 -0.2213 -0.5127
 7248TIP3    H143235   0.981   2.876  15.758  0.4641 -0.8936 -0.5357
 7248TIP3    H243236   1.117   2.831  15.710  1.3100  0.1592  0.8493
 7249TIP3   OH243237   0.377   1.735   0.413 -0.5667  0.5189  0.3223
 7249TIP3    H143238   0.339   1.688   0.487 -0.8632  1.3582  0.7073
 7249TIP3    H243239   0.344   1.824   0.421  2.9555  1.7642  1.7011
 7250TIP3   OH243240   1.493   6.750   2.582 -0.2389  0.0390 -0.3647
 7250TIP3    H143241   1.488   6.672   2.527  1.7428 -0.6225  0.3618
 7250TIP3    H243242   1.547   6.811   2.531  0.1761  0.0558  0.0952
 7251TIP3   OH243243   4.125   1.807  17.193 -0.2857  0.0687  0.0550
 7251TIP3    H143244   4.185   1.793  17.266  0.9639 -1.3134 -1.2167
 7251TIP3    H243245   4.060   1.738  17.202 -0.0759 -0.1615 -0.1944
 7252TIP3   OH243246   5.769   2.060  11.459  0.1103 -0.3237 -0.8976
 7252TIP3    H143247   5.855   2.035  11.492 -0.8477 -0.3268  1.7232
 7252TIP3    H243248   5.747   2.140  11.508 -1.0009  0.1639 -2.1679
 7253TIP3   OH243249   5.152   2.233  13.986 -0.9525  0.2281 -0.1498
 7253TIP3    H143250   5.189   2.148  14.007 -2.7425 -0.5337 -0.0542
 7253TIP3    H243251   5.221   2.295  14.010 -0.1138 -1.0974  0.9524
 7254TIP3   OH243252   5.103   6.342  13.973  0.4824  0.1466  0.2788
 7254TIP3    H143253   5.047   6.401  14.023  0.5237  0.7842 -0.4170
 7254TIP3    H243254   5.189   6.384  13.973  0.9593 -0.8160  1.3232
 7255TIP3   OH243255   1.613   3.181  14.201 -0.2952 -0.0381 -1.1178
 7255TIP3    H143256   1.636   3.112  14.138  0.2741  2.3954 -3.6710
 7255TIP3    H243257   1.518   3.187  14.197 -0.4071 -1.1530 -0.3344
 7256TIP3   OH243258   3.972   4.151   3.467 -0.1059  0.2096  0.3265
 7256TIP3    H143259   3.994   4.113   3.382  0.3559 -0.7643  0.8649
 7256TIP3    H243260   4.044   4.124   3.525 -0.0474  1.4646  0.8600
 7257TIP3   OH243261   5.756   1.525   3.049 -0.5056 -0.2555  0.1807
 7257TIP3    H143262   5.754   1.440   3.094 -0.4988 -0.8291 -0.8814
 7257TIP3    H243263   5.777   1.588   3.118 -1.4166 -0.9942  1.1576
 7258TIP3   OH243264   3.899   3.038  13.832  1.1997 -0.0463 -0.3304
 7258TIP3    H143265   3.940   3.089  13.762 -0.7822  0.9438 -0.8289
 7258TIP3    H243266   3.855   2.966  13.787  2.5253 -1.2217  0.2138
 7259TIP3   OH243267   6.516   3.050   5.248 -0.5036  0.1250  0.2008
 7259TIP3    H143268   6.422   3.030   5.247 -0.4191 -0.1954 -2.0249
 7259TIP3    H243269   6.548   3.023   5.163  1.8358 -0.6934  1.3021
 7260TIP3   OH243270   3.498   0.031  16.327 -0.2142 -0.5090  0.0396
 7260TIP3    H143271   3.417   0.008  16.372  0.0130  0.9157  1.2161
 7260TIP3    H243272   3.475   0.029  16.234 -1.7677  0.4937  0.3829
 7261TIP3   OH243273   0.826   0.666   2.313 -0.1852 -0.0215 -0.3007
 7261TIP3    H143274   0.859   0.583   2.278 -0.5846 -0.1571 -0.3600
 7261TIP3    H243275   0.731   0.657   2.309 -0.2273  0.2546  0.1423
 7262TIP3   OH243276   2.964   2.887   3.294  0.0700 -0.3426 -0.8013
 7262TIP3    H143277   2.977   2.901   3.200  0.1847  2.4764 -0.4042
 7262TIP3    H243278   2.869   2.890   3.305  0.1070  0.6259 -0.6701
 7263TIP3   OH243279   0.532   3.695  12.295  0.8968 -0.0429 -0.6427
 7263TIP3    H143280   0.537   3.777  12.344 -3.0515  1.0445 -1.8738
 7263TIP3    H243281   0.485   3.635  12.354 -1.0514  0.2897 -1.8390
 7264TIP3   OH243282   3.759   1.773  14.783  0.5096  0.3046  0.4735
 7264TIP3    H143283   3.759   1.822  14.865  1.0481 -0.7525  1.1176
 7264TIP3    H243284   3.666   1.762  14.761  0.2522 -1.7104  2.3699
 7265TIP3   OH243285   2.082   2.096  11.077 -0.0258 -0.6243 -0.4366
 7265TIP3    H143286   1.993   2.128  11.068  0.9803  2.6472  0.5611
 7265TIP3    H243287   2.085   2.018  11.022 -2.8352  0.5095 -2.3184
 7266TIP3   OH243288   4.727   1.587   6.040 -0.0221  0.0264 -0.5445
 7266TIP3    H143289   4.724   1.674   6.079  2.0594  0.7474 -1.9201
 7266TIP3    H243290   4.701   1.600   5.949 -2.3596 -1.2464 -0.1122
 7267TIP3   OH243291   6.028   2.874  16.791  0.1684 -0.5858  0.0450
 7267TIP3    H143292   6.014   2.870  16.886  0.9065  0.6271  0.2085
 7267TIP3    H243293   6.013   2.784  16.761 -0.6737 -0.8450  1.2236
 7268TIP3   OH243294   0.661   3.468  15.802  0.2491 -0.2018 -0.0315
 7268TIP3    H143295   0.738   3.524  15.808 -0.9396  1.3326  1.3139
 7268TIP3    H243296   0.604   3.512  15.739 -0.5115 -0.0824  0.7251
 7269TIP3   OH243297   0.813   5.148  16.201 -0.4099 -0.5371  0.0176
 7269TIP3    H143298   0.812   5.218  16.266  0.1095 -0.1366 -0.3970
 7269TIP3    H243299   0.781   5.189  16.120  0.2997 -0.6619 -0.3298
 7270TIP3   OH243300   2.550   1.945   0.072  0.2597  0.8503 -0.0778
 7270TIP3    H143301   2.475   1.895   0.103 -0.1009  1.0988 -0.5513
 7270TIP3    H243302   2.624   1.908   0.121 -0.1199  0.4108  0.1793
 7271TIP3   OH243303   1.443   3.249   0.733  0.4800 -0.6440  0.0268
 7271TIP3    H143304   1.445   3.154   0.720 -0.8875 -0.4582 -1.7613
 7271TIP3    H243305   1.533   3.277   0.718  1.5300 -1.9665  3.4439
 7272TIP3   OH243306   1.265   4.874   4.597  0.1651  0.1777  0.1109
 7272TIP3    H143307   1.175   4.879   4.565 -0.0347  0.4373  0.7170
 7272TIP3    H243308   1.313   4.937   4.543 -0.1098  0.3910  0.1117
 7273TIP3   OH243309   0.113   4.553   4.958 -0.2153  0.1743  0.1833
 7273TIP3    H143310   0.083   4.619   4.895 -1.1957 -0.5029 -0.0680
 7273TIP3    H243311   0.060   4.568   5.036 -0.0064  0.0864  0.3418
 7274TIP3   OH243312   3.491   1.978  12.102  0.3407  0.0328 -0.0217
 7274TIP3    H143313   3.485   2.068  12.136 -1.3927  0.7074 -2.0469
 7274TIP3    H243314   3.516   1.989  12.010 -0.8060 -1.5298 -0.5265
 7275TIP3   OH243315   1.175   3.022   1.328 -0.2796 -0.3363 -0.4934
 7275TIP3    H143316   1.246   3.045   1.267  2.7833 -3.8623  1.5721
 7275TIP3    H243317   1.140   2.940   1.294 -2.8057  0.8690 -0.9181
 7276TIP3   OH243318   6.192   0.672  15.342  0.2410  0.0535 -0.2162
 7276TIP3    H143319   6.111   0.716  15.365  0.1512 -0.5225  0.6065
 7276TIP3    H243320   6.165   0.584  15.314  0.6047 -0.2827  0.4721
 7277TIP3   OH243321   4.693   6.420  10.654  0.1150  0.1581 -0.4282
 7277TIP3    H143322   4.661   6.509  10.665 -2.1031 -0.5782 -0.5792
 7277TIP3    H243323   4.746   6.422  10.574 -0.3273  1.2192 -0.6928
 7278TIP3   OH243324   3.504   2.517   5.167 -0.0952  0.3466  0.2236
 7278TIP3    H143325   3.439   2.579   5.136 -0.2599 -0.5296 -1.2465
 7278TIP3    H243326   3.458   2.465   5.233 -1.0654 -0.6021 -1.1684
 7279TIP3   OH243327   5.068   6.727   3.180  0.2443 -0.2914 -0.4538
 7279TIP3    H143328   4.983   6.717   3.137  0.0081 -0.0907 -0.0340
 7279TIP3    H243329   5.104   6.638   3.181 -0.2511 -0.4924 -0.0381
 7280TIP3   OH243330   1.836   0.035   4.285 -0.3396 -0.1922 -0.1128
 7280TIP3    H143331   1.778  -0.015   4.227 -0.8382  0.2228  0.0193
 7280TIP3    H243332   1.814   0.005   4.373  0.1791 -0.5791 -0.1174
 7281TIP3   OH243333   2.479   6.377   3.453  0.3235  0.4948 -0.2228
 7281TIP3    H143334   2.427   6.450   3.420  0.5780  1.5719  1.6862
 7281TIP3    H243335   2.415   6.313   3.484  0.1077  0.1750 -1.3329
 7282TIP3   OH243336   2.805   1.957  13.739 -0.5839 -0.1635  0.1413
 7282TIP3    H143337   2.807   1.874  13.788 -2.1392  0.3614  1.1455
 7282TIP3    H243338   2.897   1.982  13.730 -0.1346 -1.7632  0.2540
 7283TIP3   OH243339   5.568   4.368   4.097 -0.2212 -0.6935 -0.5133
 7283TIP3    H143340   5.488   4.369   4.044 -0.4252 -0.9769 -0.2147
 7283TIP3    H243341   5.618   4.443   4.066 -1.6562  0.9034  0.9012
 7284TIP3   OH243342   4.996   3.830   6.506  0.3444 -0.1217  0.4883
 7284TIP3    H143343   4.906   3.799   6.518  0.4828 -0.5186  0.4980
 7284TIP3    H243344   4.986   3.919   6.471 -0.0693 -1.4306 -2.8855
 7285TIP3   OH243345   6.452   4.693   4.233 -0.6574  0.1341  0.2972
 7285TIP3    H143346   6.464   4.647   4.149 -0.3851 -0.0940  0.4588
 7285TIP3    H243347   6.437   4.784   4.208  1.1757  0.3957  0.0560
 7286TIP3   OH243348   2.328   1.747  11.113 -0.4036  0.7877 -0.1798
 7286TIP3    H143349   2.328   1.745  11.017  3.1566  0.9514 -0.2739
 7286TIP3    H243350   2.362   1.834  11.134 -0.8580  0.6285  1.2310
 7287TIP3   OH243351   1.207   2.531  13.142  0.3352  0.5212 -0.4848
 7287TIP3    H143352   1.257   2.453  13.166  1.4000  1.7339  1.3331
 7287TIP3    H243353   1.273   2.595  13.115 -0.2915  1.7033  0.6869
 7288TIP3   OH243354   1.275   6.384  12.784 -0.1916 -0.8249 -0.1529
 7288TIP3    H143355   1.183   6.380  12.757 -0.2569  1.4155 -0.3433
 7288TIP3    H243356   1.324   6.366  12.704 -0.4569 -1.3404 -0.2018
 7289TIP3   OH243357   1.311   0.565   0.008 -0.0156  0.0233 -0.1396
 7289TIP3    H143358   1.314   0.635  -0.058  0.3126 -1.0225 -1.2568
 7289TIP3    H243359   1.353   0.603   0.085  0.8669  0.8063 -0.9890
 7290TIP3   OH243360   5.451   3.358   3.344 -0.4004 -0.1769  0.6242
 7290TIP3    H143361   5.487   3.415   3.412  2.3850 -1.3742  0.2233
 7290TIP3    H243362   5.472   3.402   3.262 -0.1759 -0.6971  0.4006
 7291TIP3   OH243363   6.555   6.668   5.848  0.1245  0.0145  0.1907
 7291TIP3    H143364   6.473   6.717   5.849  0.1609  0.0605  0.7258
 7291TIP3    H243365   6.616   6.723   5.799  0.1135  0.4135  0.6331
 7292TIP3   OH243366   1.711   4.890  13.489  0.4123 -0.1764 -0.0220
 7292TIP3    H143367   1.778   4.949  13.454  0.4646  0.1456  0.6237
 7292TIP3    H243368   1.760   4.825  13.538  0.3472 -0.7128 -0.6551
 7293TIP3   OH243369   0.775   2.544   2.399 -0.0506 -0.6736 -0.0474
 7293TIP3    H143370   0.846   2.577   2.454 -0.0851 -0.7377  0.0370
 7293TIP3    H243371   0.741   2.469   2.448 -0.4734 -0.3654  0.1303
 7294TIP3   OH243372   6.451   1.038   2.771  0.6958  0.4958  0.4060
 7294TIP3    H143373   6.530   0.984   2.766 -0.0855 -0.7432  1.1835
 7294TIP3    H243374   6.382   0.977   2.794 -0.2025  1.8513  1.3688
 7295TIP3   OH243375   4.577   1.069  16.647 -0.0009  0.3971  0.5087
 7295TIP3    H143376   4.572   1.100  16.557  0.4144 -0.4567  0.1861
 7295TIP3    H243377   4.488   1.045  16.670 -0.0799  0.4759  0.2796
 7296TIP3   OH243378   4.947   5.009  15.186  0.6607  0.0878 -0.1490
 7296TIP3    H143379   4.993   4.933  15.222 -1.6439 -1.3931 -0.1981
 7296TIP3    H243380   4.911   4.978  15.103  0.5829  1.5749 -0.6871
 7297TIP3   OH243381   6.603   0.681  15.282 -0.4825  0.6158  0.4315
 7297TIP3    H143382   6.552   0.605  15.311  0.8071 -0.1513  0.7278
 7297TIP3    H243383   6.557   0.756  15.320 -1.8995  0.0112 -0.0532
 7298TIP3   OH243384   2.628   2.237  15.519 -0.4022  0.0673 -0.7497
 7298TIP3    H143385   2.659   2.258  15.431  0.0712 -2.0189 -1.0916
 7298TIP3    H243386   2.533   2.230  15.510 -0.3801  0.1311 -1.0326
 7299TIP3   OH243387   6.543   1.520  13.308  0.0966 -0.0605  0.0466
 7299TIP3    H143388   6.487   1.451  13.344 -0.6133  0.5253  0.0969
 7299TIP3    H243389   6.624   1.475  13.283 -1.0293 -1.2554 -1.6018
 7300TIP3   OH243390   4.143   0.331   0.696 -0.1886 -0.1053  0.0973
 7300TIP3    H143391   4.061   0.300   0.735 -0.8183  0.8816 -0.4344
 7300TIP3    H243392   4.163   0.266   0.628 -0.2880 -0.5860  0.5171
 7301TIP3   OH243393   1.000   4.611   1.537  1.2987  0.1104 -0.1915
 7301TIP3    H143394   0.907   4.612   1.514  1.3516 -0.3562 -0.4137
 7301TIP3    H243395   1.001   4.635   1.630  1.2398  4.3024 -1.1660
 7302TIP3   OH243396   3.972   2.954   0.196 -0.3062  0.7003 -0.4723
 7302TIP3    H143397   4.012   2.900   0.128 -1.5044 -1.1419  0.2583
 7302TIP3    H243398   3.986   2.906   0.277 -1.5428  1.3859  0.1712
 7303TIP3   OH243399   0.100   1.967  13.109  1.1447  0.0775  0.1617
 7303TIP3    H143400   0.027   1.944  13.166  1.1358  1.4869  0.7373
 7303TIP3    H243401   0.069   2.043  13.059  1.2869 -0.9174 -1.4521
 7304TIP3   OH243402   2.068   3.421  14.174  0.0830  0.5208  0.0128
 7304TIP3    H143403   2.024   3.362  14.234  1.4851  0.5617  1.1043
 7304TIP3    H243404   2.065   3.507  14.218  2.1566  0.3184  0.6143
 7305TIP3   OH243405   4.424   2.991   1.250  0.2434 -0.1884 -0.0562
 7305TIP3    H143406   4.479   2.993   1.328 -0.8552  0.1578  0.7131
 7305TIP3    H243407   4.385   2.904   1.250  1.7977 -0.9067 -1.3167
 7306TIP3   OH243408   4.096   1.867  14.143  0.3960 -0.1690 -0.0035
 7306TIP3    H143409   4.146   1.845  14.221 -0.9699  1.5504  1.3803
 7306TIP3    H243410   4.147   1.934  14.099  1.1289 -1.0854 -0.5728
 7307TIP3   OH243411   3.984   1.658   4.541 -0.7135  0.3112 -0.2903
 7307TIP3    H143412   3.944   1.716   4.476  0.5335 -0.2265 -1.5567
 7307TIP3    H243413   4.044   1.716   4.590  0.9122  0.0137 -1.8880
 7308TIP3   OH243414   3.159   4.840  10.557 -0.8851 -0.7728 -0.4477
 7308TIP3    H143415   3.107   4.915  10.585  0.1829 -0.1009 -0.2330
 7308TIP3    H243416   3.143   4.774  10.624  0.9622  0.5204  1.3385
 7309TIP3   OH243417   2.943   0.138  14.191  0.3196  0.1127 -0.4053
 7309TIP3    H143418   3.001   0.113  14.119 -0.1672 -0.6900 -0.5256
 7309TIP3    H243419   2.904   0.055  14.220  0.4141  0.4516  0.6901
 7310TIP3   OH243420   6.041   2.441  14.682  0.0752 -0.2372 -0.5651
 7310TIP3    H143421   6.117   2.488  14.649 -0.8392  3.1194  1.8669
 7310TIP3    H243422   6.064   2.418  14.772 -1.4750  0.1566 -0.0452
 7311TIP3   OH243423   2.443   3.200   2.531  0.0351 -0.2784  0.5001
 7311TIP3    H143424   2.511   3.146   2.491  1.2366  2.3461 -1.1013
 7311TIP3    H243425   2.489   3.256   2.592 -0.6847  1.4056 -0.4804
 7312TIP3   OH243426   1.846   5.789   0.299  0.4898  0.0826  0.0627
 7312TIP3    H143427   1.849   5.697   0.324  2.4076  0.4838  1.3724
 7312TIP3    H243428   1.877   5.837   0.376 -2.4809  2.0024  0.1665
 7313TIP3   OH243429   3.631   0.914  11.348  0.2646 -0.0768 -0.4305
 7313TIP3    H143430   3.673   0.991  11.387 -1.3357  0.0682  1.0447
 7313TIP3    H243431   3.611   0.940  11.258  2.8167  0.0289 -1.0042
 7314TIP3   OH243432   3.586   2.182  11.471  0.3969 -0.3909 -0.0201
 7314TIP3    H143433   3.608   2.097  11.509  1.1261  0.8451  2.4545
 7314TIP3    H243434   3.501   2.169  11.430  0.2047 -2.1594  0.8896
 7315TIP3   OH243435   4.999   5.549   3.163  0.4393 -0.0006  0.1040
 7315TIP3    H143436   4.924   5.606   3.144  0.3926 -0.8957 -2.5253
 7315TIP3    H243437   4.959   5.465   3.184  0.6530  0.0719  0.8268
 7316TIP3   OH243438   3.441   4.243  14.609 -0.0010 -0.4625  0.1219
 7316TIP3    H143439   3.508   4.280  14.667  0.3092 -1.4004  0.3726
 7316TIP3    H243440   3.358   4.277  14.642  0.3466  0.7331 -0.2037
 7317TIP3   OH243441   0.878   2.661  12.559  0.0367 -0.4568  0.0407
 7317TIP3    H143442   0.848   2.606  12.487  1.2977 -0.9234 -0.1323
 7317TIP3    H243443   0.856   2.611  12.638  1.4321 -1.3320 -0.1249
 7318TIP3   OH243444   4.630   3.194   4.086  0.2539  0.1400 -0.4908
 7318TIP3    H143445   4.646   3.153   4.171  1.2345  0.1462 -0.6646
 7318TIP3    H243446   4.620   3.121   4.025 -1.9618  0.1163 -0.1127
 7319TIP3   OH243447   3.494   4.802  12.565 -0.3300  0.6119  0.0468
 7319TIP3    H143448   3.472   4.832  12.477 -0.2996  0.5241  0.0102
 7319TIP3    H243449   3.578   4.844  12.583  0.2337 -0.2969 -0.4188
 7320TIP3   OH243450   1.988   1.342   4.585  0.3080  0.6599  0.1583
 7320TIP3    H143451   2.031   1.286   4.649  0.4124 -0.5125 -0.9190
 7320TIP3    H243452   1.897   1.311   4.583  0.4309  0.3478 -0.6398
 7321TIP3   OH243453   1.994   1.382   1.881 -0.0245  0.0995  0.6894
 7321TIP3    H143454   2.030   1.353   1.964  0.5387  2.8038  1.4503
 7321TIP3    H243455   2.069   1.384   1.822  0.0105  0.3572  0.7421
 7322TIP3   OH243456   5.676   5.140   2.126 -0.0730  0.0677  0.4411
 7322TIP3    H143457   5.684   5.226   2.084 -1.3055 -0.2704 -0.5372
 7322TIP3    H243458   5.582   5.121   2.124  0.1528 -1.1569  0.9459
 7323TIP3   OH243459   4.711   1.301   3.891  0.0154  0.0244  0.5501
 7323TIP3    H143460   4.737   1.227   3.836  0.0967 -0.0421  0.6767
 7323TIP3    H243461   4.616   1.291   3.901 -0.1584  0.6457 -0.4576
 7324TIP3   OH243462   5.255   3.475   1.420  0.5339 -0.1233 -0.2297
 7324TIP3    H143463   5.244   3.388   1.458 -0.6225  0.3272  0.4902
 7324TIP3    H243464   5.349   3.492   1.425  0.5022 -0.4334  1.6245
 7325TIP3   OH243465   4.979   3.270  11.487 -0.2628 -0.2313 -0.1085
 7325TIP3    H143466   5.036   3.216  11.543  0.3988  0.7139  0.1402
 7325TIP3    H243467   4.898   3.278  11.538 -0.5112 -1.3131 -0.3200
 7326TIP3   OH243468   3.415   2.252   3.772  0.1398 -0.5209 -0.0308
 7326TIP3    H143469   3.367   2.331   3.797  0.1231 -0.2626 -0.8950
 7326TIP3    H243470   3.381   2.185   3.832  0.4056  0.1902  0.9388
 7327TIP3   OH243471   4.541   5.095   4.061 -0.4203 -0.0814  0.3338
 7327TIP3    H143472   4.580   5.127   3.980  2.0631  0.4473  1.6673
 7327TIP3    H243473   4.535   5.172   4.117  1.7080 -1.0914  2.0665
 7328TIP3   OH243474   4.482   4.414   3.831 -0.1762  0.1140 -0.2910
 7328TIP3    H143475   4.413   4.365   3.875  0.3382  0.4263  0.8897
 7328TIP3    H243476   4.444   4.439   3.747 -1.5827  0.4860  0.4391
 7329TIP3   OH243477   3.394   0.973  11.955 -0.0921  0.2597  0.0668
 7329TIP3    H143478   3.322   0.956  12.016  0.4048 -0.6317  0.4142
 7329TIP3    H243479   3.473   0.954  12.006  0.3680  0.6454 -0.5024
 7330TIP3   OH243480   4.652   4.607  12.199 -0.1218  0.6235  0.0488
 7330TIP3    H143481   4.650   4.518  12.235 -0.2719  0.1004 -1.2299
 7330TIP3    H243482   4.561   4.623  12.171  0.0218  0.9673 -0.2217
 7331TIP3   OH243483   1.838   1.131  14.435  0.1080 -0.1583 -0.6820
 7331TIP3    H143484   1.752   1.165  14.411  1.4141  1.7384 -2.9196
 7331TIP3    H243485   1.876   1.101  14.352  0.2329 -4.3415  0.7860
 7332TIP3   OH243486   3.952   6.564  15.512 -0.0572 -0.3216 -0.4073
 7332TIP3    H143487   3.890   6.541  15.443 -0.4237 -1.7720  0.3810
 7332TIP3    H243488   4.032   6.518  15.490  0.9331  1.9447 -1.6898
 7333TIP3   OH243489   5.857   2.663   4.806 -0.5016 -0.0633 -0.4046
 7333TIP3    H143490   5.926   2.615   4.760 -0.3128  0.8153 -1.0581
 7333TIP3    H243491   5.902   2.709   4.876 -0.9243 -2.1264  1.2532
 7334TIP3   OH243492   5.258   1.221   2.568  0.8360 -0.3120  0.0304
 7334TIP3    H143493   5.352   1.232   2.551  0.6419 -0.0790 -0.8928
 7334TIP3    H243494   5.217   1.299   2.530  0.3374 -0.0507  1.0855
 7335TIP3   OH243495   6.773   5.751   4.774 -0.2959  1.0588 -0.6813
 7335TIP3    H143496   6.734   5.673   4.734  0.0526  0.6738 -0.2660
 7335TIP3    H243497   6.732   5.757   4.860  1.3926 -0.0121  0.2310
 7336TIP3   OH243498   5.309   5.871  11.973  0.1616  0.1995  0.2867
 7336TIP3    H143499   5.326   5.782  12.004 -0.9208  0.0795  0.5723
 7336TIP3    H243500   5.304   5.923  12.053  0.0889  0.3891  0.1570
 7337TIP3   OH243501   4.286   2.712   4.964 -0.0329 -0.5933  0.1276
 7337TIP3    H143502   4.303   2.649   4.894  0.2999  1.4683 -1.7179
 7337TIP3    H243503   4.348   2.783   4.948 -0.4535  0.2532  2.1009
 7338TIP3   OH243504   2.688   3.397   4.985 -0.1055  0.0555  0.4069
 7338TIP3    H143505   2.720   3.456   5.053  0.3011 -0.0689  0.3248
 7338TIP3    H243506   2.729   3.429   4.905  4.2499 -3.3283  1.0501
 7339TIP3   OH243507   4.561   2.956   3.329 -0.3319  0.5109 -0.7839
 7339TIP3    H143508   4.625   3.015   3.288  0.1225  0.0430 -0.7513
 7339TIP3    H243509   4.593   2.868   3.309 -0.0723  0.2735  0.6146
 7340TIP3   OH243510   0.675   0.442   2.980 -0.0417  0.1527 -0.1280
 7340TIP3    H143511   0.681   0.377   2.910 -0.6628 -0.4298  0.3404
 7340TIP3    H243512   0.588   0.427   3.018  1.2108 -1.1493  2.3049
 7341TIP3   OH243513   5.294   4.303  16.246  0.0958  0.7885  0.1647
 7341TIP3    H143514   5.359   4.365  16.281  1.1399 -0.7246  0.9493
 7341TIP3    H243515   5.326   4.283  16.158  0.1027  0.8819  0.1458
 7342TIP3   OH243516   5.787   5.527  12.044  0.2783  0.4835  0.9329
 7342TIP3    H143517   5.880   5.526  12.066  0.4659 -1.3450  0.1567
 7342TIP3    H243518   5.767   5.436  12.022 -1.8487  0.7285  1.7398
 7343TIP3   OH243519   0.314   1.098   6.835  0.2875  0.2367  0.0141
 7343TIP3    H143520   0.397   1.122   6.878  0.2568 -0.8660  0.7345
 7343TIP3    H243521   0.283   1.179   6.795  0.9933  1.0021  0.9672
 7344TIP3   OH243522   2.015   1.686   5.888 -1.0689  0.2703  0.2884
 7344TIP3    H143523   2.004   1.771   5.847 -1.1756  0.3174  0.4160
 7344TIP3    H243524   1.989   1.623   5.821  1.2630  0.2427 -0.6309
 7345TIP3   OH243525   4.126   3.680  17.159 -0.6347  0.4268 -0.0440
 7345TIP3    H143526   4.134   3.686  17.063 -1.4013 -0.1459 -0.1450
 7345TIP3    H243527   4.051   3.623  17.173  0.1531 -0.3920  0.9114
 7346TIP3   OH243528   1.155   5.572  10.542 -0.3508  0.3488 -0.6311
 7346TIP3    H143529   1.201   5.655  10.553 -1.5142  0.7499  1.5262
 7346TIP3    H243530   1.196   5.514  10.607 -1.1369 -0.0513 -0.4939
 7347TIP3   OH243531   6.571   5.541  13.818  0.5000  0.3761 -0.0998
 7347TIP3    H143532   6.517   5.463  13.831  1.5010 -0.3661 -0.3095
 7347TIP3    H243533   6.512   5.605  13.779 -0.1234 -0.5675 -0.7218
 7348TIP3   OH243534   0.257   5.932   5.648  0.1456 -0.2369  0.0465
 7348TIP3    H143535   0.210   5.850   5.666 -1.2467  0.1498 -1.7205
 7348TIP3    H243536   0.251   5.982   5.730 -1.7839 -0.5519  0.1158
 7349TIP3   OH243537   0.749   1.732  14.810  0.5076  0.0428 -0.0126
 7349TIP3    H143538   0.674   1.791  14.798  0.7019  0.4627  0.8361
 7349TIP3    H243539   0.756   1.685  14.727 -2.2195 -1.7983  0.7474
 7350TIP3   OH243540   2.011   3.063   1.330  0.0354  0.0390 -0.0530
 7350TIP3    H143541   1.963   3.144   1.313 -0.9431 -0.2342  1.2736
 7350TIP3    H243542   2.075   3.086   1.398  0.6834  0.0250 -0.6591
 7351TIP3   OH243543   6.249   5.462   3.352 -0.1293  0.3728 -0.2843
 7351TIP3    H143544   6.284   5.413   3.426 -0.5780  0.5082  0.0215
 7351TIP3    H243545   6.312   5.533   3.338  0.2714 -0.0139 -0.4235
 7352TIP3   OH243546   5.957   0.586  10.640 -0.5140  0.2102  0.8477
 7352TIP3    H143547   6.017   0.635  10.583 -1.2345  0.7657  0.5487
 7352TIP3    H243548   5.998   0.589  10.726  0.5235 -0.5260  0.3890
 7353TIP3   OH243549   1.182   2.741  17.052 -0.5700  0.0042 -0.5080
 7353TIP3    H143550   1.130   2.678  17.002  0.2935  0.0693 -1.4889
 7353TIP3    H243551   1.184   2.819  16.997 -1.2022  0.7170  0.4728
 7354TIP3   OH243552   1.817   1.332   5.147  0.0711 -0.2325 -0.0319
 7354TIP3    H143553   1.858   1.336   5.060  1.1520  0.1727  0.4917
 7354TIP3    H243554   1.852   1.253   5.187  0.6887  0.3495  0.5883
 7355TIP3   OH243555   1.383   1.575   4.120 -0.8875 -0.0370 -0.4586
 7355TIP3    H143556   1.451   1.643   4.120 -1.6568  0.7497  0.6301
 7355TIP3    H243557   1.428   1.497   4.091  0.5172  0.4809  0.2567
 7356TIP3   OH243558   1.845   6.680  15.182  0.0307 -0.1487 -0.1356
 7356TIP3    H143559   1.909   6.748  15.160  1.4582 -1.1311  0.8382
 7356TIP3    H243560   1.799   6.714  15.259 -1.5034  1.1087 -1.5928
 7357TIP3   OH243561   5.624   1.956  12.714  0.2169  0.1212 -0.6339
 7357TIP3    H143562   5.699   1.907  12.748 -0.1568 -0.8795 -1.2388
 7357TIP3    H243563   5.663   2.023  12.658  0.7497  0.7297  0.4555
 7358TIP3   OH243564   3.359   3.401   2.878  0.2434  0.8717  0.0680
 7358TIP3    H143565   3.417   3.348   2.932 -0.8022  1.3556  1.7278
 7358TIP3    H243566   3.337   3.345   2.804  0.7012 -0.2960  0.7993
 7359TIP3   OH243567   6.491   4.670   1.224 -0.2066  0.2783 -0.4205
 7359TIP3    H143568   6.436   4.650   1.299 -0.6982 -0.1540 -0.8882
 7359TIP3    H243569   6.544   4.591   1.211  0.9064  0.8792  0.3422
 7360TIP3   OH243570   2.680   1.364   4.081 -0.1049 -0.1077  0.4271
 7360TIP3    H143571   2.678   1.454   4.047 -1.3665 -0.4890 -0.5522
 7360TIP3    H243572   2.596   1.354   4.125  0.9061 -0.1226  2.4058
 7361TIP3   OH243573   3.055   4.130   0.208 -0.9142 -0.3091  0.1354
 7361TIP3    H143574   3.126   4.125   0.144 -1.1694  0.8399 -0.2546
 7361TIP3    H243575   3.056   4.045   0.251  1.1791 -0.0646  0.6467
 7362TIP3   OH243576   6.751   4.053  15.019 -0.4737 -0.1467 -0.7760
 7362TIP3    H143577   6.687   4.107  14.973 -0.2342 -0.3519 -1.3432
 7362TIP3    H243578   6.821   4.115  15.041 -0.9908  0.1457  0.1144
 7363TIP3   OH243579   5.261   5.606  16.244 -0.7144 -0.3164 -0.2959
 7363TIP3    H143580   5.192   5.540  16.246 -0.0750 -0.9952 -0.3758
 7363TIP3    H243581   5.342   5.557  16.259 -0.3616  0.6379  1.0263
 7364TIP3   OH243582   2.108   2.606  14.890  0.4461  0.1289  0.0594
 7364TIP3    H143583   2.030   2.656  14.863  1.0865  0.7260 -0.7243
 7364TIP3    H243584   2.164   2.671  14.933  0.3949 -0.3583  0.8641
 7365TIP3   OH243585   1.506   2.859  13.098  0.2991  0.5086  0.3278
 7365TIP3    H143586   1.519   2.825  13.186  1.6342  0.7500  0.2347
 7365TIP3    H243587   1.412   2.870  13.090  0.0983 -0.3442  1.4137
 7366TIP3   OH243588   2.159   5.362   2.042  0.4918 -0.2243  0.0290
 7366TIP3    H143589   2.240   5.381   2.090  0.3501 -0.5295  0.3954
 7366TIP3    H243590   2.092   5.358   2.110  0.0187  0.8903 -0.3693
 7367TIP3   OH243591   3.504   1.987   5.363  0.1621  0.0219  0.1386
 7367TIP3    H143592   3.527   2.057   5.424 -2.5539 -0.7833  2.1727
 7367TIP3    H243593   3.516   1.907   5.414  0.1842 -0.8182 -1.1686
 7368TIP3   OH243594   2.679   0.838  16.983  0.9199  0.0290  0.1400
 7368TIP3    H143595   2.603   0.874  16.937  1.5840  1.4714  0.1548
 7368TIP3    H243596   2.748   0.836  16.917  0.9224 -1.0937  0.1774
 7369TIP3   OH243597   6.383   4.520  15.966 -0.3323  0.2547 -0.3836
 7369TIP3    H143598   6.414   4.438  16.004  0.2703  0.8676  0.4583
 7369TIP3    H243599   6.288   4.511  15.962 -0.2253 -0.7705 -0.9765
 7370TIP3   OH243600   4.646   0.093   0.018 -0.4828  0.3431  0.0520
 7370TIP3    H143601   4.663   0.101  -0.076  0.0259  0.4240  0.1476
 7370TIP3    H243602   4.702   0.159   0.058  1.2763 -1.4500  0.6033
 7371TIP3   OH243603   5.313   3.574  15.511 -0.5076  0.1490 -0.1963
 7371TIP3    H143604   5.261   3.552  15.589  0.6311 -0.5030  0.3979
 7371TIP3    H243605   5.359   3.654  15.536 -0.9932  0.5595 -0.6131
 7372TIP3   OH243606   4.317   3.623  14.218 -0.4327 -0.6378  0.1950
 7372TIP3    H143607   4.318   3.614  14.313 -0.4281 -0.6492  0.1940
 7372TIP3    H243608   4.357   3.543  14.186 -0.8932 -0.8586  0.1663
 7373TIP3   OH243609   0.048   0.710   4.599  0.0215 -0.0639  0.5647
 7373TIP3    H143610   0.101   0.632   4.583  1.1528  0.9469 -0.7470
 7373TIP3    H243611   0.110   0.783   4.591 -1.6065  1.1703 -1.3286
 7374TIP3   OH243612   2.316   1.512  11.251  0.3710 -0.2788 -0.5443
 7374TIP3    H143613   2.313   1.596  11.204  1.9359 -0.8813 -1.7939
 7374TIP3    H243614   2.408   1.485  11.244  0.0287 -1.7358  0.4976
 7375TIP3   OH243615   0.961   2.308   4.128 -0.5357 -0.9977  0.2666
 7375TIP3    H143616   0.954   2.291   4.222 -0.8618  1.4236  0.6944
 7375TIP3    H243617   0.871   2.315   4.098 -0.4170  2.8366  0.6626
 7376TIP3   OH243618   6.200   5.966  17.267 -0.7182 -0.4194  0.3118
 7376TIP3    H143619   6.181   6.030  17.336 -0.0896 -0.8518  0.8976
 7376TIP3    H243620   6.269   6.007  17.215  0.9802 -1.3794  1.7737
 7377TIP3   OH243621   3.303   1.588  14.736 -0.6124  0.2834  0.0378
 7377TIP3    H143622   3.344   1.509  14.771 -0.2958  1.4578  2.4071
 7377TIP3    H243623   3.229   1.557  14.685 -0.1095 -1.5663  0.4171
 7378TIP3   OH243624   1.651   5.228  14.493  0.0487 -0.1899  0.7653
 7378TIP3    H143625   1.652   5.320  14.469 -0.2215 -0.7814 -1.7501
 7378TIP3    H243626   1.602   5.224  14.575 -0.0957  1.8646  0.7870
 7379TIP3   OH243627   6.138   1.774  12.427 -0.5775 -0.3278  0.5639
 7379TIP3    H143628   6.053   1.738  12.455 -0.9424  0.8345  0.9987
 7379TIP3    H243629   6.144   1.857  12.473 -0.6375  1.0937 -1.9255
 7380TIP3   OH243630   2.064   4.917  13.922 -0.0133 -0.7416 -0.5107
 7380TIP3    H143631   2.056   4.821  13.921 -0.2980 -0.7298  0.0928
 7380TIP3    H243632   1.978   4.947  13.951  0.3293 -0.3371  0.0901
 7381TIP3   OH243633   6.202   2.887  14.468  0.5039  0.0161  0.4446
 7381TIP3    H143634   6.121   2.906  14.516  0.1917 -0.9875  0.3376
 7381TIP3    H243635   6.191   2.796  14.439  1.2651  0.1854 -0.3812
 7382TIP3   OH243636   5.881   1.929   1.858  0.6150 -0.1358  0.7753
 7382TIP3    H143637   5.803   1.875   1.850  0.0426  0.9345 -0.8976
 7382TIP3    H243638   5.900   1.929   1.952 -0.9293 -1.0280  1.0994
 7383TIP3   OH243639   1.431   4.088   1.664  0.8393 -0.3618 -0.4769
 7383TIP3    H143640   1.411   4.179   1.685  1.9154 -0.3471  0.5578
 7383TIP3    H243641   1.383   4.071   1.583 -1.2910  0.3780  0.6026
 7384TIP3   OH243642   0.602   4.584  11.382  0.2642  0.4427  0.6301
 7384TIP3    H143643   0.603   4.673  11.345  0.8978 -0.0058 -0.4436
 7384TIP3    H243644   0.691   4.570  11.412  0.4762 -0.2964 -0.3265
 7385TIP3   OH243645   3.100   5.117   3.438 -0.4030  0.0991  0.1008
 7385TIP3    H143646   3.049   5.053   3.387 -0.3957  0.1832 -0.0131
 7385TIP3    H243647   3.071   5.202   3.404  0.6769  0.1163 -0.7815
 7386TIP3   OH243648   6.286   6.472   4.284  0.6451  0.4372  0.0819
 7386TIP3    H143649   6.367   6.501   4.241  0.8295  0.8283  0.6818
 7386TIP3    H243650   6.237   6.552   4.299 -0.1553  0.1284 -0.8744
 7387TIP3   OH243651   4.196   3.151   2.268 -0.1475 -0.0460 -0.5044
 7387TIP3    H143652   4.204   3.100   2.349 -0.6993  0.8959  0.1557
 7387TIP3    H243653   4.146   3.229   2.294 -2.7169 -1.0081 -2.3046
 7388TIP3   OH243654   6.180   3.574  16.287 -0.2873 -0.8240 -0.2164
 7388TIP3    H143655   6.221   3.535  16.210  3.0682 -0.4146  1.2751
 7388TIP3    H243656   6.185   3.505  16.354 -0.3752 -0.1238  0.5164
 7389TIP3   OH243657   5.583   4.691  10.900  0.0043 -0.0099 -0.2207
 7389TIP3    H143658   5.587   4.611  10.952 -1.1277 -0.5741 -0.9797
 7389TIP3    H243659   5.500   4.732  10.926  0.0247  0.3241 -0.6895
 7390TIP3   OH243660   0.016   4.461  16.097  0.7237 -0.4332 -0.1149
 7390TIP3    H143661  -0.051   4.407  16.139  2.1289 -1.4038  0.9465
 7390TIP3    H243662  -0.006   4.459  16.004 -0.5207 -0.9984  0.1800
 7391TIP3   OH243663   0.373   0.980  14.435  0.0103  0.1063  0.0251
 7391TIP3    H143664   0.437   0.923  14.394 -1.4422  0.4684 -2.8707
 7391TIP3    H243665   0.305   0.921  14.468 -0.7940 -0.0020 -1.7252
 7392TIP3   OH243666   3.039   5.212   4.098  0.0038  0.1871  0.2958
 7392TIP3    H143667   2.979   5.152   4.142 -1.6965  1.8737  0.2771
 7392TIP3    H243668   2.992   5.241   4.020  1.1339  0.9602 -0.1135
 7393TIP3   OH243669   1.030   2.640  16.562 -0.2429  0.7888 -0.3061
 7393TIP3    H143670   1.029   2.735  16.555 -0.1591  0.7289 -1.2112
 7393TIP3    H243671   0.937   2.615  16.567 -0.2429  0.9567  0.5328
 7394TIP3   OH243672   6.475   6.521  16.992  0.0020  0.1851  0.3897
 7394TIP3    H143673   6.397   6.573  16.972 -1.4956 -2.4215 -0.8224
 7394TIP3    H243674   6.500   6.481  16.909  0.2958 -2.0826  1.5377
 7395TIP3   OH243675   3.888   5.225  16.158 -0.2482 -0.1679 -0.5062
 7395TIP3    H143676   3.871   5.146  16.106  1.5908 -1.4815  0.7999
 7395TIP3    H243677   3.930   5.192  16.237 -0.8266  2.0199  0.7431
 7396TIP3   OH243678   5.079   4.554   1.525  0.6461 -0.0931  0.1728
 7396TIP3    H143679   5.104   4.573   1.435  2.8067 -0.6364  0.6487
 7396TIP3    H243680   5.017   4.482   1.518 -0.5865  1.0366 -0.9806
 7397TIP3   OH243681   5.250   6.159   3.978 -0.3058 -0.0902  0.4140
 7397TIP3    H143682   5.314   6.145   3.908 -1.5371 -1.2781 -0.4953
 7397TIP3    H243683   5.214   6.246   3.960  1.1322  0.6443  1.0111
 7398TIP3   OH243684   5.884   6.027  14.897 -0.0814  0.4868 -0.3696
 7398TIP3    H143685   5.809   5.987  14.940 -1.5274  0.8135 -2.4616
 7398TIP3    H243686   5.917   5.960  14.838  2.4138 -0.2559  1.7771
 7399TIP3   OH243687   4.458   4.568  13.570  0.4015 -0.2935 -0.6526
 7399TIP3    H143688   4.483   4.493  13.515  0.7788 -0.8690  0.3004
 7399TIP3    H243689   4.366   4.551  13.591  0.3593 -0.2583 -0.8042
 7400TIP3   OH243690   1.823   1.294  11.333  0.0100  0.0629  0.1817
 7400TIP3    H143691   1.904   1.343  11.321 -0.1074  0.5805  1.3931
 7400TIP3    H243692   1.847   1.203  11.314  0.4735  0.4395 -1.0692
 7401TIP3   OH243693   6.599   1.854  14.140 -0.1899  0.0382  0.1431
 7401TIP3    H143694   6.573   1.941  14.111  1.4339  0.1691 -1.0077
 7401TIP3    H243695   6.600   1.801  14.060 -2.1567 -1.3301  0.9674
 7402TIP3   OH243696   5.538   5.816   1.321  0.1635 -0.6436 -0.6307
 7402TIP3    H143697   5.599   5.753   1.284  1.2616  0.5713 -0.9374
 7402TIP3    H243698   5.505   5.866   1.246 -2.0782 -1.9987 -0.6060
 7403TIP3   OH243699   1.002   0.993  13.594  0.6181  0.1378  0.3121
 7403TIP3    H143700   1.026   1.060  13.658 -0.1822  2.2573 -1.5432
 7403TIP3    H243701   0.911   1.015  13.570  0.0893 -2.0588  0.2111
 7404TIP3   OH243702   2.723   5.604   0.321 -0.2907  0.4701  0.3654
 7404TIP3    H143703   2.653   5.543   0.301  1.1213 -0.3673 -2.2104
 7404TIP3    H243704   2.691   5.689   0.288  0.5428 -0.2276 -2.3623
 7405TIP3   OH243705   3.622   3.194   5.981 -0.0429 -0.0839  0.2837
 7405TIP3    H143706   3.595   3.244   5.904  0.0487  0.3458  0.5285
 7405TIP3    H243707   3.713   3.219   5.995  0.6577 -1.9272 -0.8524
 7406TIP3   OH243708   6.117   5.466   2.391 -0.2388  0.7690  0.2147
 7406TIP3    H143709   6.143   5.558   2.381  0.1224  0.8134  1.4823
 7406TIP3    H243710   6.144   5.424   2.309  0.2056  1.6445 -0.0936
 7407TIP3   OH243711   4.420   5.668   2.465 -0.8254 -0.4751  0.4026
 7407TIP3    H143712   4.494   5.608   2.471 -1.6254 -1.4664  0.3628
 7407TIP3    H243713   4.452   5.749   2.506 -0.2374 -1.4073  1.8478
 7408TIP3   OH243714   1.214   6.254   1.730 -0.5101 -0.3572  0.6762
 7408TIP3    H143715   1.164   6.319   1.778 -1.1927 -1.2133  1.1501
 7408TIP3    H243716   1.165   6.172   1.743  1.9191 -1.5898  2.6211
 7409TIP3   OH243717   0.459   0.897   0.944 -0.6311 -0.1945 -0.4129
 7409TIP3    H143718   0.495   0.862   1.025 -0.7455  2.9988  1.0862
 7409TIP3    H243719   0.522   0.873   0.876  0.4537 -1.2103  0.9502
 7410TIP3   OH243720   5.018   6.537   0.375  0.5733 -0.6994  0.9400
 7410TIP3    H143721   5.015   6.591   0.296  0.8356 -1.2199  0.5727
 7410TIP3    H243722   5.107   6.501   0.375  0.0221 -2.0860  0.5455
 7411TIP3   OH243723   2.894   6.771   3.413  0.0659  0.0844  0.0808
 7411TIP3    H143724   2.972   6.823   3.431  1.6244 -2.1095 -0.1484
 7411TIP3    H243725   2.857   6.752   3.499 -0.2191  1.0692  0.1910
 7412TIP3   OH243726   0.658   5.247  13.483 -0.4595 -0.2002  0.4685
 7412TIP3    H143727   0.580   5.233  13.536  0.6481 -0.4782  2.0873
 7412TIP3    H243728   0.680   5.340  13.496  0.3732 -0.5008  1.3289
 7413TIP3   OH243729   2.766   3.585   5.166  0.4905 -0.3752  0.0830
 7413TIP3    H143730   2.827   3.628   5.106 -1.0330  0.3728 -0.9429
 7413TIP3    H243731   2.717   3.657   5.206  0.5655 -0.9498  1.2292
 7414TIP3   OH243732   3.387   4.738   3.810  0.2145 -0.0871  0.3524
 7414TIP3    H143733   3.299   4.701   3.797 -0.5656  2.4132 -2.0656
 7414TIP3    H243734   3.446   4.666   3.789 -1.2780 -0.4746 -2.9603
 7415TIP3   OH243735   2.657   1.640   3.970 -0.0477 -0.2563 -0.0902
 7415TIP3    H143736   2.573   1.595   3.964 -1.7075  2.4067  2.1108
 7415TIP3    H243737   2.634   1.732   3.982  3.2328  0.9226 -2.1270
 7416TIP3   OH243738   1.011   6.796  13.720 -0.5560  0.4903  0.5401
 7416TIP3    H143739   0.982   6.844  13.642 -0.6758  0.8075  0.7751
 7416TIP3    H243740   0.934   6.746  13.747 -0.4469  0.2074  0.3231
 7417TIP3   OH243741   1.530   2.792   1.931  0.0566  0.5183  0.0401
 7417TIP3    H143742   1.528   2.884   1.958 -1.3864  0.1775  1.2017
 7417TIP3    H243743   1.547   2.794   1.837  1.0653  1.9292  0.2370
 7418TIP3   OH243744   2.432   1.281  12.739 -0.2617  0.0802 -0.0618
 7418TIP3    H143745   2.426   1.328  12.822 -0.0187 -1.4029  0.8019
 7418TIP3    H243746   2.372   1.328  12.681 -2.9979 -0.9026  1.9165
 7419TIP3   OH243747   0.694   5.135   2.461  0.2530 -0.5095  0.2701
 7419TIP3    H143748   0.693   5.225   2.428  1.2155 -0.3354  0.7113
 7419TIP3    H243749   0.622   5.092   2.415  1.6367 -0.3085 -2.1346
 7420TIP3   OH243750   6.181   2.368  12.282  0.2550  0.3089  0.0690
 7420TIP3    H143751   6.199   2.387  12.374 -0.3226 -0.4794  0.3519
 7420TIP3    H243752   6.254   2.314  12.253  1.5761  2.3906 -0.5610
 7421TIP3   OH243753   0.708   4.667  16.451  0.4668  0.1159  0.1594
 7421TIP3    H143754   0.650   4.744  16.455 -1.0857 -1.0628  0.7787
 7421TIP3    H243755   0.785   4.698  16.403 -0.4049  1.8893 -0.1451
 7422TIP3   OH243756   1.902   2.412   1.828 -0.6412  0.4810 -0.4002
 7422TIP3    H143757   1.852   2.367   1.761 -0.6463  0.9721 -0.7254
 7422TIP3    H243758   1.993   2.389   1.810 -0.7531 -0.5247  0.2752
 7423TIP3   OH243759   3.041   3.022   1.027  0.4999 -0.1033 -0.9248
 7423TIP3    H143760   2.966   2.997   1.081  1.2021  0.8935  0.5692
 7423TIP3    H243761   3.033   3.117   1.017  3.7732  0.7251  2.8773
 7424TIP3   OH243762   0.955   1.761   5.138  0.2456  0.5467 -0.1456
 7424TIP3    H143763   0.876   1.706   5.134  0.9009 -0.3625 -0.6892
 7424TIP3    H243764   0.983   1.755   5.229  1.1943 -1.2977 -0.5368
 7425TIP3   OH243765   3.068   6.659   1.812  0.0680 -0.1771  0.2488
 7425TIP3    H143766   3.151   6.702   1.793 -0.3603  0.0326 -1.2125
 7425TIP3    H243767   3.092   6.580   1.860  1.5402 -2.5697 -4.1212
 7426TIP3   OH243768   0.505   2.292  13.704 -0.3704  0.1271 -0.0563
 7426TIP3    H143769   0.489   2.267  13.613  0.6017  4.9528 -1.6834
 7426TIP3    H243770   0.599   2.312  13.706 -0.2871 -0.4177  2.1684
 7427TIP3   OH243771   3.499   6.804   4.576 -0.0090  0.2137  0.0725
 7427TIP3    H143772   3.505   6.743   4.650 -1.7110 -0.2990 -0.1944
 7427TIP3    H243773   3.446   6.877   4.610  3.4470  2.4188  0.9411
 7428TIP3   OH243774   4.635   4.027   6.705 -0.3285  0.1129 -0.3074
 7428TIP3    H143775   4.691   4.104   6.711  1.3243 -0.9890 -1.1919
 7428TIP3    H243776   4.681   3.961   6.757 -0.2299 -1.1226 -1.9237
 7429TIP3   OH243777   0.676   4.531  13.357 -0.0150 -0.4651 -0.0395
 7429TIP3    H143778   0.760   4.487  13.372  0.8495  1.0798 -0.2728
 7429TIP3    H243779   0.623   4.508  13.434  0.6020 -1.4608  0.0961
 7430TIP3   OH243780   2.897   1.374  10.657 -0.3277  0.5363  0.5398
 7430TIP3    H143781   2.877   1.433  10.584  1.2395 -0.3773 -0.6640
 7430TIP3    H243782   2.933   1.432  10.724 -0.2624  1.1744 -0.0282
 7431TIP3   OH243783   4.917   2.608  12.614 -0.1523  0.0900 -0.2931
 7431TIP3    H143784   4.995   2.571  12.573 -0.4109  0.4723 -1.1481
 7431TIP3    H243785   4.935   2.702  12.616  0.3661 -0.0291  1.5746
 7432TIP3   OH243786   6.352   1.849   1.362 -0.2730 -0.4801 -0.1209
 7432TIP3    H143787   6.281   1.789   1.384 -0.7549  0.4396  0.9137
 7432TIP3    H243788   6.418   1.834   1.430 -0.3381  0.0358  0.0638
 7433TIP3   OH243789   1.869   4.328   4.620 -0.2124 -0.4435 -0.4052
 7433TIP3    H143790   1.828   4.335   4.534 -0.5482 -3.7240 -0.5788
 7433TIP3    H243791   1.935   4.260   4.610 -0.0943 -0.7137  1.8892
 7434TIP3   OH243792   6.511   5.460   5.718  0.8596  0.3756  0.0789
 7434TIP3    H143793   6.423   5.498   5.723  0.8685  0.1413  2.1548
 7434TIP3    H243794   6.497   5.367   5.702  0.7405  0.4502 -0.2468
 7435TIP3   OH243795   3.716   2.546   2.209  0.1404 -0.0576 -0.2092
 7435TIP3    H143796   3.774   2.513   2.141  0.0339 -2.2694  0.7485
 7435TIP3    H243797   3.637   2.493   2.201 -1.5523  2.4930 -1.0837
 7436TIP3   OH243798   1.208   5.114   3.940 -1.0651 -0.7591 -0.1745
 7436TIP3    H143799   1.226   5.035   3.990 -1.8526 -0.6475  0.3015
 7436TIP3    H243800   1.291   5.162   3.940 -1.1654 -0.5503  1.4139
 7437TIP3   OH243801   3.741   5.912  10.320  0.1483 -0.4148 -0.0400
 7437TIP3    H143802   3.831   5.906  10.353 -0.2800 -3.5551  0.7737
 7437TIP3    H243803   3.706   5.823  10.331 -2.8652  0.6086 -0.8974
 7438TIP3   OH243804   1.450   2.630  17.059  0.1920 -0.0191  0.6586
 7438TIP3    H143805   1.494   2.704  17.017 -0.6309  1.3347  2.1030
 7438TIP3    H243806   1.361   2.662  17.076 -0.1756 -1.3550  1.2997
 7439TIP3   OH243807   2.334   0.747   0.706 -0.0096  0.2074  0.3787
 7439TIP3    H143808   2.430   0.758   0.702  0.0378 -0.4606 -0.3866
 7439TIP3    H243809   2.305   0.817   0.765  0.7443  1.6704 -0.9264
 7440TIP3   OH243810   1.952   1.769  16.424  0.2616  0.8808 -0.6502
 7440TIP3    H143811   1.910   1.847  16.460 -0.3358  0.3149 -0.1076
 7440TIP3    H243812   1.900   1.696  16.458  1.4647  0.1876 -0.2743
 7441TIP3   OH243813   3.562   3.360   0.923 -0.7869 -0.4454 -0.1165
 7441TIP3    H143814   3.529   3.384   1.009 -2.2534  0.9590 -1.0433
 7441TIP3    H243815   3.518   3.278   0.903  0.6648 -1.5475  1.0576
 7442TIP3   OH243816   1.472   4.449   3.430 -0.0911 -0.2445 -0.1557
 7442TIP3    H143817   1.493   4.390   3.359  2.0705  1.2390 -0.8023
 7442TIP3    H243818   1.394   4.496   3.400 -1.3769 -2.2240  0.0586
 7443TIP3   OH243819   1.635   1.959   4.735  0.0115 -0.1494  0.2483
 7443TIP3    H143820   1.729   1.945   4.729  0.1152  0.3933  0.5943
 7443TIP3    H243821   1.600   1.924   4.653  0.5220 -0.2515  0.0736
 7444TIP3   OH243822   0.709   2.265  11.418  0.2482  0.4331  0.0252
 7444TIP3    H143823   0.662   2.312  11.350  0.4451  0.6919  0.0687
 7444TIP3    H243824   0.785   2.228  11.373  0.9172  1.4434  0.3092
 7445TIP3   OH243825   6.093   4.629  16.757 -0.2126  0.0084 -0.1425
 7445TIP3    H143826   6.112   4.540  16.728  0.6137 -0.5411  1.9248
 7445TIP3    H243827   6.089   4.621  16.853  1.5878  2.4777  0.1861
 7446TIP3   OH243828   2.156   5.647  11.482  0.5145  0.3413  0.3566
 7446TIP3    H143829   2.177   5.735  11.512 -1.3450  0.5255  1.1756
 7446TIP3    H243830   2.196   5.589  11.547  2.8872  0.4919 -0.8917
 7447TIP3   OH243831   4.214   6.066  15.622 -0.4540 -0.1667 -0.6712
 7447TIP3    H143832   4.298   6.112  15.626 -1.2079  1.2454 -0.6822
 7447TIP3    H243833   4.206   6.038  15.531  0.0339 -0.3688 -0.6521
 7448TIP3   OH243834   6.081   5.363   0.231 -0.4772  0.1791 -0.1511
 7448TIP3    H143835   6.062   5.333   0.319  0.1306  2.1264  0.6771
 7448TIP3    H243836   6.176   5.354   0.223 -0.1102  2.8042  0.5322
 7449TIP3   OH243837   3.449   1.731   5.768  0.4790 -0.1525 -0.5772
 7449TIP3    H143838   3.451   1.636   5.758  1.6611 -0.0182 -1.7301
 7449TIP3    H243839   3.424   1.745   5.859  1.2775 -1.5778 -0.1191
 7450TIP3   OH243840   6.266   1.302   5.321 -0.1138  0.4977 -0.2744
 7450TIP3    H143841   6.306   1.311   5.408  0.0085  6.3707 -0.7914
 7450TIP3    H243842   6.174   1.322   5.335 -0.6841 -1.4992 -1.0497
 7451TIP3   OH243843   4.615   4.650  11.720  0.4068  0.3617  0.3099
 7451TIP3    H143844   4.617   4.683  11.630  1.8714 -1.3474 -0.2926
 7451TIP3    H243845   4.701   4.672  11.755  0.0709  0.4310  1.0939
 7452TIP3   OH243846   1.250   4.477   2.936 -0.0021 -0.3614 -0.1979
 7452TIP3    H143847   1.297   4.395   2.924  0.4674 -0.3163  1.2693
 7452TIP3    H243848   1.306   4.543   2.896 -1.0712 -0.9216 -2.7283
 7453TIP3   OH243849   5.545   1.225   4.997  0.4858  0.2711 -0.0560
 7453TIP3    H143850   5.470   1.175   4.965  0.7506 -0.6402  0.7384
 7453TIP3    H243851   5.546   1.304   4.942 -0.9452  0.2119 -0.1903
 7454TIP3   OH243852   6.679   4.497  15.871 -0.6030  0.5685  0.1476
 7454TIP3    H143853   6.620   4.436  15.915  0.3754 -0.4641  0.0646
 7454TIP3    H243854   6.622   4.566  15.838 -1.7653 -0.4049  0.0727
 7455TIP3   OH243855   5.616   5.363   1.402  0.2036  0.0171 -0.6294
 7455TIP3    H143856   5.694   5.371   1.346  2.2703 -1.6686  1.8811
 7455TIP3    H243857   5.563   5.296   1.358  0.0199  1.3507 -2.5040
 7456TIP3   OH243858   4.134   2.407   3.848 -0.2665  0.0082  0.2320
 7456TIP3    H143859   4.038   2.411   3.843 -0.4109 -1.7785  1.3244
 7456TIP3    H243860   4.156   2.317   3.824  1.2504  0.7384 -1.2409
 7457TIP3   OH243861   0.178   2.659  13.326  0.1761  0.4383 -0.5687
 7457TIP3    H143862   0.159   2.569  13.299  0.2471 -0.6423  2.7408
 7457TIP3    H243863   0.092   2.702  13.328 -0.3797 -0.7053  1.6226
 7458TIP3   OH243864   4.313   4.169   1.854 -0.6058  1.1174  0.4828
 7458TIP3    H143865   4.247   4.184   1.786 -0.3199  1.5826  0.3131
 7458TIP3    H243866   4.335   4.076   1.845 -1.2737  0.9450  0.5742
 7459TIP3   OH243867   0.383   2.528   0.367 -0.6903  0.3525 -0.0612
 7459TIP3    H143868   0.412   2.437   0.374 -0.1992  0.4029 -1.4429
 7459TIP3    H243869   0.394   2.550   0.275  0.3192  2.1914  0.4706
 7460TIP3   OH243870   0.210   3.994  13.856 -0.2768 -0.5019  0.2994
 7460TIP3    H143871   0.284   3.946  13.819  0.1175 -0.8251  1.4811
 7460TIP3    H243872   0.138   3.931  13.855  0.4941 -1.4994  2.7660
 7461TIP3   OH243873   1.314   2.007  16.720 -0.3060  0.1829  0.0788
 7461TIP3    H143874   1.244   1.970  16.666  1.0076 -2.0501 -0.1531
 7461TIP3    H243875   1.269   2.064  16.783 -2.1066  0.5593 -1.5061
 7462TIP3   OH243876   1.097   3.137  13.082  0.2376  0.1437 -0.2643
 7462TIP3    H143877   1.096   3.214  13.140 -0.5251 -1.2332  1.5861
 7462TIP3    H243878   1.186   3.133  13.049  0.4658  1.4154  0.1731
 7463TIP3   OH243879   3.136   4.581  11.712 -0.1300  0.1550  0.2218
 7463TIP3    H143880   3.201   4.628  11.764  1.1067  0.2506 -1.3546
 7463TIP3    H243881   3.059   4.637  11.712  0.3666  0.8467  0.7118
 7464TIP3   OH243882   2.496   3.894   2.601 -0.4095  0.5209 -0.2285
 7464TIP3    H143883   2.573   3.896   2.658  0.0679  1.0804 -0.8813
 7464TIP3    H243884   2.423   3.872   2.659  0.3320 -0.6353  0.2823
 7465TIP3   OH243885   2.915   5.799   2.407 -0.0663 -0.4539  0.1215
 7465TIP3    H143886   2.914   5.893   2.422 -1.2855 -0.4058 -0.1906
 7465TIP3    H243887   2.967   5.788   2.327  1.0037 -0.1575  0.7647
 7466TIP3   OH243888   1.580   3.283  12.416 -0.5252  0.0958  0.6583
 7466TIP3    H143889   1.596   3.215  12.482 -1.2806  0.0673  0.8241
 7466TIP3    H243890   1.586   3.365  12.465 -1.5795  0.0540  0.8810
 7467TIP3   OH243891   0.159   3.113  14.651  0.0256 -0.3906 -0.0542
 7467TIP3    H143892   0.086   3.062  14.618 -0.6826 -0.4060  1.5124
 7467TIP3    H243893   0.130   3.204  14.645  0.4007 -0.3049 -0.6741
 7468TIP3   OH243894   6.797   5.768  12.112  0.0394  0.3886 -0.4931
 7468TIP3    H143895   6.773   5.850  12.156  0.2328  0.0959  0.1638
 7468TIP3    H243896   6.749   5.700  12.161  1.7580 -0.1428  0.4900
 7469TIP3   OH243897   1.712   0.663   1.010 -0.2629  0.3744 -0.0958
 7469TIP3    H143898   1.618   0.656   1.027 -0.5446  3.9431  0.2381
 7469TIP3    H243899   1.753   0.643   1.094 -0.8056  0.2302  0.1367
 7470TIP3   OH243900   4.801   1.271  15.729  0.2812 -0.3906 -0.1075
 7470TIP3    H143901   4.848   1.354  15.719  2.8402 -1.8574 -0.5723
 7470TIP3    H243902   4.854   1.220  15.790 -0.7163 -2.0925 -0.6277
 7471TIP3   OH243903   4.578   5.818  12.828 -0.0131  0.2884 -0.3017
 7471TIP3    H143904   4.605   5.909  12.842  2.4034 -0.5723  0.9747
 7471TIP3    H243905   4.603   5.799  12.737 -0.3140  0.8397 -0.4966
 7472TIP3   OH243906   4.156   5.086   4.174  0.3357 -0.1068  0.1739
 7472TIP3    H143907   4.064   5.078   4.151  0.7816 -0.3706 -1.6449
 7472TIP3    H243908   4.182   4.997   4.198 -0.3451  0.3252  2.6541
 7473TIP3   OH243909   6.291   6.192   0.573  0.2101 -0.4805 -0.8006
 7473TIP3    H143910   6.336   6.268   0.539 -0.6172 -1.0375 -3.2707
 7473TIP3    H243911   6.330   6.176   0.659  0.4403  2.6425 -0.2965
 7474TIP3   OH243912   1.264   1.388   6.528 -0.5916 -0.0145  1.0187
 7474TIP3    H143913   1.277   1.453   6.598  0.8917  0.5391  0.2663
 7474TIP3    H243914   1.284   1.436   6.447 -0.1733 -1.2131  0.3950
 7475TIP3   OH243915   1.579   4.071  12.700  0.1324  0.3391 -0.5074
 7475TIP3    H143916   1.664   4.050  12.661  0.5372 -0.3595  0.7157
 7475TIP3    H243917   1.516   4.019  12.651  0.7303 -1.1316  0.2474
 7476TIP3   OH243918   3.198   2.353  12.486 -0.4870 -0.5443 -0.0186
 7476TIP3    H143919   3.247   2.422  12.530  0.0652  1.3003 -3.3333
 7476TIP3    H243920   3.212   2.275  12.539  2.9519  0.7978  1.1414
 7477TIP3   OH243921   3.999   3.881   2.984 -0.4732  0.4325 -0.3969
 7477TIP3    H143922   3.924   3.849   3.034  1.9706 -0.5875  2.8030
 7477TIP3    H243923   4.049   3.802   2.962  1.1097  1.2743  0.0420
 7478TIP3   OH243924   1.883   1.199  15.712  0.0651  0.0471  0.5011
 7478TIP3    H143925   1.812   1.248  15.754 -0.6895 -0.3999 -0.2241
 7478TIP3    H243926   1.839   1.147  15.645  1.2155  0.4845 -0.6008
 7479TIP3   OH243927   1.385   5.646   3.665  0.4189  0.3602  0.4317
 7479TIP3    H143928   1.466   5.600   3.686  1.0115  1.9476  1.6972
 7479TIP3    H243929   1.367   5.700   3.742 -0.4268  2.0094 -0.8755
 7480TIP3   OH243930   5.774   2.077   5.837  0.5338  0.6517 -0.5370
 7480TIP3    H143931   5.819   2.115   5.913 -0.1164  1.0247 -0.3368
 7480TIP3    H243932   5.722   2.005   5.873 -0.0360  1.0390 -0.5752
 7481TIP3   OH243933   6.784   6.288  13.703  0.5344  0.9906  0.3100
 7481TIP3    H143934   6.806   6.341  13.626  0.5380 -1.5230 -1.4574
 7481TIP3    H243935   6.732   6.347  13.758  0.7018  2.8915 -1.5062
 7482TIP3   OH243936   6.044   5.274  13.210  0.0780  0.5851 -0.3071
 7482TIP3    H143937   6.002   5.190  13.230  1.8479 -0.3205 -0.2216
 7482TIP3    H243938   6.005   5.301  13.127 -2.0424  0.7451  0.7069
 7483TIP3   OH243939   3.165   2.407   5.054 -0.5910 -0.0311 -0.6724
 7483TIP3    H143940   3.116   2.355   5.119  0.3316 -0.0191  0.0305
 7483TIP3    H243941   3.125   2.494   5.058 -0.3704  0.0380  0.0583
 7484TIP3   OH243942   5.093   1.570   4.282  0.0791  0.1497 -0.0809
 7484TIP3    H143943   5.092   1.485   4.325  1.6321 -0.6494 -1.6127
 7484TIP3    H243944   5.121   1.552   4.193 -0.9474  2.0889 -0.8237
 7485TIP3   OH243945   3.639   2.863   2.507 -0.4860  0.1587 -0.2486
 7485TIP3    H143946   3.558   2.881   2.458 -0.4343  2.0728  0.3367
 7485TIP3    H243947   3.627   2.774   2.541 -1.7233 -0.1259 -1.3865
 7486TIP3   OH243948   3.043   6.223   0.957 -0.9323 -0.1786  0.0329
 7486TIP3    H143949   2.982   6.285   0.918 -0.5163  0.3210  0.1702
 7486TIP3    H243950   3.020   6.220   1.050 -1.4173 -0.7769 -0.1029
 7487TIP3   OH243951   2.030   4.002   5.718 -0.1099 -0.4167 -0.0049
 7487TIP3    H143952   2.015   4.079   5.773  0.8576  1.1162 -1.8337
 7487TIP3    H243953   2.125   3.998   5.707 -0.1864 -1.5789 -0.3703
 7488TIP3   OH243954   4.392   5.049  16.205  0.0385  0.0740 -0.0762
 7488TIP3    H143955   4.484   5.049  16.232  0.5440 -0.0654 -1.7379
 7488TIP3    H243956   4.392   5.002  16.121 -1.1742  2.1072 -1.2495
 7489TIP3   OH243957   5.679   1.287  15.291 -0.7517  0.1252 -0.4717
 7489TIP3    H143958   5.697   1.293  15.198  1.0313 -1.5845 -0.2638
 7489TIP3    H243959   5.603   1.229  15.298  0.1765 -1.1527 -0.7866
 7490TIP3   OH243960   1.292   6.777  12.843  0.4800 -0.3485  0.1729
 7490TIP3    H143961   1.205   6.766  12.880  0.5156 -1.2111  0.0050
 7490TIP3    H243962   1.277   6.795  12.750  0.3602  2.4438  0.6632
 7491TIP3   OH243963   6.655   1.546  15.544 -0.4094  0.4611  0.2037
 7491TIP3    H143964   6.715   1.563  15.617 -1.2594  0.4943  0.8934
 7491TIP3    H243965   6.632   1.453  15.553  0.8785 -0.0107 -1.0769
 7492TIP3   OH243966   6.185   1.300   2.189 -0.2117 -0.2656  0.2617
 7492TIP3    H143967   6.197   1.391   2.218 -0.0388 -0.3590  0.4796
 7492TIP3    H243968   6.092   1.294   2.168 -0.0685  0.1981 -0.5410
 7493TIP3   OH243969   6.658   3.826  15.963  0.1991 -0.2325 -0.4741
 7493TIP3    H143970   6.720   3.757  15.988 -1.5656 -1.5299  0.5288
 7493TIP3    H243971   6.572   3.783  15.970 -1.0287  2.3947  1.3379
 7494TIP3   OH243972   5.933   3.448   2.437  0.1204 -0.0305  0.5218
 7494TIP3    H143973   5.907   3.388   2.508 -3.2312 -0.2592 -0.8098
 7494TIP3    H243974   5.968   3.391   2.369 -0.0903 -0.1672  0.5273
 7495TIP3   OH243975   6.010   1.234   4.660 -0.0342 -0.2681 -0.5079
 7495TIP3    H143976   5.966   1.318   4.652 -1.4833 -0.9198  0.3323
 7495TIP3    H243977   5.974   1.181   4.588 -0.9957 -0.9464  0.4489
 7496TIP3   OH243978   5.675   3.174  13.434  0.1518  0.5784  0.4647
 7496TIP3    H143979   5.731   3.115  13.484 -0.9217  0.2768  1.3467
 7496TIP3    H243980   5.631   3.117  13.370  1.0683  0.8650 -0.4387
 7497TIP3   OH243981   5.128   5.413   0.028 -0.4242  0.1607  0.0720
 7497TIP3    H143982   5.061   5.478   0.048 -1.7496 -1.0285 -0.4451
 7497TIP3    H243983   5.142   5.366   0.111 -1.7963 -0.9983 -0.3311
 7498TIP3   OH243984   1.358   3.009  11.518 -0.0810 -0.4879  0.0371
 7498TIP3    H143985   1.386   3.014  11.427  0.8714 -1.3380  0.2883
 7498TIP3    H243986   1.266   3.038  11.516  0.3203  0.7760 -0.9907
 7499TIP3   OH243987   3.649   6.047  11.990  0.0782  0.0990 -0.2326
 7499TIP3    H143988   3.651   5.999  12.073 -0.0219  3.0877  1.5968
 7499TIP3    H243989   3.626   6.137  12.015  1.6037  1.4435 -3.3380
 7500TIP3   OH243990   1.271   1.673  11.368 -0.3064 -0.1873 -0.4028
 7500TIP3    H143991   1.176   1.683  11.379 -0.0559  1.2703  0.5942
 7500TIP3    H243992   1.297   1.749  11.316  0.4354 -0.1453  0.0196
 7501TIP3   OH243993   1.508   3.455  16.318 -0.2920  0.2373 -0.5745
 7501TIP3    H143994   1.526   3.541  16.281  1.4835 -1.3520 -3.5893
 7501TIP3    H243995   1.592   3.425  16.352 -0.8840 -0.3404  0.4008
 7502TIP3   OH243996   6.399   6.513  14.305 -0.2285 -0.3729 -0.1789
 7502TIP3    H143997   6.397   6.417  14.298 -0.1289 -0.3181 -1.0461
 7502TIP3    H243998   6.413   6.530  14.398 -2.4541 -1.1677  0.3368
 7503TIP3   OH243999   3.607   6.728  13.959  0.0286  0.3884 -0.1076
 7503TIP3    H144000   3.569   6.804  13.914  1.9177  0.9591 -0.7799
 7503TIP3    H244001   3.616   6.756  14.050 -0.3461  0.5391 -0.1132
 7504TIP3   OH244002   0.930   0.825  16.953 -0.1622  0.9052 -0.0933
 7504TIP3    H144003   0.919   0.743  17.002 -0.7847  0.0121 -1.6747
 7504TIP3    H244004   1.019   0.820  16.919  0.3136  1.5842  1.0382
 7505TIP3   OH244005   4.672   2.096  15.898  0.0119  0.3499 -0.4745
 7505TIP3    H144006   4.598   2.046  15.931  1.3456 -0.1704  1.8909
 7505TIP3    H244007   4.720   2.033  15.843  0.0890 -0.1010  0.0994
 7506TIP3   OH244008   5.419   4.365  13.851  0.2260  0.4933  0.3780
 7506TIP3    H144009   5.451   4.370  13.941  0.2600 -3.0074  0.6224
 7506TIP3    H244010   5.327   4.338  13.860  0.6959 -1.5556 -0.6300
 7507TIP3   OH244011   2.356   1.378  16.120  0.3222  0.3722 -0.2286
 7507TIP3    H144012   2.446   1.388  16.152  1.3034 -2.0883 -2.0400
 7507TIP3    H244013   2.346   1.449  16.056  0.4953  1.4312  0.8829
 7508TIP3   OH244014   4.500   2.185   2.446 -0.3716 -0.2526 -0.0813
 7508TIP3    H144015   4.547   2.261   2.480 -1.1347  0.1325  0.1261
 7508TIP3    H244016   4.419   2.181   2.498  0.2830 -2.0147  0.8624
 7509TIP3   OH244017   5.469   3.532   6.572 -0.5079 -0.7868 -0.1202
 7509TIP3    H144018   5.438   3.617   6.542  1.3282  0.6632  1.9477
 7509TIP3    H244019   5.543   3.512   6.515 -0.0116 -0.2764  0.3332
 7510TIP3   OH244020   2.344   5.068   2.581  0.3680  0.1633 -0.6732
 7510TIP3    H144021   2.344   5.163   2.576  0.0004  0.3802  2.4255
 7510TIP3    H244022   2.434   5.045   2.608  0.4454 -0.3719 -1.3601
 7511TIP3   OH244023   1.743   4.653   4.827  0.3009 -0.6187 -0.6555
 7511TIP3    H144024   1.739   4.744   4.798 -0.3602 -0.1233  0.9109
 7511TIP3    H244025   1.790   4.657   4.910  1.4497 -1.8844 -1.2331
 7512TIP3   OH244026   2.356   2.213   5.364  0.4138 -0.0644 -0.1283
 7512TIP3    H144027   2.355   2.162   5.283  0.2736  0.9747 -0.7822
 7512TIP3    H244028   2.449   2.228   5.382  0.4407 -0.1894 -0.1649
 7513TIP3   OH244029   5.106   3.171  15.195  0.7244 -0.2185 -0.2940
 7513TIP3    H144030   5.140   3.101  15.139  1.2837 -1.1117  1.1430
 7513TIP3    H244031   5.045   3.128  15.254  1.6203  0.3840  1.0835
 7514TIP3   OH244032   6.369   1.040   3.787  0.0937 -0.5254  0.1017
 7514TIP3    H144033   6.409   1.017   3.871  0.1377  0.0985  0.2519
 7514TIP3    H244034   6.275   1.043   3.805  0.1083 -0.3211  0.1484
 7515TIP3   OH244035   3.848   5.090   1.164 -0.6197  0.4257  0.0873
 7515TIP3    H144036   3.877   5.004   1.132 -1.4014 -0.4771  1.7116
 7515TIP3    H244037   3.801   5.128   1.091 -2.2387 -1.5232  0.0709
 7516TIP3   OH244038   3.673   1.475  16.772  0.1942 -0.3794  0.2293
 7516TIP3    H144039   3.587   1.448  16.739  0.6556 -1.5506 -0.0249
 7516TIP3    H244040   3.654   1.519  16.855 -0.6154 -1.0390  0.3993
 7517TIP3   OH244041   3.024   4.932  16.197 -0.0104 -0.0726  0.5921
 7517TIP3    H144042   3.010   5.009  16.253  1.7873  0.5699  0.1782
 7517TIP3    H244043   3.039   4.860  16.259  4.9271  1.1821  1.0074
 7518TIP3   OH244044   4.164   6.336  11.894  0.1304  0.1567  0.4606
 7518TIP3    H144045   4.090   6.281  11.867 -0.3954  0.7272  0.7100
 7518TIP3    H244046   4.165   6.407  11.830  0.1929  0.3833  0.7147
 7519TIP3   OH244047   0.157   4.500   1.642  0.4560  0.1913  0.3436
 7519TIP3    H144048   0.191   4.554   1.713 -2.0753  1.3136  0.7638
 7519TIP3    H244049   0.136   4.416   1.683 -0.3565  0.6119  0.8143
 7520TIP3   OH244050   0.503   0.524   1.682  0.4396  0.1672 -0.0947
 7520TIP3    H144051   0.464   0.505   1.767  0.4620  1.2416  0.1579
 7520TIP3    H244052   0.428   0.547   1.627  0.6054  1.1727  0.0998
 7521TIP3   OH244053   6.356   4.597   5.389  0.3274 -0.2160 -0.4238
 7521TIP3    H144054   6.283   4.641   5.345  0.3324 -0.6671 -0.8949
 7521TIP3    H244055   6.428   4.660   5.386 -0.9597  1.4867  2.8904
 7522TIP3   OH244056   4.914   5.731  16.407 -0.1882 -0.0307 -0.4407
 7522TIP3    H144057   4.900   5.660  16.344 -1.0309 -0.3633  0.1071
 7522TIP3    H244058   4.838   5.788  16.395 -0.7876 -0.5406  0.8513
 7523TIP3   OH244059   5.181   3.403  12.549  0.6384  0.1041  0.6092
 7523TIP3    H144060   5.232   3.345  12.606 -0.0492 -0.5898  0.5224
 7523TIP3    H244061   5.114   3.346  12.512  0.7814  0.6702 -0.5159
 7524TIP3   OH244062   3.864   6.110  14.103 -0.5120  0.0429 -0.1261
 7524TIP3    H144063   3.873   6.118  14.008 -0.8539 -2.5521 -0.4194
 7524TIP3    H244064   3.777   6.145  14.122  0.0325  1.6865 -0.5999
 7525TIP3   OH244065   3.725   1.510   1.119  0.5470 -0.5772 -0.7792
 7525TIP3    H144066   3.779   1.559   1.180  0.0125  1.2734 -1.7590
 7525TIP3    H244067   3.662   1.464   1.174  2.9775 -2.7132  0.3803
 7526TIP3   OH244068   2.858   0.613  14.708 -0.2133  0.2247 -0.2638
 7526TIP3    H144069   2.841   0.522  14.732 -2.7392  0.3236 -1.5713
 7526TIP3    H244070   2.938   0.635  14.756 -0.8959 -1.9150  1.9642
 7527TIP3   OH244071   3.107   0.733  14.949 -0.1994 -0.4580  0.5497
 7527TIP3    H144072   3.127   0.690  15.032  0.7462  1.2074  1.2049
 7527TIP3    H244073   3.052   0.807  14.972 -4.0346 -2.7202 -0.8628
 7528TIP3   OH244074   0.899   0.968   0.565 -0.3576 -0.0566 -0.6496
 7528TIP3    H144075   0.897   1.040   0.627  0.1712 -0.5988  0.0027
 7528TIP3    H244076   0.914   0.890   0.619 -3.8463 -1.0524 -0.9884
 7529TIP3   OH244077   5.000   4.807   3.019  0.3891  0.0270 -0.0311
 7529TIP3    H144078   4.948   4.762   2.952 -0.0622 -3.1715  2.3735
 7529TIP3    H244079   5.079   4.753   3.028  0.7876  0.8406  1.4713
 7530TIP3   OH244080   3.351   5.919  13.492 -0.3526 -0.6032  0.4527
 7530TIP3    H144081   3.436   5.877  13.478  0.6094  2.1114 -2.4263
 7530TIP3    H244082   3.372   6.004  13.530 -1.6107  0.6601 -1.5342
 7531TIP3   OH244083   0.050   6.659  13.544 -0.6928 -0.1121 -0.2777
 7531TIP3    H144084   0.005   6.592  13.493 -1.2969  0.2832 -0.2744
 7531TIP3    H244085   0.080   6.613  13.623 -0.0929 -0.6323 -0.8032
 7532TIP3   OH244086   4.194   2.705   3.184  0.2842  0.1781  0.0911
 7532TIP3    H144087   4.194   2.634   3.248  1.3361  1.3343  1.3880
 7532TIP3    H244088   4.242   2.669   3.109 -0.1518 -0.8537  0.2968
 7533TIP3   OH244089   2.199   2.011   6.006 -0.0873  0.0682  0.1877
 7533TIP3    H144090   2.251   1.968   6.074  1.3569  1.1791 -0.2074
 7533TIP3    H244091   2.235   2.099   6.000 -1.6267  0.6667 -0.5135
 7534TIP3   OH244092   5.862   1.539  16.370 -0.3454  0.4019  0.2693
 7534TIP3    H144093   5.777   1.503  16.345  0.2590 -1.2930  0.5957
 7534TIP3    H244094   5.851   1.634  16.363 -2.2895  0.2038  0.3892
 7535TIP3   OH244095   0.042   5.058   1.495 -0.7963 -0.1833 -0.2214
 7535TIP3    H144096   0.057   5.136   1.548 -0.0102 -1.3822  1.3463
 7535TIP3    H244097  -0.046   5.029   1.518 -1.8758  1.2984 -2.2434
 7536TIP3   OH244098   2.066   5.150  14.569 -0.0746 -0.0202 -0.5135
 7536TIP3    H144099   2.159   5.153  14.590 -0.4230  0.2026  1.0725
 7536TIP3    H244100   2.059   5.193  14.484  0.9448  2.2992  0.5272
 7537TIP3   OH244101   6.561   3.910   5.252  0.1034 -0.0762 -0.2541
 7537TIP3    H144102   6.547   3.846   5.183 -0.2648  1.1852 -1.3666
 7537TIP3    H244103   6.474   3.946   5.269  0.0755 -0.8782  1.3717
 7538TIP3   OH244104   4.973   1.712  13.006  0.2840  0.3722 -0.3760
 7538TIP3    H144105   5.035   1.758  13.064 -0.7762  0.6519  0.5491
 7538TIP3    H244106   5.028   1.654  12.953  1.3214  0.4967  0.5496
 7539TIP3   OH244107   0.247   5.409  14.617 -0.0795  0.4161  0.6203
 7539TIP3    H144108   0.327   5.379  14.573 -1.2229 -0.3497 -1.0231
 7539TIP3    H244109   0.186   5.427  14.545 -1.8789 -0.4605  1.8856
 7540TIP3   OH244110   3.650   2.561  13.101  0.0232 -0.0450 -0.5158
 7540TIP3    H144111   3.644   2.488  13.164  1.1180 -0.5719 -1.0044
 7540TIP3    H244112   3.560   2.592  13.091 -0.6969 -2.3486 -1.4988
 7541TIP3   OH244113   1.844   1.567  17.027 -0.2408  0.0287  0.2215
 7541TIP3    H144114   1.874   1.574  16.936  0.4913  1.2169  0.5569
 7541TIP3    H244115   1.915   1.523  17.073  0.0949  0.9192  0.5649
 7542TIP3   OH244116   2.934   0.341   4.127 -0.3695  0.1734 -0.3568
 7542TIP3    H144117   2.911   0.430   4.098 -1.9584 -0.5130 -1.2672
 7542TIP3    H244118   3.029   0.339   4.123 -0.2397  2.2408  0.8968
 7543TIP3   OH244119   3.127   0.102  16.695 -0.0628 -0.3453  0.3087
 7543TIP3    H144120   3.203   0.155  16.669  0.9269 -0.9459  1.8424
 7543TIP3    H244121   3.157   0.012  16.685 -1.5249 -0.6319 -1.6677
 7544TIP3   OH244122   5.095   0.043   1.531 -0.4988  0.1838  0.1531
 7544TIP3    H144123   5.127   0.132   1.518 -0.2424  0.3151  1.5761
 7544TIP3    H244124   5.003   0.054   1.556 -0.8716 -0.0347 -1.1174
 7545TIP3   OH244125   5.448   6.313  17.002 -0.1358  0.0199  0.0147
 7545TIP3    H144126   5.417   6.288  16.915 -0.2314 -0.6367  0.2305
 7545TIP3    H244127   5.422   6.239  17.058  0.8696 -0.0405  0.4004
 7546TIP3   OH244128   5.341   3.347  13.923  0.0370  0.0428  1.0079
 7546TIP3    H144129   5.432   3.337  13.895  0.5550  1.3277  2.1850
 7546TIP3    H244130   5.303   3.260  13.913  1.3669 -0.4808  0.4364
 7547TIP3   OH244131   3.757   5.311   4.591  0.5043 -0.6494 -0.3185
 7547TIP3    H144132   3.809   5.233   4.611  0.4983 -0.7751 -0.7963
 7547TIP3    H244133   3.722   5.295   4.504 -2.5855 -1.7827  1.0491
 7548TIP3   OH244134   6.047   1.025   5.990 -0.2171  0.2423  0.2025
 7548TIP3    H144135   5.960   1.017   6.028 -0.4798 -0.8818 -0.6005
 7548TIP3    H244136   6.034   1.076   5.910  0.0479  1.0404  0.6613
 7549TIP3   OH244137   1.319   2.334   4.502 -0.6526 -0.3362 -0.3646
 7549TIP3    H144138   1.386   2.395   4.531 -0.8107  0.0084 -0.7181
 7549TIP3    H244139   1.255   2.389   4.457 -2.1612 -0.3885  1.6560
 7550TIP3   OH244140   4.560   5.384  14.096  0.4141  0.1346 -0.8263
 7550TIP3    H144141   4.563   5.302  14.047 -1.1707  1.3474 -3.0125
 7550TIP3    H244142   4.469   5.414  14.088  0.5611  1.2866  1.3497
 7551TIP3   OH244143   0.645   2.149  14.593  0.5362  0.0409 -0.0966
 7551TIP3    H144144   0.552   2.137  14.609  0.0933  2.5207 -0.5857
 7551TIP3    H244145   0.672   2.215  14.656  1.2476  1.6113 -1.9661
 7552TIP3   OH244146   2.293   4.853   2.738 -0.5193 -0.1478 -0.4114
 7552TIP3    H144147   2.356   4.798   2.692  2.8056  2.4016  0.8399
 7552TIP3    H244148   2.283   4.930   2.681  0.7922  1.3508  1.3233
 7553TIP3   OH244149   3.282   2.329  16.967 -0.2004 -0.3286  0.2751
 7553TIP3    H144150   3.317   2.399  17.021 -0.6761 -0.6147  0.9503
 7553TIP3    H244151   3.216   2.287  17.021 -0.3812 -0.8814 -0.3698
 7554TIP3   OH244152   3.042   4.906  12.288 -0.2353 -0.0503  1.0011
 7554TIP3    H144153   3.131   4.941  12.285 -0.3084  0.2808  2.6586
 7554TIP3    H244154   3.031   4.863  12.203  1.1286  0.8107  0.3671
 7555TIP3   OH244155   5.408   0.141   1.230 -0.3862 -0.0988  0.7389
 7555TIP3    H144156   5.501   0.164   1.218 -0.3721 -1.0952 -1.2266
 7555TIP3    H244157   5.362   0.200   1.170 -1.0032  0.0462  1.3503
 7556TIP3   OH244158   1.639   0.903  16.904 -0.4637  0.2050  0.4945
 7556TIP3    H144159   1.630   0.997  16.890 -0.6142  0.5798  3.0316
 7556TIP3    H244160   1.562   0.866  16.859  0.2905  1.1357 -1.6503
 7557TIP3   OH244161   0.067   2.358   1.391  0.1047 -0.1375 -0.3380
 7557TIP3    H144162   0.109   2.412   1.457  0.4905 -1.6766  0.6974
 7557TIP3    H244163   0.137   2.332   1.333 -0.1228  0.6553 -0.9814
 7558TIP3   OH244164   2.853   5.334   3.941  0.2474  0.8850  0.6253
 7558TIP3    H144165   2.844   5.316   3.848  2.5406  0.8911  0.3800
 7558TIP3    H244166   2.852   5.429   3.947 -0.0971  0.8811  0.6282
 7559TIP3   OH244167   5.213   0.552   4.420 -0.1915 -0.1901  0.1980
 7559TIP3    H144168   5.296   0.516   4.390 -0.7825  0.1525 -1.8961
 7559TIP3    H244169   5.224   0.562   4.515  2.2289  0.0841 -0.0908
 7560TIP3   OH244170   0.063   5.592   0.569  0.1072 -0.5990  0.2170
 7560TIP3    H144171   0.087   5.512   0.523  0.2017  0.7802 -2.2074
 7560TIP3    H244172  -0.021   5.571   0.611  1.2055 -2.6485  1.4895
 7561TIP3   OH244173   3.855   5.209   2.081  0.2587  0.0239 -0.2625
 7561TIP3    H144174   3.920   5.213   2.011  1.3273  3.6646  0.8239
 7561TIP3    H244175   3.907   5.214   2.161 -1.2696  1.9552  0.6429
 7562TIP3   OH244176   5.776   4.926  13.877 -0.3463 -0.5585  0.6009
 7562TIP3    H144177   5.857   4.883  13.905  0.6684  0.9238 -0.0416
 7562TIP3    H244178   5.718   4.919  13.953  0.2220 -1.9782  0.9236
 7563TIP3   OH244179   1.469   0.693  14.378  0.1760 -0.5544 -0.3772
 7563TIP3    H144180   1.374   0.699  14.389  0.1979  0.8255 -0.8083
 7563TIP3    H244181   1.494   0.779  14.345  1.7371 -0.4658  0.9628
 7564TIP3   OH244182   1.293   3.622   4.976  0.5416  0.7011  0.4474
 7564TIP3    H144183   1.354   3.615   4.903 -0.2758 -0.1129 -0.1730
 7564TIP3    H244184   1.340   3.673   5.042  1.4497  1.0721 -0.4699
 7565TIP3   OH244185   5.082   0.779   1.089 -0.4929  0.0415  0.1832
 7565TIP3    H144186   5.060   0.870   1.106 -1.7468 -0.0508 -0.8739
 7565TIP3    H244187   5.151   0.759   1.152 -1.1065  1.3404  1.2930
 7566TIP3   OH244188   0.624   4.334   1.889  0.0994 -0.4824  0.5060
 7566TIP3    H144189   0.625   4.239   1.897 -0.0064 -0.2903  3.1274
 7566TIP3    H244190   0.550   4.362   1.942 -0.5063  1.0175 -1.0767
 7567TIP3   OH244191   3.420   0.506  14.897  0.7484 -0.8139  0.4604
 7567TIP3    H144192   3.414   0.434  14.835 -0.4048  1.2125 -1.8466
 7567TIP3    H244193   3.480   0.569  14.856  0.7868  0.0941  1.8716
 7568TIP3   OH244194   5.465   5.009   1.536  0.2789 -0.3654  0.3363
 7568TIP3    H144195   5.446   4.918   1.511 -0.3434 -0.1615  0.0779
 7568TIP3    H244196   5.444   5.060   1.458 -1.7953  0.2935  1.3155
 7569TIP3   OH244197   4.532   3.670  15.588 -0.0054  0.1478  0.4825
 7569TIP3    H144198   4.571   3.668  15.501  4.4981  0.7948  2.2925
 7569TIP3    H244199   4.498   3.582  15.602 -0.2683 -0.1169 -1.6975
 7570TIP3   OH244200   4.547   2.237  16.364 -0.7082  0.4875 -0.1520
 7570TIP3    H144201   4.586   2.167  16.311 -1.1590 -0.6779  1.0106
 7570TIP3    H244202   4.622   2.284  16.400 -0.4007  1.0499 -1.5104
 7571TIP3   OH244203   0.060   2.975   2.744  0.3093  0.1673  0.4144
 7571TIP3    H144204   0.070   2.997   2.652  0.7532 -0.2587  0.3594
 7571TIP3    H244205   0.142   3.004   2.785 -0.3799  1.5101  0.9064
 7572TIP3   OH244206   4.486   1.125  15.782  0.0796  0.0233 -0.0743
 7572TIP3    H144207   4.483   1.045  15.836  0.4248 -0.3871 -0.6622
 7572TIP3    H244208   4.498   1.196  15.845  0.0335 -0.4149  0.4326
 7573TIP3   OH244209   1.899   5.003   1.958  0.2481  0.1263  0.0683
 7573TIP3    H144210   1.898   5.069   2.027  2.6016  0.2372  0.0260
 7573TIP3    H244211   1.814   5.012   1.915  0.4886  3.0584  0.1276
 7574TIP3   OH244212   4.310   0.608  14.771  0.0491  0.7221  0.3320
 7574TIP3    H144213   4.301   0.662  14.849 -0.7466 -0.4813  1.0856
 7574TIP3    H244214   4.220   0.592  14.742  0.2967  0.2099 -0.1710
 7575TIP3   OH244215   6.035   1.957   5.947  0.1177 -0.0800 -0.1183
 7575TIP3    H144216   6.104   2.021   5.932 -1.1045  1.4681  0.6312
 7575TIP3    H244217   5.978   1.998   6.013 -0.4894 -2.0992  0.6678
 7576TIP3   OH244218   6.690   0.108  16.513 -0.5743  0.1743  0.2649
 7576TIP3    H144219   6.603   0.137  16.486 -0.5590  0.9998  1.0967
 7576TIP3    H244220   6.710   0.159  16.592  0.6665  0.0082  0.0794
 7577TIP3   OH244221   6.762   4.391  10.944 -0.6222  0.2216  0.2785
 7577TIP3    H144222   6.683   4.338  10.944  0.4269 -1.4551 -1.7812
 7577TIP3    H244223   6.772   4.418  10.852 -0.7982  3.5354  1.1658
 7578TIP3   OH244224   0.179   5.474   4.757  0.5461  0.0387 -0.1923
 7578TIP3    H144225   0.203   5.383   4.774  0.0921 -0.2923 -1.2450
 7578TIP3    H244226   0.101   5.468   4.703 -0.0077  1.0745  0.4894
 7579TIP3   OH244227   4.416   0.198  11.735 -0.1887  0.4556 -0.3128
 7579TIP3    H144228   4.441   0.290  11.738 -0.2067  0.4530 -0.0635
 7579TIP3    H244229   4.340   0.191  11.793 -0.6778  0.4328 -0.9577
 7580TIP3   OH244230   2.392   2.557   0.095  0.5468 -0.3463  0.5910
 7580TIP3    H144231   2.466   2.544   0.154  0.7756  0.3733  0.4776
 7580TIP3    H244232   2.427   2.611   0.024 -0.3183  0.8377  1.0439
 7581TIP3   OH244233   3.277   1.580  12.191 -0.5208 -0.0879 -0.6408
 7581TIP3    H144234   3.248   1.669  12.176 -1.8470 -0.6753 -1.6310
 7581TIP3    H244235   3.219   1.526  12.138  1.3771 -1.4138 -1.4349
 7582TIP3   OH244236   1.418   1.869  15.625 -0.0406 -0.1307  0.6200
 7582TIP3    H144237   1.442   1.872  15.718  2.4940 -0.6637  0.0381
 7582TIP3    H244238   1.490   1.913  15.581 -1.3023  0.2550 -1.0972
 7583TIP3   OH244239   1.755   0.372  16.570  0.0965  0.1096  0.2426
 7583TIP3    H144240   1.811   0.358  16.646  0.0620  0.1192  0.2693
 7583TIP3    H244241   1.722   0.461  16.581  0.3734  0.2365  0.0292
 7584TIP3   OH244242   2.340   0.807  14.206  0.1836  0.3347 -0.1454
 7584TIP3    H144243   2.407   0.864  14.170 -0.5862  0.8480 -0.7738
 7584TIP3    H244244   2.285   0.784  14.132  0.4155 -1.1467  0.1196
 7585TIP3   OH244245   2.137   6.032   2.351  0.3981  0.5800  0.3914
 7585TIP3    H144246   2.049   5.999   2.369  0.0493  1.0190 -0.4719
 7585TIP3    H244247   2.164   6.073   2.433 -0.6713  1.4790  0.3199
 7586TIP3   OH244248   1.230   1.820  13.654  0.0251 -0.0107  0.2345
 7586TIP3    H144249   1.187   1.822  13.569 -1.3253  1.5616  0.9282
 7586TIP3    H244250   1.301   1.884  13.647  0.8063 -0.9092 -0.1538
 7587TIP3   OH244251   0.717   5.405   1.648 -0.7131  0.1843 -0.4658
 7587TIP3    H144252   0.666   5.391   1.567  0.8850 -0.5408 -1.3662
 7587TIP3    H244253   0.775   5.329   1.652 -0.2603  0.6093  0.9878
 7588TIP3   OH244254   0.319   6.223  13.977  0.4162 -0.3757  0.1717
 7588TIP3    H144255   0.383   6.152  13.975  0.2625 -0.5035 -0.4446
 7588TIP3    H244256   0.234   6.179  13.970  0.3215 -0.1331 -0.2455
 7589TIP3   OH244257   4.232   1.231   1.267 -0.1854  0.8221  0.8609
 7589TIP3    H144258   4.288   1.290   1.317  2.2832 -0.1786 -0.6202
 7589TIP3    H244259   4.206   1.282   1.190  0.2990  0.6767  0.5935
 7590TIP3   OH244260   4.737   3.378   3.508  0.0599 -0.5891 -0.0119
 7590TIP3    H144261   4.649   3.350   3.534 -0.7394  1.9116  0.0723
 7590TIP3    H244262   4.783   3.392   3.590 -0.6230  1.5692  0.0463
 7591TIP3   OH244263   4.774   6.811   5.653  0.1551 -0.0555  0.3525
 7591TIP3    H144264   4.790   6.888   5.599  0.3197  0.2149  0.7879
 7591TIP3    H244265   4.857   6.795   5.698 -0.2093  0.1855  1.1169
 7592TIP3   OH244266   0.354   4.483  12.913 -0.4448 -0.4755 -0.3107
 7592TIP3    H144267   0.331   4.574  12.930 -1.3202 -0.7446  0.0075
 7592TIP3    H244268   0.415   4.460  12.983  1.2324  0.4094 -1.4649
 7593TIP3   OH244269   1.285   2.489  15.260  0.6282  0.5722  0.0704
 7593TIP3    H144270   1.221   2.515  15.327  1.2967 -0.7436  1.2363
 7593TIP3    H244271   1.367   2.478  15.308  1.5292  1.2671 -1.2622
 7594TIP3   OH244272   4.873   3.586   4.606 -0.4196 -0.1934  0.1839
 7594TIP3    H144273   4.804   3.634   4.652  1.4843  0.0985  2.8273
 7594TIP3    H244274   4.931   3.654   4.572  0.8334 -0.5635  1.6001
 7595TIP3   OH244275   0.311   4.390  13.477 -0.4417 -0.2540  0.1339
 7595TIP3    H144276   0.298   4.315  13.535 -0.6694  0.2563  0.7531
 7595TIP3    H244277   0.276   4.361  13.393 -2.3278 -0.1841  0.8498
 7596TIP3   OH244278   0.457   3.773  14.124 -0.1547  0.1507  0.0735
 7596TIP3    H144279   0.505   3.735  14.198 -0.7531 -0.7081  0.0337
 7596TIP3    H244280   0.447   3.865  14.146 -0.3593 -0.1120  1.0879
 7597TIP3   OH244281   2.750   6.327   0.421  0.2964  0.2286 -0.2237
 7597TIP3    H144282   2.720   6.404   0.469 -0.9474 -0.4637  0.1340
 7597TIP3    H244283   2.845   6.329   0.428  0.2993  1.9750 -0.6021
 7598TIP3   OH244284   1.876   3.057   0.069 -0.3394 -0.8421 -0.6179
 7598TIP3    H144285   1.794   3.013   0.050 -0.3166 -0.6852 -1.0832
 7598TIP3    H244286   1.944   2.994   0.043 -0.2984 -1.9367  1.9857
 7599TIP3   OH244287   2.891   2.709  11.513  0.2046 -0.1794  0.0473
 7599TIP3    H144288   2.972   2.708  11.462  1.0307 -2.8804  1.3286
 7599TIP3    H244289   2.902   2.782  11.575  0.5420  1.0713 -1.4721
 7600TIP3   OH244290   2.990   3.295  14.574 -0.1079  0.5337  0.3094
 7600TIP3    H144291   2.934   3.267  14.647  0.6299 -1.2782  0.1939
 7600TIP3    H244292   3.078   3.296  14.610  0.1406  0.6171 -0.3000
 7601TIP3   OH244293   2.300   6.717   4.770 -0.4170 -0.4063 -0.2530
 7601TIP3    H144294   2.330   6.727   4.680  1.5667 -2.4641  0.1593
 7601TIP3    H244295   2.204   6.710   4.762 -0.4468  1.4169 -1.9841
 7602TIP3   OH244296   4.355   1.446   1.372 -0.4580 -0.1251  0.5558
 7602TIP3    H144297   4.400   1.522   1.334 -0.0665 -0.6627 -0.0706
 7602TIP3    H244298   4.292   1.484   1.432 -1.3297  0.7679 -0.8824
 7603TIP3   OH244299   1.431   6.459   0.993  0.2189 -0.3516  0.5942
 7603TIP3    H144300   1.375   6.402   0.941 -0.1302  1.3193 -0.8874
 7603TIP3    H244301   1.390   6.461   1.079 -1.0392 -0.4918  0.0018
 7604TIP3   OH244302   5.388   4.246  14.659 -0.5056  0.4049  0.3736
 7604TIP3    H144303   5.315   4.184  14.651 -0.6531  0.5904  0.3017
 7604TIP3    H244304   5.412   4.266  14.568  0.5961 -0.7964  0.3808
 7605TIP3   OH244305   0.023   6.744  14.322 -0.2092 -0.0658 -0.2174
 7605TIP3    H144306   0.010   6.663  14.372 -1.1704  1.1317  1.5187
 7605TIP3    H244307   0.029   6.715  14.231  1.2672 -2.2584  0.5448
 7606TIP3   OH244308   5.521   1.531  12.663  0.2259  0.1488 -0.5456
 7606TIP3    H144309   5.577   1.601  12.630  1.0617  0.3847  1.2964
 7606TIP3    H244310   5.566   1.450  12.640  1.2905  0.3356  0.8263
 7607TIP3   OH244311   1.182   1.859  12.845  0.2621 -0.8719  0.0192
 7607TIP3    H144312   1.149   1.769  12.842 -2.8066  0.2227 -0.3782
 7607TIP3    H244313   1.217   1.875  12.758 -2.9644 -0.3658 -1.2531
 7608TIP3   OH244314   1.182   2.309   6.165 -0.3332  0.0711  0.4203
 7608TIP3    H144315   1.090   2.320   6.140 -0.1654  0.9556  0.1855
 7608TIP3    H244316   1.188   2.344   6.253 -0.4391 -0.9601  0.8460
 7609TIP3   OH244317   4.638   4.244   1.484  0.6250 -0.0092 -0.1719
 7609TIP3    H144318   4.618   4.256   1.577  1.0337  0.9870 -0.2064
 7609TIP3    H244319   4.552   4.239   1.442  0.4357 -1.1234  0.3329
 7610TIP3   OH244320   3.149   3.712  10.935 -0.4364  0.3784 -0.6358
 7610TIP3    H144321   3.220   3.753  10.886 -0.1684  0.1493 -0.4357
 7610TIP3    H244322   3.190   3.642  10.984 -0.3750  1.7181  1.3042
 7611TIP3   OH244323   5.504   1.069  15.691  0.7114 -0.1981 -0.9332
 7611TIP3    H144324   5.443   1.140  15.669  0.8340  0.4463  0.6836
 7611TIP3    H244325   5.484   1.048  15.782  1.1704 -1.7618 -1.1825
 7612TIP3   OH244326   2.546   2.500   6.354 -0.1888 -0.0182  0.4866
 7612TIP3    H144327   2.476   2.434   6.353  0.2180 -0.4744  1.4060
 7612TIP3    H244328   2.576   2.501   6.445  0.5235  0.6807  0.2424
 7613TIP3   OH244329   1.326   3.657   1.269 -0.7846  0.2017  0.0178
 7613TIP3    H144330   1.390   3.682   1.336  0.0938 -2.3366  0.1920
 7613TIP3    H244331   1.253   3.619   1.317 -1.1076  0.3588 -0.3447
 7614TIP3   OH244332   5.003   1.074  17.057 -0.0787  0.0968 -0.2755
 7614TIP3    H144333   5.019   1.109  16.969  2.6704  0.8204  0.4635
 7614TIP3    H244334   5.025   0.981  17.051  0.3272  0.1957 -0.2821
 7615TIP3   OH244335   4.420   6.396  15.153  0.3105 -0.2974 -0.9092
 7615TIP3    H144336   4.495   6.371  15.100  1.0656  2.2769 -1.0868
 7615TIP3    H244337   4.369   6.454  15.097 -0.7342 -0.3689 -0.0460
 7616TIP3   OH244338   3.465   5.960  16.358 -0.9964 -0.3935  0.0051
 7616TIP3    H144339   3.501   5.997  16.439 -0.7962  0.1127 -0.3067
 7616TIP3    H244340   3.526   5.990  16.290 -2.4127  1.0851 -0.6296
 7617TIP3   OH244341   1.207   2.823   0.443 -0.0514  0.2792  0.4037
 7617TIP3    H144342   1.157   2.741   0.449 -0.4087  0.5005  0.4993
 7617TIP3    H244343   1.238   2.838   0.532  1.6477 -0.7564  0.0040
 7618TIP3   OH244344   2.651   6.512   5.727 -0.7017  0.4319  0.0606
 7618TIP3    H144345   2.627   6.515   5.634 -1.5591  2.1038  0.3232
 7618TIP3    H244346   2.707   6.588   5.740 -0.7340  0.3031  0.9656
 7619TIP3   OH244347   5.786   6.548  17.133 -0.1571  0.3748  0.4965
 7619TIP3    H144348   5.738   6.614  17.183  0.3448  0.7239  0.5230
 7619TIP3    H244349   5.795   6.474  17.194 -2.9532 -0.7432 -0.3797
 7620TIP3   OH244350   6.790   1.503   5.026 -0.2194 -0.1732 -0.3464
 7620TIP3    H144351   6.714   1.523   4.972 -0.0515 -0.7970 -0.8087
 7620TIP3    H244352   6.764   1.425   5.076  0.0687 -0.3128 -0.4138
 7621TIP3   OH244353   1.457   3.504  15.363  0.0446  0.0238  0.3402
 7621TIP3    H144354   1.390   3.458  15.415  1.1309 -1.1688  0.7083
 7621TIP3    H244355   1.512   3.547  15.428 -0.6086  1.3680  0.0151
 7622TIP3   OH244356   1.168   4.717  16.784 -0.6996  0.7566  0.1010
 7622TIP3    H144357   1.108   4.659  16.735  0.5581 -0.0604 -0.5208
 7622TIP3    H244358   1.202   4.777  16.718 -0.7544  1.1497  0.4291
 7623TIP3   OH244359   6.591   2.873   6.141  0.6285  0.4268  0.5311
 7623TIP3    H144360   6.518   2.913   6.093  0.8137  1.5217  1.1367
 7623TIP3    H244361   6.566   2.881   6.233  0.6111 -0.9922  0.6558
 7624TIP3   OH244362   0.255   5.631  11.509 -0.7088 -0.7459 -0.4067
 7624TIP3    H144363   0.175   5.679  11.487 -1.8416 -2.8094 -0.9233
 7624TIP3    H244364   0.319   5.663  11.446 -1.5936 -0.3037 -1.1028
 7625TIP3   OH244365   0.512   1.074  13.358  0.3693  0.2272 -0.5373
 7625TIP3    H144366   0.487   1.166  13.366  0.3504  0.2497 -0.8731
 7625TIP3    H244367   0.523   1.060  13.264 -3.0585 -1.0174 -0.8457
 7626TIP3   OH244368   2.920   2.459   3.801  0.0232  0.0039 -0.2110
 7626TIP3    H144369   2.980   2.432   3.870  0.7597 -0.4373 -1.0132
 7626TIP3    H244370   2.955   2.543   3.771  0.2497 -0.2641 -0.6931
 7627TIP3   OH244371   3.138   1.068   4.744 -0.1066  0.1319  0.3912
 7627TIP3    H144372   3.188   1.008   4.799  0.3913  0.0844 -0.1065
 7627TIP3    H244373   3.174   1.154   4.764 -0.0869  0.1407  0.3195
 7628TIP3   OH244374   1.507   2.184   0.566  0.7194  0.8216 -0.2446
 7628TIP3    H144375   1.435   2.121   0.566  1.0032  0.4863  0.8411
 7628TIP3    H244376   1.464   2.269   0.560  0.2469  0.6029 -0.0305
 7629TIP3   OH244377   6.563   5.889   3.160 -0.0084 -0.4912 -0.7958
 7629TIP3    H144378   6.534   5.828   3.228 -0.0132  0.2023 -0.1714
 7629TIP3    H244379   6.619   5.951   3.206  0.2373 -0.1956 -1.4863
 7630TIP3   OH244380   1.419   5.403   6.531  0.3891 -0.2770  0.1287
 7630TIP3    H144381   1.347   5.356   6.572 -0.0215  0.9562  0.8311
 7630TIP3    H244382   1.485   5.411   6.599  1.3362 -1.6314 -0.5850
 7631TIP3   OH244383   5.164   2.463  14.327 -0.3334 -0.5511 -0.2459
 7631TIP3    H144384   5.171   2.550  14.288  0.8355 -0.6566 -0.3028
 7631TIP3    H244385   5.140   2.479  14.418 -1.0341 -0.2100 -0.4912
 7632TIP3   OH244386   1.339   5.201   6.316  0.1437  0.0284  0.2121
 7632TIP3    H144387   1.367   5.255   6.389 -0.5400  0.4806  0.1434
 7632TIP3    H244388   1.252   5.234   6.293 -0.8422 -1.9229  1.0004
 7633TIP3   OH244389   6.719   3.632   0.665 -0.3705 -0.4109 -0.0363
 7633TIP3    H144390   6.628   3.642   0.694 -0.1794  0.1039  0.3929
 7633TIP3    H244391   6.754   3.721   0.665  0.4120 -0.7154  0.7296
 7634TIP3   OH244392   4.785   4.468  11.412 -0.0811 -0.6198 -0.1535
 7634TIP3    H144393   4.782   4.383  11.456  1.7349 -0.8241 -0.3700
 7634TIP3    H244394   4.768   4.448  11.320  0.1772 -0.7428 -0.1760
 7635TIP3   OH244395   3.938   4.847  16.925  0.2536 -0.1236 -0.2007
 7635TIP3    H144396   3.854   4.875  16.887 -0.4504 -0.8664  0.7894
 7635TIP3    H244397   3.967   4.922  16.977 -0.9245 -0.6884  1.2899
 7636TIP3   OH244398   1.209   0.019  13.933  0.0302  1.0070  0.2254
 7636TIP3    H144399   1.154  -0.001  13.858 -0.9453  2.9715  0.3615
 7636TIP3    H244400   1.168   0.097  13.972  1.4163  0.9482  1.8608
 7637TIP3   OH244401   0.448   6.498   1.763 -0.0333  0.5473 -0.2133
 7637TIP3    H144402   0.508   6.475   1.834  0.4211 -0.3709 -0.8896
 7637TIP3    H244403   0.361   6.486   1.800  0.2004 -0.4795  0.0009
 7638TIP3   OH244404   2.974   0.084   4.521 -0.1778 -0.1734 -0.9058
 7638TIP3    H144405   2.882   0.068   4.542 -0.0148 -1.2439 -1.0073
 7638TIP3    H244406   3.007  -0.000   4.491  0.9777  0.0788 -0.3632
 7639TIP3   OH244407   6.813   0.513   4.090  0.0752 -0.3938 -0.1281
 7639TIP3    H144408   6.821   0.467   4.174  1.5880  0.5589  0.2607
 7639TIP3    H244409   6.733   0.477   4.051  0.1262 -1.8779  1.0766
 7640TIP3   OH244410   2.928   2.996   3.611 -0.7128 -0.3272 -0.0799
 7640TIP3    H144411   2.934   3.088   3.585  0.5334 -0.4900 -0.4046
 7640TIP3    H244412   3.005   2.955   3.571 -1.1094 -1.4510  0.3027
 7641TIP3   OH244413   1.782   0.907   4.506  0.1013 -0.3785  0.0980
 7641TIP3    H144414   1.757   0.823   4.468  1.5662 -0.9596  0.4195
 7641TIP3    H244415   1.699   0.953   4.518 -0.8396 -2.2893  1.1411
 7642TIP3   OH244416   5.688   0.728   5.514 -0.3107  0.0930  0.1425
 7642TIP3    H144417   5.767   0.676   5.529 -0.3222  0.4597  1.5698
 7642TIP3    H244418   5.688   0.792   5.586 -1.5609  0.5205 -0.2279
 7643TIP3   OH244419   1.224   4.089  16.094 -0.4661  0.1246 -0.5331
 7643TIP3    H144420   1.189   4.113  16.180  1.8096  0.8675  0.2079
 7643TIP3    H244421   1.205   4.165  16.038 -0.6802  0.2180 -0.3302
 7644TIP3   OH244422   5.880   2.860  14.986  0.1791 -0.0372 -0.1989
 7644TIP3    H144423   5.847   2.942  14.949 -2.0666 -0.6607  0.3356
 7644TIP3    H244424   5.875   2.797  14.915 -1.1981 -0.4834  0.2776
 7645TIP3   OH244425   3.402   1.526  13.755 -0.1835 -0.5922  0.5067
 7645TIP3    H144426   3.449   1.495  13.832  1.4517  0.6477  0.0416
 7645TIP3    H244427   3.334   1.460  13.741  1.1651 -2.2491  1.4296
 7646TIP3   OH244428   1.408   2.256   1.536  0.0894 -0.1741  0.0643
 7646TIP3    H144429   1.493   2.235   1.574 -1.2533  1.2825  4.1098
 7646TIP3    H244430   1.346   2.198   1.580 -1.4237  0.7899 -0.7260
 7647TIP3   OH244431   2.665   0.155   3.749  0.1241  0.1510 -0.0642
 7647TIP3    H144432   2.636   0.172   3.839  0.8638 -0.5889  0.3127
 7647TIP3    H244433   2.727   0.225   3.730  0.8882 -0.3833  0.4342
 7648TIP3   OH244434   1.486   2.802  14.119  0.3044  0.3099  0.1835
 7648TIP3    H144435   1.443   2.761  14.043  0.3762  2.3002 -0.9736
 7648TIP3    H244436   1.576   2.815  14.092  0.5085  0.3732  0.8819
 7649TIP3   OH244437   2.376   2.657  10.515  0.0232 -0.7839  0.4401
 7649TIP3    H144438   2.429   2.714  10.460  0.9471 -1.2091  0.8749
 7649TIP3    H244439   2.320   2.717  10.565  0.0157 -0.3406 -0.1039
 7650TIP3   OH244440   2.614   4.737  12.796 -0.1593 -0.2037  0.0230
 7650TIP3    H144441   2.635   4.804  12.862 -4.9747  2.7870 -1.1886
 7650TIP3    H244442   2.659   4.767  12.717  0.5692 -0.3520  0.3787
 7651TIP3   OH244443   0.687   4.145  17.205 -0.1725 -0.4544  0.0409
 7651TIP3    H144444   0.651   4.114  17.288 -2.3767 -2.1546 -1.4856
 7651TIP3    H244445   0.611   4.177  17.156  1.1448  0.9445 -1.1777
 7652TIP3   OH244446   3.536   5.156  12.246 -0.2844 -0.3146  0.2640
 7652TIP3    H144447   3.542   5.206  12.164  0.4436  0.7835  0.9678
 7652TIP3    H244448   3.626   5.136  12.268 -0.4409 -0.1258  1.0831
 7653TIP3   OH244449   4.679   0.796   4.904 -0.1277  0.4208 -0.0692
 7653TIP3    H144450   4.761   0.749   4.889 -0.1784  0.0167  0.8721
 7653TIP3    H244451   4.690   0.835   4.990 -0.4082  1.4697 -0.5078
 7654TIP3   OH244452   3.655   4.378   2.973 -0.1277  0.4002  0.4234
 7654TIP3    H144453   3.570   4.347   2.943  0.1189  0.4763 -0.3624
 7654TIP3    H244454   3.693   4.421   2.896  1.1802 -0.8007  0.3848
 7655TIP3   OH244455   6.102   2.060   4.797  0.3407  0.0078 -0.1673
 7655TIP3    H144456   6.171   1.994   4.787  1.2599  0.9988 -0.5064
 7655TIP3    H244457   6.127   2.130   4.737 -1.4885 -0.0312 -1.0139
 7656TIP3   OH244458   2.678   4.028  11.172  0.5831 -0.0896  0.0231
 7656TIP3    H144459   2.688   4.122  11.186  0.2881 -0.1515  0.6915
 7656TIP3    H244460   2.618   4.021  11.098 -0.0634  0.2524  0.5030
 7657TIP3   OH244461   1.689   3.274   4.372 -0.2894  0.6521  0.1695
 7657TIP3    H144462   1.717   3.344   4.312  0.7280 -0.2551 -0.4179
 7657TIP3    H244463   1.770   3.243   4.413 -0.7663 -0.0193  0.6176
 7658TIP3   OH244464   6.170   5.664  16.997 -0.3489 -0.4470  0.3107
 7658TIP3    H144465   6.181   5.736  16.935 -0.7242 -0.9880 -0.4115
 7658TIP3    H244466   6.258   5.645  17.029 -0.2864  0.4999  0.7028
 7659TIP3   OH244467   1.281   1.454   3.189 -0.3863  0.0805 -0.3638
 7659TIP3    H144468   1.306   1.411   3.107  2.3603  1.4121 -0.2927
 7659TIP3    H244469   1.267   1.546   3.164  1.0277  0.6070  0.7430
 7660TIP3   OH244470   2.792   5.592  12.701 -0.4330  0.5881  0.4074
 7660TIP3    H144471   2.833   5.676  12.725  2.2643  0.0652 -2.0576
 7660TIP3    H244472   2.858   5.526  12.723 -0.7912 -0.4883 -1.6180
 7661TIP3   OH244473   5.723   3.873  14.206 -0.2287 -0.2102  0.2576
 7661TIP3    H144474   5.706   3.957  14.248 -0.4968  0.2214 -0.6976
 7661TIP3    H244475   5.768   3.895  14.125  0.4062 -1.0454  0.3716
 7662TIP3   OH244476   1.004   5.107   5.939  0.1997  0.1637 -0.1519
 7662TIP3    H144477   1.026   5.055   5.862  2.3806  3.1053 -1.6171
 7662TIP3    H244478   0.909   5.097   5.948  0.3872 -3.0033 -1.0997
 7663TIP3   OH244479   1.801   1.341   1.046  0.1399  0.0844 -0.1712
 7663TIP3    H144480   1.715   1.354   1.006 -0.1313  1.0739  0.7192
 7663TIP3    H244481   1.790   1.264   1.101  0.2082 -0.6058 -1.0958
 7664TIP3   OH244482   0.919   5.968   2.036  0.1298 -0.5565 -0.5174
 7664TIP3    H144483   0.974   5.907   1.987 -1.2095 -2.1010 -0.1526
 7664TIP3    H244484   0.853   5.997   1.974  2.8450  3.3955 -1.7314
 7665TIP3   OH244485   2.253   4.921  16.104  0.3642 -0.8419  0.4634
 7665TIP3    H144486   2.204   4.970  16.171  3.2004  0.8506  1.4229
 7665TIP3    H244487   2.261   4.833  16.140  1.4028 -0.0832  2.1440
 7666TIP3   OH244488   5.363   4.797  17.249 -0.1770  0.2300 -0.1112
 7666TIP3    H144489   5.299   4.749  17.195  0.2323  0.1604 -0.5342
 7666TIP3    H244490   5.422   4.729  17.281  1.0715  0.5838 -1.6213
 7667TIP3   OH244491   0.555   0.713   2.672  0.4695 -0.2924  0.5399
 7667TIP3    H144492   0.464   0.716   2.700  0.1283 -1.5874 -0.3575
 7667TIP3    H244493   0.596   0.789   2.713 -1.7465  2.2008 -1.6555
 7668TIP3   OH244494   3.431   4.912  14.834  0.0825 -0.7485 -0.2694
 7668TIP3    H144495   3.377   4.885  14.908  1.0524 -0.3264  0.6137
 7668TIP3    H244496   3.388   4.875  14.757 -0.8711 -1.2935  0.5229
 7669TIP3   OH244497   0.765   6.003  12.985  0.8087  0.3864  0.0973
 7669TIP3    H144498   0.730   5.915  13.000  0.0722  0.6525 -0.0659
 7669TIP3    H244499   0.860   5.989  12.975  0.4382 -0.7089 -2.4343
 7670TIP3   OH244500   5.824   2.778  14.681 -0.0891 -0.0451 -0.2263
 7670TIP3    H144501   5.891   2.845  14.669 -0.0607 -0.2485 -1.2800
 7670TIP3    H244502   5.741   2.824  14.668 -0.0936 -0.0832 -0.3320
 7671TIP3   OH244503   3.402   4.722   0.665 -0.6159  0.3405 -0.2780
 7671TIP3    H144504   3.321   4.671   0.670 -0.2073 -0.4893 -1.8783
 7671TIP3    H244505   3.471   4.657   0.653  0.1930  1.1141  0.1363
 7672TIP3   OH244506   4.430   0.347  15.160 -0.3170  0.8549 -0.1442
 7672TIP3    H144507   4.476   0.299  15.091  0.4909  1.0951  0.2266
 7672TIP3    H244508   4.494   0.355  15.230 -1.3977 -0.1173  0.9781
 7673TIP3   OH244509   2.124   0.453  14.389 -0.5830 -0.8277  0.6046
 7673TIP3    H144510   2.032   0.442  14.362 -0.4803 -0.0412 -0.0836
 7673TIP3    H244511   2.147   0.369  14.430 -1.9490 -0.6408  1.8010
 7674TIP3   OH244512   0.766   2.402   1.914  0.9979 -0.4329 -0.5141
 7674TIP3    H144513   0.713   2.342   1.968  0.0957 -0.5982 -1.5472
 7674TIP3    H244514   0.756   2.487   1.955  0.9696 -0.7073  0.0477
 7675TIP3   OH244515   2.144   5.829   4.949 -0.3274  0.2620 -0.1776
 7675TIP3    H144516   2.208   5.787   5.006 -1.6091  0.4516  1.4628
 7675TIP3    H244517   2.146   5.921   4.975 -0.7406  0.3960 -0.6149
 7676TIP3   OH244518   4.438   3.366   5.577 -0.4233  0.0705 -0.0296
 7676TIP3    H144519   4.349   3.398   5.587 -0.4975  0.7373 -2.5442
 7676TIP3    H244520   4.492   3.433   5.619 -0.9974  0.2851  0.3769
 7677TIP3   OH244521   6.361   6.443  12.853 -0.1009  0.1239 -0.2233
 7677TIP3    H144522   6.399   6.434  12.940  2.0246  1.7545 -0.9262
 7677TIP3    H244523   6.427   6.404  12.795 -0.2670  1.4877 -1.3305
 7678TIP3   OH244524   2.670   2.023   1.186 -0.0094 -0.1559 -0.1613
 7678TIP3    H144525   2.658   1.966   1.110 -2.7336 -1.0781  0.8905
 7678TIP3    H244526   2.663   2.112   1.150 -2.1758 -0.5905 -0.9024
 7679TIP3   OH244527   0.787   5.915   4.964 -0.0355  0.3036 -0.0980
 7679TIP3    H144528   0.701   5.880   4.986 -0.6078  0.7609 -1.5845
 7679TIP3    H244529   0.841   5.837   4.946  0.1884 -0.0365  1.9131
 7680TIP3   OH244530   6.351   1.616  12.931  0.0714 -0.7003 -0.4835
 7680TIP3    H144531   6.368   1.707  12.905  0.9671  0.0486  2.5602
 7680TIP3    H244532   6.382   1.564  12.857 -0.4086  1.4667 -2.2470
 7681TIP3   OH244533   4.350   6.033  13.462 -0.5385 -0.2784 -0.3736
 7681TIP3    H144534   4.443   6.017  13.476 -1.1771 -2.2385  1.9576
 7681TIP3    H244535   4.331   6.111  13.514 -0.4818 -0.7161  0.3082
 7682TIP3   OH244536   6.738   5.142  15.353  0.3520 -0.3062 -0.4115
 7682TIP3    H144537   6.782   5.062  15.380 -0.4925 -1.2245 -1.6587
 7682TIP3    H244538   6.761   5.152  15.260 -2.5337 -1.1915 -1.2882
 7683TIP3   OH244539   6.033   3.153  13.395  0.0112 -0.5871 -0.0043
 7683TIP3    H144540   6.076   3.119  13.473 -0.4127  0.7371  0.8136
 7683TIP3    H244541   6.080   3.234  13.375 -0.7951 -0.1883 -0.2899
 7684TIP3   OH244542   0.221   6.009   5.033  0.0148  0.7334 -0.7221
 7684TIP3    H144543   0.232   5.937   5.095 -1.7961  2.4388  1.6802
 7684TIP3    H244544   0.224   5.968   4.947  1.1675 -1.8884  0.5260
 7685TIP3   OH244545   4.724   3.435   4.040  0.0912 -0.4273  0.2572
 7685TIP3    H144546   4.697   3.349   4.071 -1.3801 -0.7137 -1.7148
 7685TIP3    H244547   4.659   3.496   4.077 -0.7443 -0.5798 -0.9195
 7686TIP3   OH244548   4.490   0.452  16.568 -0.3814 -0.6216 -0.2156
 7686TIP3    H144549   4.473   0.379  16.509 -0.7878 -0.8425  0.1736
 7686TIP3    H244550   4.418   0.513  16.552  0.0454 -0.2290 -0.6585
 7687TIP3   OH244551   2.463   3.875  11.042  0.2051 -0.2945 -0.0174
 7687TIP3    H144552   2.485   3.888  10.949 -1.8111  3.0141 -0.1198
 7687TIP3    H244553   2.389   3.814  11.040 -2.5945  3.0191 -0.9439
 7688TIP3   OH244554   4.485   2.949   6.279  0.6311 -0.0775  0.2471
 7688TIP3    H144555   4.524   2.893   6.346  0.5946  0.9469  1.1397
 7688TIP3    H244556   4.547   3.021   6.268  0.0364  0.4252  0.1016
 7689TIP3   OH244557   0.687   3.835  15.302 -0.2600 -0.0124  0.1798
 7689TIP3    H144558   0.607   3.782  15.305  0.2003 -0.7308 -0.1878
 7689TIP3    H244559   0.674   3.901  15.370 -1.1873 -0.0955  0.0939
 7690TIP3   OH244560   0.310   4.709   4.515  0.1691 -0.1146  0.0330
 7690TIP3    H144561   0.331   4.795   4.550 -1.3115  0.8429 -1.3674
 7690TIP3    H244562   0.389   4.681   4.469  1.1308 -0.1342  1.6497
 7691TIP3   OH244563   6.102   4.690  10.877 -0.0419 -0.2288 -0.3759
 7691TIP3    H144564   6.153   4.754  10.829 -0.0737  1.3762  1.6418
 7691TIP3    H244565   6.011   4.706  10.851 -0.2273  1.6548  1.2712
 7692TIP3   OH244566   0.115   6.311   2.986  0.0612  0.0469  0.0442
 7692TIP3    H144567   0.066   6.391   3.005 -0.3925 -0.4709  1.0658
 7692TIP3    H244568   0.068   6.271   2.913  0.3386  0.7466 -0.5290
 7693TIP3   OH244569   0.709   5.335  13.806  0.1329  0.2415 -0.2825
 7693TIP3    H144570   0.639   5.304  13.865 -1.1128  0.9363 -1.3770
 7693TIP3    H244571   0.671   5.410  13.761  1.1221 -0.1900 -1.8800
 7694TIP3   OH244572   0.830   0.631  11.813  0.4981  0.3950 -0.2860
 7694TIP3    H144573   0.855   0.632  11.721 -0.2102  0.8838 -0.4764
 7694TIP3    H244574   0.821   0.724  11.837  1.6551  0.2962  0.5395
 7695TIP3   OH244575   4.398   1.582  15.808 -0.3317  0.0910  0.3458
 7695TIP3    H144576   4.439   1.500  15.836 -1.7938 -0.3158  1.3062
 7695TIP3    H244577   4.418   1.586  15.714 -1.3630 -2.0352 -0.0057
 7696TIP3   OH244578   5.780   0.175   2.686 -0.2114 -0.9252  0.3233
 7696TIP3    H144579   5.845   0.115   2.723 -0.1340 -0.3852  1.0791
 7696TIP3    H244580   5.735   0.123   2.619  1.5867 -1.0497 -0.8242
 7697TIP3   OH244581   1.734   3.063   1.653  0.1214  0.1506  0.2270
 7697TIP3    H144582   1.816   3.107   1.672 -0.0801  0.5568  0.1484
 7697TIP3    H244583   1.666   3.122   1.686 -0.0987 -0.7863  1.4985
 7698TIP3   OH244584   2.001   1.524  14.414 -0.3777 -0.2233  0.2580
 7698TIP3    H144585   1.986   1.522  14.509 -0.4495 -0.5721  0.2412
 7698TIP3    H244586   2.038   1.610  14.398 -3.0014  0.9422  0.2276
 7699TIP3   OH244587   3.418   5.803   3.319  0.4884 -0.1511 -0.9585
 7699TIP3    H144588   3.324   5.792   3.338  0.3466  1.4091 -0.6943
 7699TIP3    H244589   3.434   5.744   3.245 -0.8935  0.1647 -1.5429
 7700TIP3   OH244590   3.910   3.686   4.870 -0.3642 -0.2267  0.0218
 7700TIP3    H144591   3.958   3.768   4.884  0.1610 -0.7379  1.3248
 7700TIP3    H244592   3.969   3.632   4.817 -0.8975  0.3886 -1.2299
 7701TIP3   OH244593   4.645   0.369   0.922 -0.7907 -0.8840 -0.2605
 7701TIP3    H144594   4.601   0.365   0.837 -1.1786 -2.0703 -0.0116
 7701TIP3    H244595   4.709   0.440   0.913 -1.9432  0.0746 -1.0085
 7702TIP3   OH244596   2.521   4.223   0.928 -0.3215 -0.3578  0.2110
 7702TIP3    H144597   2.563   4.200   1.011  0.0340 -0.2344  0.0669
 7702TIP3    H244598   2.438   4.262   0.953  0.1416  0.4240  0.5395
 7703TIP3   OH244599   1.143   3.488   3.095 -0.3075 -0.3713  0.2033
 7703TIP3    H144600   1.174   3.493   3.005 -0.9018 -0.8144 -0.0338
 7703TIP3    H244601   1.159   3.576   3.131 -0.0676 -0.1934 -0.3285
 7704TIP3   OH244602   1.222   1.131   4.724 -0.2958 -0.0020  0.1051
 7704TIP3    H144603   1.290   1.190   4.692  1.0260 -0.9568  1.0694
 7704TIP3    H244604   1.197   1.168   4.809 -0.3613 -0.1368  0.1445
 7705TIP3   OH244605   3.284   1.847  13.345 -0.3553  0.6446  0.4509
 7705TIP3    H144606   3.197   1.807  13.354  0.0224 -0.2657  0.1737
 7705TIP3    H244607   3.283   1.889  13.259 -0.7876  1.3104  0.7794
 7706TIP3   OH244608   6.786   3.189   3.015 -0.1716 -0.1880  0.3457
 7706TIP3    H144609   6.829   3.108   2.985  1.3731  0.6876  0.1728
 7706TIP3    H244610   6.800   3.251   2.944 -0.8362  0.4306  0.7520
 7707TIP3   OH244611   5.998   3.590  10.864  0.0775  0.5741  0.5052
 7707TIP3    H144612   5.910   3.583  10.902  0.3093  1.2013  1.1566
 7707TIP3    H244613   5.983   3.589  10.769 -0.6453  0.8654  0.6139
 7708TIP3   OH244614   1.161   1.842  16.528  0.6377 -0.2357  0.3825
 7708TIP3    H144615   1.154   1.785  16.605  1.0457 -1.2375 -0.3180
 7708TIP3    H244616   1.076   1.886  16.524  0.7287  0.0763  1.5911
 7709TIP3   OH244617   5.573   6.376   3.755  0.5229  0.5574 -0.0258
 7709TIP3    H144618   5.514   6.380   3.679  0.1194 -3.7326 -0.0736
 7709TIP3    H244619   5.659   6.399   3.720  0.2468 -0.8491 -1.7014
 7710TIP3   OH244620   1.747   0.582  11.487  0.0347 -0.4930  0.0422
 7710TIP3    H144621   1.738   0.655  11.549  1.2845 -0.9351  0.7590
 7710TIP3    H244622   1.671   0.590  11.430 -0.0291  1.1636  0.3345
 7711TIP3   OH244623   2.073   0.276   4.396  0.4163 -0.1991  0.2197
 7711TIP3    H144624   2.102   0.244   4.481  2.4313  2.5849  0.6667
 7711TIP3    H244625   2.009   0.344   4.417  0.3612 -0.0188 -0.5166
 7712TIP3   OH244626   5.258   4.582   1.731  0.1731 -0.5156 -0.6054
 7712TIP3    H144627   5.183   4.615   1.781 -1.4420 -1.8634 -2.0580
 7712TIP3    H244628   5.224   4.573   1.642  2.1981 -0.7968 -1.3549
 7713TIP3   OH244629   4.479   5.047  12.442  0.4983  0.4865 -0.0839
 7713TIP3    H144630   4.570   5.025  12.461  0.3399  1.1999  1.6081
 7713TIP3    H244631   4.485   5.126  12.388  0.8990  0.2970 -0.3183
 7714TIP3   OH244632   4.889   0.499   4.598 -0.7637  0.2148  0.5098
 7714TIP3    H144633   4.959   0.463   4.653  0.7454  0.1337 -1.4221
 7714TIP3    H244634   4.888   0.593   4.619  1.3881  0.6161 -0.9437
 7715TIP3   OH244635   4.451   1.437   4.725 -0.0807 -0.2006 -0.4802
 7715TIP3    H144636   4.422   1.429   4.816  0.0742 -1.9190 -0.5785
 7715TIP3    H244637   4.532   1.386   4.721  0.6415  0.9842 -1.2632
 7716TIP3   OH244638   5.694   6.203   2.385  0.3657  0.0562 -0.1936
 7716TIP3    H144639   5.693   6.237   2.475  0.6624 -1.2834  0.3206
 7716TIP3    H244640   5.786   6.182   2.369  0.0622 -1.2942 -0.2103
 7717TIP3   OH244641   2.877   5.269  11.217  0.3924  0.0000  0.1668
 7717TIP3    H144642   2.922   5.188  11.193  0.5772  0.2111 -0.2005
 7717TIP3    H244643   2.793   5.240  11.254 -0.2849 -0.2952 -1.5522
 7718TIP3   OH244644   5.926   0.405   5.458  0.5215  0.2431 -0.1657
 7718TIP3    H144645   5.876   0.440   5.384 -0.9281  0.9504  1.1098
 7718TIP3    H244646   5.866   0.411   5.533  1.6384 -1.2899  0.9014
 7719TIP3   OH244647   1.010   6.152   4.843 -0.2810 -0.2217 -0.1304
 7719TIP3    H144648   0.953   6.091   4.890 -0.6540  0.4964  0.3516
 7719TIP3    H244649   0.961   6.176   4.765 -1.6493  2.2097  1.4388
 7720TIP3   OH244650   3.675   0.403  12.126 -0.2416  0.3605 -1.0000
 7720TIP3    H144651   3.621   0.375  12.053 -0.7958 -1.0796 -0.0583
 7720TIP3    H244652   3.698   0.322  12.172  0.8947  1.1514 -0.1387
 7721TIP3   OH244653   1.568   4.947  15.554  0.0493  0.4133 -0.0687
 7721TIP3    H144654   1.573   4.994  15.637 -0.5621  2.4155 -1.1420
 7721TIP3    H244655   1.503   4.995  15.503  1.8993  0.4428 -2.4688
 7722TIP3   OH244656   0.544   5.747  10.193 -0.6561 -0.5644  0.4021
 7722TIP3    H144657   0.532   5.663  10.238 -1.2881  0.0253  1.3562
 7722TIP3    H244658   0.574   5.807  10.262 -0.7231  0.1131 -0.1587
 7723TIP3   OH244659   0.058   3.911  15.393  0.9409 -0.0343 -0.0234
 7723TIP3    H144660   0.095   3.871  15.314  1.0237  0.3529 -0.1829
 7723TIP3    H244661   0.116   3.985  15.411  0.4344  0.3775 -0.0818
 7724TIP3   OH244662   3.951   1.238  13.072  0.4246  0.2293  0.2183
 7724TIP3    H144663   3.944   1.254  13.166  1.2603  1.5681  0.0770
 7724TIP3    H244664   3.867   1.266  13.036 -0.5426 -1.9471  0.7683
 7725TIP3   OH244665   4.980   4.794  14.035  0.5805 -0.1877 -0.8957
 7725TIP3    H144666   5.016   4.707  14.054  2.0154  0.7118  0.7471
 7725TIP3    H244667   4.983   4.839  14.120 -0.8658  1.2005 -1.5719
 7726TIP3   OH244668   5.536   2.262  16.329  0.2868 -0.3556  0.0063
 7726TIP3    H144669   5.604   2.244  16.264  0.3560 -0.0764  0.0033
 7726TIP3    H244670   5.505   2.175  16.355 -0.3177 -0.4552 -1.0107
 7727TIP3   OH244671   6.587   1.017  15.066  0.3576  0.2036 -0.0272
 7727TIP3    H144672   6.663   0.966  15.092  0.7489 -0.1068 -1.7168
 7727TIP3    H244673   6.512   0.963  15.092  0.6601  0.7767  2.1807
 7728TIP3   OH244674   3.687   6.460   4.509 -0.8783  0.0270 -0.0134
 7728TIP3    H144675   3.734   6.534   4.548  1.4080 -0.4615 -1.7971
 7728TIP3    H244676   3.736   6.383   4.537 -1.5335 -0.6185 -0.6194
 7729TIP3   OH244677   4.944   4.584   2.831  1.1458 -0.3107  0.1980
 7729TIP3    H144678   5.031   4.598   2.870  0.1021 -0.4925  2.7181
 7729TIP3    H244679   4.902   4.522   2.890 -0.3796 -0.9519 -1.5273
 7730TIP3   OH244680   6.126   6.525   5.702  0.0957  0.0898 -0.1111
 7730TIP3    H144681   6.177   6.482   5.770 -2.3857 -3.1180 -0.1315
 7730TIP3    H244682   6.038   6.532   5.739 -0.2462  2.5530 -1.2723
 7731TIP3   OH244683   3.332   4.352  16.391 -0.0661 -0.5409  0.4554
 7731TIP3    H144684   3.345   4.302  16.311  1.1387  0.4536  0.0098
 7731TIP3    H244685   3.408   4.331  16.446 -0.4774 -0.5992  1.0138
 7732TIP3   OH244686   5.968   5.744  12.927  0.0258 -0.1441 -0.3673
 7732TIP3    H144687   5.976   5.800  12.850 -0.5135  0.5051  0.0446
 7732TIP3    H244688   6.025   5.784  12.992 -1.8318  1.0548  0.5737
 7733TIP3   OH244689   2.212   4.396   1.252 -0.1612 -0.4263 -0.0116
 7733TIP3    H144690   2.207   4.391   1.347  1.3220  0.7710  0.1512
 7733TIP3    H244691   2.145   4.459   1.227 -0.3538 -0.5264  0.2554
 7734TIP3   OH244692   6.304   4.843   1.654  0.1670  0.4475  0.5332
 7734TIP3    H144693   6.389   4.885   1.646  0.2892 -0.2274 -2.0692
 7734TIP3    H244694   6.245   4.898   1.603 -0.3097 -0.7469 -0.2315
 7735TIP3   OH244695   6.743   1.911   1.266 -0.2404 -0.2940 -0.2861
 7735TIP3    H144696   6.782   1.834   1.225  0.0630 -0.8494  0.9956
 7735TIP3    H244697   6.695   1.875   1.342  0.5189  0.8540  0.7572
 7736TIP3   OH244698   6.325   4.911   2.864  0.1244  0.1311  0.2234
 7736TIP3    H144699   6.384   4.844   2.899  2.6471  0.9963 -2.1496
 7736TIP3    H244700   6.274   4.866   2.797  0.7899  0.2226 -0.3538
 7737TIP3   OH244701   4.064   4.311   5.862 -0.0150  0.4087  0.1672
 7737TIP3    H144702   4.133   4.372   5.835  0.5916  0.3698  1.5442
 7737TIP3    H244703   4.092   4.282   5.949 -1.0544 -0.7059  0.1348
 7738TIP3   OH244704   4.324   3.678   2.592  0.2346 -0.7613  0.6554
 7738TIP3    H144705   4.277   3.658   2.511  1.3760 -1.2850  0.1137
 7738TIP3    H244706   4.407   3.716   2.564  0.6340 -0.9328  1.5726
 7739TIP3   OH244707   0.908   6.600   1.115 -0.4545  0.4830 -0.3450
 7739TIP3    H144708   0.830   6.561   1.075 -1.3738  1.5122  0.4210
 7739TIP3    H244709   0.965   6.620   1.041  0.3792 -2.9604 -0.7392
 7740TIP3   OH244710   4.574   3.972  13.784 -0.4908 -0.1884 -0.1307
 7740TIP3    H144711   4.634   3.904  13.751  0.2898  1.0328 -1.3057
 7740TIP3    H244712   4.609   3.996  13.870 -1.1781 -1.7626  0.6002
 7741TIP3   OH244713   4.139   1.473   3.171 -0.4001 -0.1495 -0.3487
 7741TIP3    H144714   4.044   1.472   3.157 -0.5028 -1.5706  0.3248
 7741TIP3    H244715   4.174   1.516   3.093 -1.7625  2.8468  0.6189
 7742TIP3   OH244716   3.207   4.176  13.272 -0.1001  0.1002 -0.3234
 7742TIP3    H144717   3.278   4.131  13.227 -0.0059 -1.6305  1.4809
 7742TIP3    H244718   3.153   4.213  13.202  1.6341 -0.0090 -1.7440
 7743TIP3   OH244719   0.294   0.236  12.051  0.0935 -0.4551  0.0549
 7743TIP3    H144720   0.375   0.238  12.001  1.0118 -0.4988  1.4954
 7743TIP3    H244721   0.233   0.291  12.002  0.7881 -0.9626 -1.3826
 7744TIP3   OH244722   1.850   3.689  17.191  0.0322 -0.0556 -0.2216
 7744TIP3    H144723   1.924   3.664  17.246 -0.7725 -1.2805  0.3364
 7744TIP3    H244724   1.802   3.753  17.245  1.3179  1.6936 -1.0781
 7745TIP3   OH244725   1.212   1.154   0.162  0.2178 -0.1644  0.4238
 7745TIP3    H144726   1.177   1.138   0.250 -1.9647 -0.1300 -0.4224
 7745TIP3    H244727   1.177   1.239   0.137 -0.2988 -0.7925 -1.0217
 7746TIP3   OH244728   5.559   4.068  15.385 -0.2958  0.3965  0.1756
 7746TIP3    H144729   5.524   4.089  15.472  0.2163 -0.1188  0.5051
 7746TIP3    H244730   5.622   4.138  15.367  0.3190 -0.0283  0.6415
 7747TIP3   OH244731   4.294   5.259   0.155 -0.1316 -0.4372 -0.3778
 7747TIP3    H144732   4.314   5.218   0.239  1.4370 -0.8240 -0.9325
 7747TIP3    H244733   4.225   5.322   0.175 -0.0562 -0.8164  1.1269
 7748TIP3   OH244734   5.923   3.120  11.463  0.0014  0.2385 -0.3852
 7748TIP3    H144735   5.838   3.135  11.505 -0.5035  1.1824 -1.7073
 7748TIP3    H244736   5.907   3.049  11.401  0.3808 -0.1348 -0.0594
 7749TIP3   OH244737   1.067   4.791  13.546  0.3931  0.4574 -0.5237
 7749TIP3    H144738   1.023   4.782  13.630  0.6996  2.4999 -0.1123
 7749TIP3    H244739   1.085   4.702  13.518 -0.0058 -0.2438  1.4268
 7750TIP3   OH244740   5.628   4.917  14.374 -0.5977  0.5239  0.5440
 7750TIP3    H144741   5.545   4.964  14.369  0.7395  3.1577  2.3822
 7750TIP3    H244742   5.629   4.878  14.461  1.0100  2.3047  1.3519
 7751TIP3   OH244743   1.360   3.822  12.791  0.6010  0.0709  0.8501
 7751TIP3    H144744   1.395   3.811  12.703  1.7098  1.2027  1.1384
 7751TIP3    H244745   1.381   3.913  12.814 -1.5261  0.4343  1.4603
 7752TIP3   OH244746   2.305   3.344  12.666  0.3021  0.4778 -1.1971
 7752TIP3    H144747   2.371   3.356  12.598 -0.5743  1.9067 -1.8178
 7752TIP3    H244748   2.324   3.413  12.730  2.0066 -1.7140  0.7817
 7753TIP3   OH244749   5.229   4.505  15.333 -0.0616 -0.2164 -0.4485
 7753TIP3    H144750   5.252   4.497  15.425  1.7444 -0.5188 -0.8926
 7753TIP3    H244751   5.237   4.599  15.315  1.1906 -0.3454 -0.6583
 7754TIP3   OH244752   3.914   4.695  16.071  0.0737 -0.5845 -0.3433
 7754TIP3    H144753   3.949   4.606  16.076 -0.7171 -0.9109 -0.4975
 7754TIP3    H244754   3.937   4.724  15.982  0.4198 -0.6009 -0.2584
 7755TIP3   OH244755   3.570   1.902   5.081 -0.5239  0.5764  0.0939
 7755TIP3    H144756   3.589   1.977   5.024 -1.6150  0.1867 -0.7956
 7755TIP3    H244757   3.521   1.938   5.155 -0.0670  0.9130  0.2319
 7756TIP3   OH244758   5.774   6.555  11.325 -0.0273 -0.1401 -0.2365
 7756TIP3    H144759   5.816   6.521  11.246  0.8545 -1.8714  0.9351
 7756TIP3    H244760   5.715   6.484  11.352  0.7770 -0.1701  1.4767
 7757TIP3   OH244761   0.264   0.201   4.610  0.8079  0.5082  0.0976
 7757TIP3    H144762   0.186   0.186   4.663  0.5599  0.7416 -0.2009
 7757TIP3    H244763   0.252   0.147   4.532  0.6813  0.9770 -0.2093
 7758TIP3   OH244764   6.504   2.166  13.828 -0.2062  0.2235  0.0798
 7758TIP3    H144765   6.575   2.229  13.816  1.0393 -0.9751  0.9814
 7758TIP3    H244766   6.489   2.128  13.742 -0.2782  1.0367 -0.2642
 7759TIP3   OH244767   1.946   0.437   0.111  0.6370  0.6596  0.0436
 7759TIP3    H144768   1.860   0.465   0.079 -0.5665 -0.8143  1.8858
 7759TIP3    H244769   1.988   0.518   0.139 -0.9307  1.2100  0.9212
 7760TIP3   OH244770   4.630   2.653  11.747 -0.2183  0.0351 -0.0163
 7760TIP3    H144771   4.624   2.584  11.682  3.9003 -0.8165  0.3382
 7760TIP3    H244772   4.595   2.614  11.827 -1.3724 -0.3600 -0.7096
 7761TIP3   OH244773   1.189   4.118   1.469 -0.3399  0.6218  0.6889
 7761TIP3    H144774   1.116   4.096   1.412  0.9584 -2.4205  0.1216
 7761TIP3    H244775   1.199   4.213   1.459 -2.8032  0.7662 -0.8729
 7762TIP3   OH244776   2.667   0.262  13.572  0.0513  0.2943 -0.9876
 7762TIP3    H144777   2.718   0.343  13.578  0.6305 -0.1743  0.6962
 7762TIP3    H244778   2.727   0.200  13.529  1.6398 -0.7473  2.4830
 7763TIP3   OH244779   1.856   0.037  12.913 -0.1651  0.5939  0.0106
 7763TIP3    H144780   1.775   0.030  12.863  0.3054  2.1472 -0.9814
 7763TIP3    H244781   1.899   0.116  12.880  2.6562 -1.1777 -0.8027
 7764TIP3   OH244782   1.159   6.172  16.930 -0.1898 -0.3131  0.5672
 7764TIP3    H144783   1.082   6.120  16.951 -1.4150  2.0535  2.0774
 7764TIP3    H244784   1.126   6.260  16.915  1.9117  0.2050 -1.4024
 7765TIP3   OH244785   0.602   5.512   3.371  0.2378  0.0202 -0.1462
 7765TIP3    H144786   0.523   5.550   3.333  0.5731  0.8402 -0.0256
 7765TIP3    H244787   0.586   5.514   3.466  0.0352 -0.6424 -0.1583
 7766TIP3   OH244788   1.073   3.048   6.747 -0.0434  0.0172 -0.2728
 7766TIP3    H144789   0.977   3.042   6.748 -0.0797  0.5344 -0.6356
 7766TIP3    H244790   1.102   2.958   6.734 -0.4938 -0.0630 -0.7776
 7767TIP3   OH244791   4.778   3.527   3.049 -0.5977  0.4031 -0.2295
 7767TIP3    H144792   4.755   3.548   3.140 -0.9475  1.4443 -0.5530
 7767TIP3    H244793   4.868   3.495   3.054 -1.1306 -1.0211  0.6760
 7768TIP3   OH244794   4.445   6.383   2.747  0.2303  0.0660  0.1245
 7768TIP3    H144795   4.368   6.441   2.740  0.0073 -0.2878 -0.3991
 7768TIP3    H244796   4.467   6.362   2.657  0.9120  0.1109  0.2785
 7769TIP3   OH244797   5.986   4.472   4.283  0.3471  0.2705  0.0369
 7769TIP3    H144798   6.070   4.435   4.309  1.3077  1.6372 -1.0800
 7769TIP3    H244799   5.998   4.566   4.288 -1.2251  0.4762  0.1650
 7770TIP3   OH244800   3.580   5.859   4.681 -0.4160 -0.2937 -0.1688
 7770TIP3    H144801   3.671   5.878   4.703 -0.3513  1.1537 -1.5839
 7770TIP3    H244802   3.571   5.764   4.693  1.2579 -0.4274  0.0300
 7771TIP3   OH244803   1.538   5.542  15.833  0.6832 -0.0007  0.4214
 7771TIP3    H144804   1.604   5.495  15.782  0.9333  1.6239 -0.7860
 7771TIP3    H244805   1.533   5.493  15.916  1.1386 -1.9496 -0.6655
 7772TIP3   OH244806   5.001   2.693   2.828  0.1957 -0.4849 -0.2800
 7772TIP3    H144807   5.006   2.622   2.764  0.2623  0.4771 -1.3613
 7772TIP3    H244808   5.091   2.728   2.832  0.1177 -0.3241  0.0783
 7773TIP3   OH244809   4.800   1.314  14.274  0.1285 -0.0948 -0.0174
 7773TIP3    H144810   4.814   1.332  14.367 -0.9445 -0.3031  0.1963
 7773TIP3    H244811   4.807   1.218  14.267 -0.2604 -0.1220 -0.0595
 7774TIP3   OH244812   6.625   1.360   0.290  0.1204 -0.1272  0.2362
 7774TIP3    H144813   6.684   1.411   0.346  0.2334  0.3326 -0.2950
 7774TIP3    H244814   6.652   1.383   0.201 -2.5931  2.1750 -0.0481
 7775TIP3   OH244815   4.897   1.754  11.247 -0.1403 -0.0617  0.2084
 7775TIP3    H144816   4.990   1.735  11.257 -0.0577  0.1576 -0.1162
 7775TIP3    H244817   4.887   1.843  11.283 -0.2248 -0.0847  0.2428
 7776TIP3   OH244818   2.502   4.247  13.759  0.4440  0.6967 -0.3740
 7776TIP3    H144819   2.489   4.217  13.669  0.9575  1.9381 -0.8736
 7776TIP3    H244820   2.590   4.285  13.759  0.9913 -0.5081  0.9940
 7777TIP3   OH244821   3.061   0.891  15.830  0.1156  0.1417  0.6986
 7777TIP3    H144822   3.008   0.970  15.828  0.0012  0.1205  2.3427
 7777TIP3    H244823   3.145   0.919  15.866  0.1992 -0.4037  0.9422
 7778TIP3   OH244824   5.499   3.070   3.349  0.2058 -0.1831 -0.1929
 7778TIP3    H144825   5.508   3.152   3.399 -1.7402 -1.1577  1.8713
 7778TIP3    H244826   5.544   3.005   3.402 -1.5478 -1.1626  0.1626
 7779TIP3   OH244827   3.237   4.337   5.781  0.4250 -0.5894 -0.1259
 7779TIP3    H144828   3.305   4.319   5.846  0.1401  1.0945  0.6703
 7779TIP3    H244829   3.281   4.391   5.715 -0.0150  0.1883  0.1994
 7780TIP3   OH244830   4.515   3.125  11.201 -0.0330 -0.5418 -0.8112
 7780TIP3    H144831   4.562   3.111  11.283  0.0218  0.1672 -0.7137
 7780TIP3    H244832   4.445   3.060  11.202  1.4800 -2.2171 -1.3911
 7781TIP3   OH244833   5.977   5.836   0.618 -0.0958 -0.1806  0.2534
 7781TIP3    H144834   5.921   5.811   0.692 -1.4843  0.2814 -0.6216
 7781TIP3    H244835   6.061   5.860   0.658 -0.6836 -0.3797  1.6290
 7782TIP3   OH244836   6.663   0.979  12.548  0.1362  0.4688  0.2928
 7782TIP3    H144837   6.601   0.955  12.478  0.6081  1.9496 -0.6813
 7782TIP3    H244838   6.620   1.052  12.592 -0.2183 -0.5570  1.6613
 7783TIP3   OH244839   1.608   1.728   4.158 -0.5240 -0.0705 -0.2698
 7783TIP3    H144840   1.620   1.823   4.166  3.1253 -0.5387  0.5643
 7783TIP3    H244841   1.614   1.696   4.248  2.7365 -1.5013 -0.9384
 7784TIP3   OH244842   1.637   0.667   5.180 -0.2021 -0.1412  0.6122
 7784TIP3    H144843   1.729   0.683   5.198 -0.0491 -0.8750  0.4978
 7784TIP3    H244844   1.636   0.635   5.090 -0.8445  2.4445 -0.3635
 7785TIP3   OH244845   1.725   0.200   2.654 -0.7882  0.2191 -0.1137
 7785TIP3    H144846   1.794   0.264   2.675 -2.8330  2.3041  0.4769
 7785TIP3    H244847   1.772   0.118   2.642  1.7129  1.3757  1.2223
 7786TIP3   OH244848   6.301   4.533   4.623  0.2398 -0.2764  0.1843
 7786TIP3    H144849   6.282   4.622   4.592 -1.7021 -1.0918 -1.0712
 7786TIP3    H244850   6.389   4.515   4.591 -0.1254  0.4627 -1.2802
 7787TIP3   OH244851   6.133   0.198   4.080  0.2212 -0.0855  0.3397
 7787TIP3    H144852   6.046   0.184   4.118  0.2954 -0.0471  0.5209
 7787TIP3    H244853   6.115   0.247   3.999  0.0522 -0.3198  0.2373
 7788TIP3   OH244854   4.830   1.731   0.751 -0.2382 -0.4174  0.3690
 7788TIP3    H144855   4.799   1.716   0.841 -0.2907  0.0319  0.4256
 7788TIP3    H244856   4.907   1.675   0.744 -0.3637 -0.6256  0.6226
 7789TIP3   OH244857   4.441   3.115   6.583 -0.6867  0.1387  0.0045
 7789TIP3    H144858   4.503   3.052   6.621  0.1936  0.5112 -0.8029
 7789TIP3    H244859   4.375   3.128   6.652 -0.5598 -1.2189  0.3933
 7790TIP3   OH244860   5.769   1.032  16.053 -0.2972 -0.3938  0.5138
 7790TIP3    H144861   5.832   1.064  16.117 -0.8419 -0.7186  1.2255
 7790TIP3    H244862   5.687   1.025  16.102 -0.1838 -2.9906  0.4377
 7791TIP3   OH244863   4.515   3.156  15.259 -0.3525 -0.1071  0.1739
 7791TIP3    H144864   4.483   3.144  15.169 -1.7322 -0.6603  0.7361
 7791TIP3    H244865   4.463   3.228  15.293 -0.7954 -0.8105  0.9912
 7792TIP3   OH244866   0.502   1.736   2.513 -0.2473  0.1319 -0.4504
 7792TIP3    H144867   0.541   1.667   2.459  0.2978 -0.3169  0.4830
 7792TIP3    H244868   0.426   1.765   2.464  0.1191 -0.4095 -1.3554
 7793TIP3   OH244869   2.516   4.880  14.300 -0.0866  0.1373 -0.0982
 7793TIP3    H144870   2.443   4.938  14.321  0.0861  0.2343  0.2337
 7793TIP3    H244871   2.488   4.793  14.327 -0.4700  0.0090 -0.8833
 7794TIP3   OH244872   2.475   6.736   5.116 -0.0575  0.2132 -0.0250
 7794TIP3    H144873   2.470   6.785   5.199 -0.1713 -1.1059  0.7701
 7794TIP3    H244874   2.394   6.684   5.115  0.8531 -1.2358 -0.0151
 7795TIP3   OH244875   6.154   5.067   0.856  0.2845 -0.1656  0.2991
 7795TIP3    H144876   6.207   5.062   0.777  0.8477  1.2736  0.5647
 7795TIP3    H244877   6.214   5.045   0.927 -0.0962 -0.9774  0.3698
 7796TIP3   OH244878   3.095   1.702  15.449 -0.1137 -0.1082  0.1568
 7796TIP3    H144879   3.119   1.679  15.359  2.0563 -0.0626  0.7017
 7796TIP3    H244880   3.002   1.680  15.455 -0.4241  0.3529 -2.2452
 7797TIP3   OH244881   4.465   0.740   2.048 -0.2957 -0.0265  0.0539
 7797TIP3    H144882   4.477   0.645   2.050  0.5239  0.0798  0.8441
 7797TIP3    H244883   4.482   0.765   1.958 -0.8331 -0.6726 -0.2290
 7798TIP3   OH244884   1.622   4.381  17.272 -0.6350 -0.1933  0.3130
 7798TIP3    H144885   1.686   4.425  17.328 -0.6157  0.0966  0.0600
 7798TIP3    H244886   1.543   4.434  17.281 -0.5781 -0.0395 -0.0799
 7799TIP3   OH244887   5.174   5.822   5.179  0.2631 -0.0260  0.1986
 7799TIP3    H144888   5.248   5.787   5.228 -1.7375  0.0181  3.3826
 7799TIP3    H244889   5.120   5.745   5.159 -0.3101  0.3062  0.4643
 7800TIP3   OH244890   2.115   2.983   0.548  0.2719  0.4721  0.5120
 7800TIP3    H144891   2.124   2.949   0.458  2.9627  0.2084  0.8392
 7800TIP3    H244892   2.138   3.076   0.540 -0.1237  0.6006  0.8468
 7801TIP3   OH244893   5.687   5.872   4.371 -0.2780 -0.0735 -0.5589
 7801TIP3    H144894   5.727   5.948   4.413  0.9793 -1.2175  0.3475
 7801TIP3    H244895   5.724   5.871   4.283  0.7837 -0.4138 -0.1214
 7802TIP3   OH244896   1.468   2.367  16.686 -0.0210 -0.7533 -0.2162
 7802TIP3    H144897   1.492   2.300  16.750  0.4868 -0.1558  0.2221
 7802TIP3    H244898   1.546   2.422  16.678 -0.9608  0.7255  0.6215
 7803TIP3   OH244899   2.161   5.970   0.759  1.0572 -0.2157 -0.3327
 7803TIP3    H144900   2.237   6.002   0.710  1.1596 -0.2554 -0.1995
 7803TIP3    H244901   2.189   5.885   0.793  1.0753 -0.0745  0.0075
 7804TIP3   OH244902   4.407   5.483  12.040 -0.3092 -0.1505  0.4179
 7804TIP3    H144903   4.406   5.439  12.125  2.2529 -0.1458  0.4713
 7804TIP3    H244904   4.499   5.496  12.020 -0.9192  1.3123 -1.6323
 7805TIP3   OH244905   3.033   6.610   0.051  0.5951 -0.4404 -0.2984
 7805TIP3    H144906   3.066   6.521   0.049  2.5894  0.2003  1.8860
 7805TIP3    H244907   3.098   6.661   0.003  0.1598  0.0606 -0.3697
 7806TIP3   OH244908   1.039   2.861  12.469  0.0484 -0.2155 -0.2367
 7806TIP3    H144909   1.042   2.870  12.374 -1.5299 -0.5694 -0.3370
 7806TIP3    H244910   0.969   2.797  12.485  0.6987 -0.6098  1.1362
 7807TIP3   OH244911   4.102   3.589   1.367 -0.3407 -0.6116 -0.3176
 7807TIP3    H144912   4.064   3.578   1.454  0.9230  1.4689  0.5242
 7807TIP3    H244913   4.196   3.588   1.382 -0.1205  0.1554 -1.6130
 7808TIP3   OH244914   0.830   4.565  13.642 -0.8596  0.7444  0.6736
 7808TIP3    H144915   0.820   4.498  13.574  0.3239  1.7725 -0.5321
 7808TIP3    H244916   0.779   4.531  13.716 -1.6090 -0.7122 -0.4765
 7809TIP3   OH244917   0.079   4.217  14.405 -0.2654  0.2971 -0.7240
 7809TIP3    H144918   0.076   4.311  14.424  0.5652  0.3939 -1.0457
 7809TIP3    H244919   0.147   4.183  14.464 -1.0837 -0.2311 -0.0810
 7810TIP3   OH244920   3.603   5.952   3.440 -0.0507  0.2557  0.2883
 7810TIP3    H144921   3.573   5.965   3.530  0.5692 -1.1603  0.7125
 7810TIP3    H244922   3.544   5.887   3.403  0.7002 -0.3854  0.1988
 7811TIP3   OH244923   3.826   3.292  11.216 -0.3658  0.0328 -0.0880
 7811TIP3    H144924   3.734   3.272  11.200 -0.2932 -1.5854  1.4279
 7811TIP3    H244925   3.826   3.381  11.250 -1.3303  0.1875 -0.4871
 7812TIP3   OH244926   0.208   6.662  13.291 -0.1242  0.5472  0.3374
 7812TIP3    H144927   0.151   6.716  13.345 -1.8028 -0.6640 -0.1902
 7812TIP3    H244928   0.274   6.629  13.352 -1.4460 -0.0494  1.4790
 7813TIP3   OH244929   2.882   3.850  12.163  0.3032 -0.4415  0.3387
 7813TIP3    H144930   2.908   3.777  12.220 -0.5191 -0.2829  0.9360
 7813TIP3    H244931   2.882   3.813  12.075 -1.4372 -1.5517  0.7827
 7814TIP3   OH244932   3.555   6.545  10.204 -0.3144 -0.2226  0.3509
 7814TIP3    H144933   3.521   6.531  10.292 -1.1267 -2.7855 -0.3121
 7814TIP3    H244934   3.614   6.620  10.212 -1.3989  0.4183  2.7830
 7815TIP3   OH244935   4.475   6.167  15.731 -0.0083 -0.1403  0.4322
 7815TIP3    H144936   4.506   6.112  15.803 -2.3541  1.8055  3.0470
 7815TIP3    H244937   4.514   6.253  15.748 -1.1242  0.5071 -0.2444
 7816TIP3   OH244938   5.849   3.538   3.772  0.3680 -0.4495 -0.3858
 7816TIP3    H144939   5.761   3.575   3.774  0.0051 -1.3213  0.1688
 7816TIP3    H244940   5.881   3.549   3.861  1.0679  0.4315 -0.7403
 7817TIP3   OH244941   1.405   0.681  13.673  0.2261 -0.0301 -0.1746
 7817TIP3    H144942   1.313   0.656  13.688  0.1146  1.5732  1.9811
 7817TIP3    H244943   1.425   0.645  13.586 -2.7410  0.4049 -1.1069
 7818TIP3   OH244944   4.356   4.391  14.066  0.3389  0.2354 -0.1070
 7818TIP3    H144945   4.320   4.307  14.039  0.3355  0.1644  0.1212
 7818TIP3    H244946   4.305   4.416  14.142  0.7947  0.1101  0.2486
 7819TIP3   OH244947   3.019   3.175  16.922 -0.0185 -0.2656  0.5944
 7819TIP3    H144948   3.051   3.103  16.976 -0.4953 -0.0865  1.1174
 7819TIP3    H244949   2.983   3.133  16.844 -1.8190 -0.7178  1.6458
 7820TIP3   OH244950   1.650   5.123  13.837  0.3260  0.3334  0.1515
 7820TIP3    H144951   1.562   5.149  13.864 -0.2365 -3.0202  1.8240
 7820TIP3    H244952   1.638   5.041  13.790  2.7412 -1.8364  3.0862
 7821TIP3   OH244953   3.698   1.207   4.242  0.1773 -0.3400  0.3346
 7821TIP3    H144954   3.786   1.180   4.218  0.9000  0.5570  1.8994
 7821TIP3    H244955   3.651   1.125   4.257  1.0801 -0.7994  0.6863
 7822TIP3   OH244956   0.921   5.177  13.573  0.4007  0.0838  0.0327
 7822TIP3    H144957   0.995   5.199  13.516  0.4268 -1.7005 -0.6533
 7822TIP3    H244958   0.843   5.193  13.519  0.3809 -0.4519 -0.1002
 7823TIP3   OH244959   1.112   2.167  11.801  0.3487 -0.3334 -0.0401
 7823TIP3    H144960   1.092   2.107  11.873  1.0210 -1.4078 -0.7478
 7823TIP3    H244961   1.199   2.141  11.771  0.9064  1.3705  0.0213
 7824TIP3   OH244962   3.445   2.802   0.495 -0.1544  0.4227  1.0109
 7824TIP3    H144963   3.505   2.737   0.532  0.9126  1.6357  1.4772
 7824TIP3    H244964   3.485   2.826   0.411 -1.4570 -0.7650  0.0156
 7825TIP3   OH244965   0.318   0.691   3.476 -0.0574  0.0718 -0.2908
 7825TIP3    H144966   0.286   0.772   3.437  0.9785 -0.7706 -3.0201
 7825TIP3    H244967   0.375   0.720   3.547 -1.4984  1.6759  0.2441
 7826TIP3   OH244968   2.146   5.110  15.941  0.8688 -0.0647 -0.0787
 7826TIP3    H144969   2.193   5.043  15.991  1.4060 -0.3786 -0.9996
 7826TIP3    H244970   2.160   5.190  15.991  1.6332 -0.3198  0.1326
 7827TIP3   OH244971   0.170   6.652   1.033  0.2637  0.8330 -0.6389
 7827TIP3    H144972   0.218   6.590   0.977  1.3425  1.3907 -0.3425
 7827TIP3    H244973   0.093   6.675   0.982  0.6524  0.4505 -1.4159
 7828TIP3   OH244974   0.490   3.315   4.103  0.0584 -0.1702  0.6576
 7828TIP3    H144975   0.498   3.383   4.170  0.5198  1.0743 -0.6169
 7828TIP3    H244976   0.535   3.352   4.027  0.6719 -2.0893  0.0665
 7829TIP3   OH244977   0.703   0.641  17.033  0.4108 -0.1596  0.3062
 7829TIP3    H144978   0.652   0.639  16.952 -0.1210 -0.9563  0.6548
 7829TIP3    H244979   0.782   0.589  17.012  0.3683 -0.1966  0.2344
 7830TIP3   OH244980   2.681   2.209  16.434  0.1389 -0.4024  0.3198
 7830TIP3    H144981   2.721   2.296  16.429 -1.5110  0.3243 -0.5226
 7830TIP3    H244982   2.607   2.213  16.374  1.1303 -2.9993 -1.1417
 7831TIP3   OH244983   2.127   4.928  17.148  0.2781 -0.0519  0.1546
 7831TIP3    H144984   2.170   4.930  17.233 -0.3198 -0.3414  0.4618
 7831TIP3    H244985   2.192   4.966  17.088 -0.4061  2.8756  1.2068
 7832TIP3   OH244986   2.641   4.999  16.552  0.1015  0.5841 -0.5380
 7832TIP3    H144987   2.576   5.065  16.579 -0.0903  0.1167  0.1529
 7832TIP3    H244988   2.664   5.024  16.462 -2.4550 -0.3515 -1.5084
 7833TIP3   OH244989   1.240   1.506   2.073  0.6185 -0.8612  0.0664
 7833TIP3    H144990   1.281   1.548   2.149 -0.8136  1.0607 -0.2000
 7833TIP3    H244991   1.153   1.480   2.104  0.6159 -1.4876 -0.4667
 7834TIP3   OH244992   3.972   3.078  12.404 -0.4572  0.0815  0.1326
 7834TIP3    H144993   4.019   3.066  12.487 -0.0928 -0.6310 -0.1761
 7834TIP3    H244994   3.990   2.998  12.354 -1.8397 -0.1194 -0.0693
 7835TIP3   OH244995   0.070   5.730   2.489 -0.6164  0.1439  0.1803
 7835TIP3    H144996   0.016   5.748   2.565 -0.4410  0.6461  0.1874
 7835TIP3    H244997   0.069   5.811   2.438  0.2025  0.1895  0.2255
 7836TIP3   OH244998   5.898   5.593  14.884  0.2329  0.5345  0.2715
 7836TIP3    H144999   5.863   5.600  14.973 -0.9591 -0.2852 -0.1214
 7836TIP3    H245000   5.822   5.573  14.830  0.4789  3.7814 -1.3531
 7837TIP3   OH245001   0.390   2.285   1.603  0.0414 -0.5754  0.8226
 7837TIP3    H145002   0.376   2.240   1.686  3.2452 -0.1917  1.6414
 7837TIP3    H245003   0.473   2.331   1.614  0.4708 -0.3852 -2.5274
 7838TIP3   OH245004   1.476   2.915  11.745  0.3830 -0.2651  0.5436
 7838TIP3    H145005   1.418   2.953  11.679 -0.4763 -3.1722 -0.4542
 7838TIP3    H245006   1.538   2.985  11.765 -1.2911  1.7423 -0.9706
 7839TIP3   OH245007   3.719   2.236  14.037 -0.6994  0.6403  0.6779
 7839TIP3    H145008   3.669   2.163  14.002  0.8373  0.2445 -0.7548
 7839TIP3    H245009   3.712   2.304  13.971  0.4510  0.6648  0.5779
 7840TIP3   OH245010   6.601   4.955   4.404  0.5830 -0.6188 -0.1965
 7840TIP3    H145011   6.594   4.978   4.311  1.4044 -1.8246 -0.5831
 7840TIP3    H245012   6.511   4.945   4.434  0.3197 -0.4035 -0.9107
 7841TIP3   OH245013   4.751   5.729   2.561  0.4118  0.2362 -0.1168
 7841TIP3    H145014   4.783   5.683   2.638  0.6760  0.7594  0.0871
 7841TIP3    H245015   4.696   5.799   2.596  1.1867  0.9864 -0.3606
 7842TIP3   OH245016   5.914   1.350   2.117  0.3653  0.6781 -0.0926
 7842TIP3    H145017   5.836   1.312   2.157  1.7429 -1.2555  0.8418
 7842TIP3    H245018   5.905   1.332   2.023 -0.4111  0.6883 -0.0210
 7843TIP3   OH245019   1.330   3.192   2.925 -0.1229  0.1347  0.2496
 7843TIP3    H145020   1.363   3.260   2.867  0.7652  1.3815  2.1686
 7843TIP3    H245021   1.248   3.163   2.885  0.0217  1.5939 -1.1187
 7844TIP3   OH245022   6.273   3.463   5.603 -0.3606 -0.5007  0.3618
 7844TIP3    H145023   6.264   3.477   5.509 -1.1961 -1.6443  0.2643
 7844TIP3    H245024   6.367   3.458   5.618 -0.1572  1.1668 -0.1764
 7845TIP3   OH245025   0.713   6.185  14.223 -0.1254 -0.5156 -0.5507
 7845TIP3    H145026   0.690   6.276  14.237  0.9383 -0.0689 -1.5867
 7845TIP3    H245027   0.686   6.140  14.303 -1.8244  0.4746 -0.5357
 7846TIP3   OH245028   1.693   6.383  13.330 -0.2104  0.0174 -0.2371
 7846TIP3    H145029   1.642   6.322  13.384 -2.8237  1.8783 -0.4994
 7846TIP3    H245030   1.634   6.405  13.258  0.1462  3.8709  0.5572
 7847TIP3   OH245031   6.133   2.864  13.366 -0.0931 -0.2394  0.2158
 7847TIP3    H145032   6.137   2.910  13.450  0.2306  1.0947 -0.5188
 7847TIP3    H245033   6.206   2.900  13.316 -1.1458  0.0087 -1.1612
 7848TIP3   OH245034   0.271   4.140   1.137 -0.3246 -0.4437  0.0629
 7848TIP3    H145035   0.258   4.227   1.099 -0.8674  0.5449  2.4077
 7848TIP3    H245036   0.361   4.118   1.116  0.4662  1.5903  1.1412
 7849TIP3   OH245037   5.326   4.057  13.989  0.5746 -0.3805 -0.1232
 7849TIP3    H145038   5.276   4.003  14.050  0.7850 -0.9741 -0.4723
 7849TIP3    H245039   5.269   4.068  13.913  0.8895 -0.8832 -0.4358
 7850TIP3   OH245040   2.981   3.244   5.200  0.0928  0.2776 -0.1399
 7850TIP3    H145041   2.914   3.176   5.203 -0.6531  1.0276  0.4397
 7850TIP3    H245042   2.959   3.296   5.122  1.4847 -0.9503 -1.4048
 7851TIP3   OH245043   2.186   5.430   0.806 -0.2568 -0.2340 -0.4409
 7851TIP3    H145044   2.208   5.390   0.890  1.7956 -0.8497 -1.2283
 7851TIP3    H245045   2.242   5.385   0.743  0.1571  2.0187 -1.7511
 7852TIP3   OH245046   2.838   1.107  14.121  0.7091  0.4555 -0.2104
 7852TIP3    H145047   2.767   1.128  14.181  0.8958  1.0303 -0.1944
 7852TIP3    H245048   2.797   1.054  14.053  0.6979 -1.1215  0.9857
 7853TIP3   OH245049   4.596   6.432   0.693 -0.0476  0.0402  0.2398
 7853TIP3    H145050   4.573   6.455   0.783  0.1545  0.6732  0.1350
 7853TIP3    H245051   4.577   6.511   0.643 -0.5916 -0.4587 -0.3490
 7854TIP3   OH245052   2.971   4.554   5.732  0.5121 -0.1637  0.0541
 7854TIP3    H145053   2.886   4.579   5.696  1.4224 -0.0493 -2.0712
 7854TIP3    H245054   3.021   4.636   5.736  1.7418 -0.7678 -2.1172
 7855TIP3   OH245055   0.853   3.027   5.718 -0.0570  0.4421 -0.7419
 7855TIP3    H145056   0.819   3.018   5.629 -0.7633 -1.0148 -0.3396
 7855TIP3    H245057   0.939   3.066   5.707  0.2143 -0.5264 -2.1304
 7856TIP3   OH245058   5.012   3.093  13.574  0.7302  0.1511 -0.3733
 7856TIP3    H145059   5.007   3.182  13.608  0.2165  0.7454 -1.9834
 7856TIP3    H245060   5.019   3.103  13.479 -0.8338 -1.5528 -0.6991
 7857TIP3   OH245061   6.246   3.000   4.926  0.1745 -0.0150  0.0313
 7857TIP3    H145062   6.246   2.968   5.016  1.2848 -0.1276 -0.0071
 7857TIP3    H245063   6.212   3.090   4.933 -0.9572 -0.4589  0.3899
 7858TIP3   OH245064   5.735   3.958   4.616  0.3103  0.5397 -0.3137
 7858TIP3    H145065   5.704   3.901   4.687  1.6427 -0.9379 -0.9066
 7858TIP3    H245066   5.812   4.002   4.653 -0.4875  1.7130  0.0093
 7859TIP3   OH245067   4.512   2.812   4.195  0.2306  0.0511  0.6321
 7859TIP3    H145068   4.567   2.734   4.193  1.3552  0.8078  1.4943
 7859TIP3    H245069   4.502   2.837   4.103 -2.2505 -2.5313  0.1224
 7860TIP3   OH245070   1.087   6.433  11.452 -0.5252  0.7011  0.0906
 7860TIP3    H145071   1.076   6.372  11.525 -0.4433 -0.3425 -0.7449
 7860TIP3    H245072   1.171   6.407  11.412  0.3528  2.4749  0.7594
 7861TIP3   OH245073   2.524   0.231  14.457 -0.8560  0.2977 -0.4064
 7861TIP3    H145074   2.531   0.298  14.525  0.4683 -1.8683  1.6939
 7861TIP3    H245075   2.613   0.196  14.449 -1.5432 -1.3075 -1.2949
 7862TIP3   OH245076   6.135   3.625  17.148  0.0628 -0.4684 -0.2541
 7862TIP3    H145077   6.049   3.614  17.189 -0.0157  0.8774 -0.0610
 7862TIP3    H245078   6.180   3.542  17.166 -1.2855 -1.2873 -0.5943
 7863TIP3   OH245079   1.295   4.113   5.905  0.0796 -0.2629 -0.3033
 7863TIP3    H145080   1.275   4.097   5.997 -0.1720  0.3581 -0.2445
 7863TIP3    H245081   1.211   4.099   5.860  0.3168 -1.0513 -0.5023
 7864TIP3   OH245082   5.176   6.181  12.602  0.5294 -0.1563 -0.0995
 7864TIP3    H145083   5.215   6.202  12.517 -0.4757 -0.9750 -0.7802
 7864TIP3    H245084   5.237   6.217  12.666  2.3222 -1.2421 -1.1494
 7865TIP3   OH245085   1.481   2.182  15.377 -0.3712 -0.0714  0.4811
 7865TIP3    H145086   1.506   2.155  15.466  0.9727  0.8450  0.3968
 7865TIP3    H245087   1.429   2.108  15.344 -1.0201 -0.3577  2.0748
 7866TIP3   OH245088   3.432   5.428  12.960 -0.1614 -0.1625  0.3378
 7866TIP3    H145089   3.370   5.434  13.033  0.6656  0.2812  1.0184
 7866TIP3    H245090   3.377   5.431  12.881 -0.9366  1.0876  0.9076
 7867TIP3   OH245091   6.019   1.030  12.627  0.1624  0.2291 -0.3868
 7867TIP3    H145092   6.090   0.991  12.576 -0.7989 -0.3643 -1.2923
 7867TIP3    H245093   5.943   1.027  12.569 -0.9914 -0.5823  1.1244
 7868TIP3   OH245094   3.969   5.019   3.013 -0.6246 -0.4764 -0.0502
 7868TIP3    H145095   3.885   4.982   2.988 -0.1300 -0.5063 -1.8158
 7868TIP3    H245096   3.948   5.093   3.069 -1.7816 -0.9897  0.1964
 7869TIP3   OH245097   6.612   2.322  14.253  0.1804  0.1224 -0.0857
 7869TIP3    H145098   6.625   2.279  14.337  0.1291 -0.4762 -0.3848
 7869TIP3    H245099   6.699   2.358  14.231  0.3434 -0.2771 -0.0866
 7870TIP3   OH245100   3.471   0.915  13.266  0.8126  0.1092 -0.0614
 7870TIP3    H145101   3.444   0.959  13.346  0.6408  2.4613 -1.3445
 7870TIP3    H245102   3.443   0.825  13.276  0.5655  0.4469  2.4005
 7871TIP3   OH245103   4.291   1.192  12.962 -0.1980  0.3432 -0.4435
 7871TIP3    H145104   4.274   1.163  12.872 -1.8755  0.2361 -0.1106
 7871TIP3    H245105   4.323   1.282  12.952  1.8809 -0.4544 -1.2695
 7872TIP3   OH245106   5.669   4.583   2.639  0.1323 -0.2992 -0.0881
 7872TIP3    H145107   5.669   4.617   2.550 -1.3692  1.4856  0.5413
 7872TIP3    H245108   5.756   4.603   2.673 -0.2709  1.7900 -0.1955
 7873TIP3   OH245109   6.436   0.541  12.156  0.1897  0.4384  0.0064
 7873TIP3    H145110   6.519   0.496  12.173  0.1249  0.9684  1.8769
 7873TIP3    H245111   6.446   0.579  12.069  0.8194 -1.9027 -0.9693
 7874TIP3   OH245112   6.754   3.286   4.221  0.7510 -0.2910 -0.5614
 7874TIP3    H145113   6.772   3.369   4.264 -0.0417 -0.3952 -0.0397
 7874TIP3    H245114   6.800   3.293   4.137  0.8643  0.5831 -0.4326
 7875TIP3   OH245115   2.335   2.497  12.340 -0.2919 -0.7836  0.1270
 7875TIP3    H145116   2.298   2.440  12.408 -2.2093  1.8492  1.3751
 7875TIP3    H245117   2.421   2.523  12.374 -0.4653 -0.9563  0.6976
 7876TIP3   OH245118   5.893   3.277   2.641  0.0799 -0.1192 -0.2091
 7876TIP3    H145119   5.820   3.217   2.629  0.4166 -0.8765  1.3542
 7876TIP3    H245120   5.874   3.322   2.724 -0.3219  2.1603 -1.5150
 7877TIP3   OH245121   3.820   5.532   2.807 -0.2198 -0.6246  0.0585
 7877TIP3    H145122   3.787   5.553   2.720 -0.4187  0.3901  0.3803
 7877TIP3    H245123   3.775   5.451   2.831 -1.3113 -0.0881 -0.1518
 7878TIP3   OH245124   0.018   4.878  15.634 -0.1996  0.3210 -0.2318
 7878TIP3    H145125   0.068   4.939  15.689  0.6444 -0.5138 -0.0565
 7878TIP3    H245126   0.050   4.792  15.659 -1.3723 -0.2020 -0.4975
 7879TIP3   OH245127   0.505   5.800  11.232  0.3731  0.0950  0.1123
 7879TIP3    H145128   0.555   5.752  11.166 -1.5623 -1.2043 -0.4441
 7879TIP3    H245129   0.553   5.787  11.313  2.7904  1.6992 -1.0008
 7880TIP3   OH245130   4.582   3.760   0.281  0.2638 -0.7578 -0.3086
 7880TIP3    H145131   4.545   3.700   0.346  1.0122  0.7794  1.5614
 7880TIP3    H245132   4.577   3.846   0.322  0.4391  0.2902 -2.4289
 7881TIP3   OH245133   3.406   4.393  13.997  0.4370  0.3473 -0.6685
 7881TIP3    H145134   3.403   4.487  14.009  1.8348  0.3073  0.0474
 7881TIP3    H245135   3.479   4.363  14.052 -1.1997 -1.3788  0.6315
 7882TIP3   OH245136   4.836   5.092  10.234  0.3386  0.4376  0.0960
 7882TIP3    H145137   4.896   5.129  10.168  0.0339  0.9398  0.0969
 7882TIP3    H245138   4.794   5.018  10.189  0.3935  0.5589 -0.1554
 7883TIP3   OH245139   1.030   5.422  14.564  0.3145  0.6581  0.1534
 7883TIP3    H145140   1.076   5.503  14.540  0.9057 -0.3773 -2.3111
 7883TIP3    H245141   0.953   5.420  14.508  0.8130 -0.9547 -0.5011
 7884TIP3   OH245142   3.938   1.532  15.185 -0.1956  0.3955 -0.0817
 7884TIP3    H145143   3.927   1.531  15.090 -2.1273 -0.9241  0.1254
 7884TIP3    H245144   4.020   1.579  15.199 -0.3621  1.4212 -2.3503
 7885TIP3   OH245145   4.380   5.164  15.835 -0.8312 -0.3519  0.1317
 7885TIP3    H145146   4.348   5.143  15.748  0.8218 -1.9701 -0.1146
 7885TIP3    H245147   4.372   5.259  15.842  0.1987 -0.0763 -2.2419
 7886TIP3   OH245148   1.654   5.754  12.698  0.1377 -0.3726  0.2967
 7886TIP3    H145149   1.595   5.829  12.690 -0.2174 -0.8525 -2.1388
 7886TIP3    H245150   1.674   5.749  12.791 -2.4226  0.7528  0.9618
 7887TIP3   OH245151   0.195   6.521   0.519  0.0741 -0.3079 -0.3225
 7887TIP3    H145152   0.261   6.564   0.464 -0.0863  0.1917 -0.1292
 7887TIP3    H245153   0.245   6.463   0.576  0.5472  1.4048  1.0798
 7888TIP3   OH245154   3.083   3.440   1.478 -0.0697  0.2697  0.2923
 7888TIP3    H145155   3.132   3.520   1.456 -0.4097  0.2038 -0.7631
 7888TIP3    H245156   3.144   3.388   1.530  0.4656  0.8314  0.2335
 7889TIP3   OH245157   6.578   4.088  13.362 -0.3275  0.5316 -0.1639
 7889TIP3    H145158   6.560   4.013  13.305 -0.7739 -0.0486  0.7312
 7889TIP3    H245159   6.569   4.164  13.304 -1.9873  0.0222 -0.6145
 7890TIP3   OH245160   1.415   4.558   4.302 -0.2853  0.1722 -0.1997
 7890TIP3    H145161   1.505   4.538   4.326 -0.1792  0.1104 -0.6499
 7890TIP3    H245162   1.377   4.596   4.382  0.4952  1.3574 -0.3723
 7891TIP3   OH245163   4.007   0.079  17.065 -0.2828  0.2295  0.4711
 7891TIP3    H145164   3.952   0.152  17.037 -0.9442 -0.8918 -1.2809
 7891TIP3    H245165   3.944   0.009  17.086  0.4112 -0.6669 -0.3700
 7892TIP3   OH245166   4.006   2.139  13.900 -0.0082  0.2999  0.8160
 7892TIP3    H145167   3.966   2.125  13.986 -0.5438  0.9978  0.6839
 7892TIP3    H245168   4.064   2.214  13.912  2.6630 -1.8018  1.4591
 7893TIP3   OH245169   5.215   1.179   3.824  0.0251  0.5388  0.4361
 7893TIP3    H145170   5.257   1.265   3.824  1.7519 -0.2851  0.0899
 7893TIP3    H245171   5.166   1.176   3.742  0.2685  1.0398  0.2721
 7894TIP3   OH245172   1.391   2.921   3.502 -0.2516 -0.7619 -0.2052
 7894TIP3    H145173   1.459   2.975   3.464 -1.4172  0.0163 -1.2317
 7894TIP3    H245174   1.403   2.929   3.597 -1.0799  2.1665 -0.3215
 7895TIP3   OH245175   0.628   6.256  12.915  0.7475  0.2638  0.1566
 7895TIP3    H145176   0.662   6.173  12.946  2.2308  1.9306  3.2048
 7895TIP3    H245177   0.696   6.292  12.858  0.4021 -0.2715 -0.6003
 7896TIP3   OH245178   5.659   0.377   3.425  0.2126 -0.4326 -0.0938
 7896TIP3    H145179   5.702   0.417   3.349  0.0994 -2.1603 -1.1143
 7896TIP3    H245180   5.566   0.385   3.407  0.1431  1.0633  0.9058
 7897TIP3   OH245181   1.439   3.821  16.748 -0.1777  0.4163 -0.0429
 7897TIP3    H145182   1.483   3.763  16.810  1.2875  1.9692  0.4179
 7897TIP3    H245183   1.388   3.880  16.803 -1.3279 -0.1443 -0.4889
 7898TIP3   OH245184   0.792   1.117  15.848 -0.2842 -0.1899 -0.1410
 7898TIP3    H145185   0.778   1.182  15.917 -0.2059 -1.1412  0.7859
 7898TIP3    H245186   0.868   1.067  15.877 -0.1241 -0.4710 -1.0216
 7899TIP3   OH245187   2.526   5.943   2.303 -0.0362  0.4011  1.1375
 7899TIP3    H145188   2.534   5.924   2.397 -0.0472  1.8912  1.4576
 7899TIP3    H245189   2.439   5.912   2.280 -0.4397  0.9678  1.8700
 7900TIP3   OH245190   1.878   3.105   0.646  0.2521  0.7253  0.0486
 7900TIP3    H145191   1.841   3.026   0.686 -1.9985  0.1144 -3.0177
 7900TIP3    H245192   1.943   3.072   0.585  0.4312  1.3306 -0.0892
 7901TIP3   OH245193   6.548   0.993   3.601 -0.5540 -0.3093 -0.3097
 7901TIP3    H145194   6.492   1.039   3.664 -1.8775 -0.4713 -1.3454
 7901TIP3    H245195   6.562   0.907   3.642 -0.5011 -0.0304  0.2686
 7902TIP3   OH245196   1.063   1.322   4.487 -0.1718  0.0016 -0.0398
 7902TIP3    H145197   1.045   1.277   4.404  0.5758 -1.4749  0.5742
 7902TIP3    H245198   1.139   1.377   4.469  0.9727 -1.5098  0.0575
 7903TIP3   OH245199   6.435   0.126   6.604  0.5506  0.0440 -0.3632
 7903TIP3    H145200   6.514   0.129   6.549  1.1783 -1.1419  0.4522
 7903TIP3    H245201   6.368   0.169   6.551  1.3578 -0.2965 -1.7026
 7904TIP3   OH245202   4.763   6.112  11.737  0.1897 -0.0682  0.1659
 7904TIP3    H145203   4.838   6.155  11.696  0.3215 -0.2919  0.1753
 7904TIP3    H245204   4.747   6.163  11.817  0.0508  0.2521 -0.0613
 7905TIP3   OH245205   5.313   1.190  16.206  0.5743 -0.2404  0.0862
 7905TIP3    H145206   5.278   1.279  16.193 -0.0200 -0.5108 -0.1916
 7905TIP3    H245207   5.254   1.134  16.156  1.6094 -0.6713 -0.6903
 7906TIP3   OH245208   4.791   2.201   0.204  0.1583 -0.2775 -0.0922
 7906TIP3    H145209   4.758   2.289   0.189 -0.3998 -0.6435 -1.0502
 7906TIP3    H245210   4.726   2.144   0.163  0.8459 -1.0983 -0.0460
 7907TIP3   OH245211   1.030   4.052  13.984 -0.6135 -0.6630  0.0066
 7907TIP3    H145212   1.067   3.997  13.915  0.3113 -0.4649  0.3370
 7907TIP3    H245213   1.003   3.990  14.052  0.7381 -0.7105  0.5280
 7908TIP3   OH245214   5.549   0.565   6.603  0.3836  0.4353 -0.2023
 7908TIP3    H145215   5.533   0.478   6.566 -1.1966  1.4230 -1.9536
 7908TIP3    H245216   5.628   0.596   6.558 -0.0354  0.5785 -0.8505
 7909TIP3   OH245217   1.724   2.615   5.695 -0.3545  0.2380  0.0350
 7909TIP3    H145218   1.732   2.710   5.709  0.4317  0.4249 -1.6264
 7909TIP3    H245219   1.707   2.605   5.602 -3.9776 -1.1011  0.7426
 7910TIP3   OH245220   4.175   4.702   4.847 -0.7268  0.6832 -0.1616
 7910TIP3    H145221   4.259   4.656   4.844 -0.3442  1.4467 -1.1185
 7910TIP3    H245222   4.125   4.655   4.914  0.5543  0.3968  0.6017
 7911TIP3   OH245223   1.459   5.632  16.868  0.1420  0.3928 -0.3684
 7911TIP3    H145224   1.472   5.593  16.781  2.6940  2.6446 -1.0824
 7911TIP3    H245225   1.533   5.600  16.919 -1.3682 -0.9443  1.0429
 7912TIP3   OH245226   6.558   1.716   5.636 -0.2233 -0.5945  0.4491
 7912TIP3    H145227   6.473   1.749   5.664 -0.2370  1.0553 -1.4529
 7912TIP3    H245228   6.574   1.640   5.692 -3.1447 -1.2012  0.4985
 7913TIP3   OH245229   4.609   0.130   4.818 -0.3620 -0.4137  0.5291
 7913TIP3    H145230   4.693   0.118   4.773 -0.0083 -0.9303  1.3129
 7913TIP3    H245231   4.570   0.207   4.776 -0.2355 -1.1380 -0.9608
 7914TIP3   OH245232   4.596   4.404  14.352  0.1476 -0.0105 -0.5753
 7914TIP3    H145233   4.683   4.421  14.387  0.5108 -0.0265 -1.4620
 7914TIP3    H245234   4.610   4.340  14.282 -0.6838 -0.6828 -0.1295
 7915TIP3   OH245235   2.275   5.651   4.694 -0.1085  0.3162 -0.2855
 7915TIP3    H145236   2.294   5.660   4.600 -1.0331  0.0619 -0.4959
 7915TIP3    H245237   2.180   5.649   4.699 -0.1018  1.7004  0.7837
 7916TIP3   OH245238   4.436   2.457   4.510 -0.6271 -0.7161 -0.0677
 7916TIP3    H145239   4.376   2.488   4.442  1.4650  0.7259 -1.3142
 7916TIP3    H245240   4.451   2.365   4.488  1.5084  0.2130 -2.7414
 7917TIP3   OH245241   4.872   4.728  14.398 -0.5881  0.5458 -0.1501
 7917TIP3    H145242   4.946   4.781  14.427 -0.5137  0.3136  0.0921
 7917TIP3    H245243   4.811   4.790  14.359  0.3186  0.5664 -1.5285
 7918TIP3   OH245244   3.918   4.979  10.829 -0.2172  0.4113  0.0602
 7918TIP3    H145245   3.868   5.044  10.879  0.3444 -0.2102  1.4640
 7918TIP3    H245246   3.860   4.952  10.759  0.1169  3.6383 -1.5679
 7919TIP3   OH245247   1.635   1.595  13.613 -0.3371  0.2059 -0.2204
 7919TIP3    H145248   1.653   1.681  13.651  0.4793 -0.4731  0.9940
 7919TIP3    H245249   1.627   1.537  13.689  2.2068 -1.3509 -1.0578
 7920TIP3   OH245250   6.782   2.739  12.225  0.6577 -0.4067 -0.1720
 7920TIP3    H145251   6.718   2.796  12.182  0.3309 -1.2130 -0.7669
 7920TIP3    H245252   6.864   2.757  12.180  0.8157  0.4724  0.4502
 7921TIP3   OH245253   4.496   2.825  15.055 -0.3925  0.4000 -0.0006
 7921TIP3    H145254   4.422   2.774  15.023 -0.0407 -0.7246  0.9241
 7921TIP3    H245255   4.563   2.815  14.987 -0.7279  0.5567 -0.3516
 7922TIP3   OH245256   1.735   4.612  12.544 -0.1453 -0.0487 -0.6069
 7922TIP3    H145257   1.764   4.701  12.564 -1.0902 -0.2724  1.8744
 7922TIP3    H245258   1.648   4.623  12.505 -0.7369  0.0599  0.7316
 7923TIP3   OH245259   5.232   2.624  12.781 -0.4982  0.6221  0.2176
 7923TIP3    H145260   5.296   2.664  12.840 -0.7642  0.1864  0.7986
 7923TIP3    H245261   5.221   2.535  12.813 -1.4226  0.6987  0.1445
 7924TIP3   OH245262   2.766   1.850   3.262  0.2373 -0.2878  0.3723
 7924TIP3    H145263   2.682   1.840   3.217  0.1940 -0.9852  0.5949
 7924TIP3    H245264   2.794   1.939   3.243 -0.6088 -0.0202  0.3932
 7925TIP3   OH245265   5.622   2.155  16.722 -0.0834 -0.0220  0.7265
 7925TIP3    H145266   5.667   2.139  16.639 -0.2834  0.1254  0.5874
 7925TIP3    H245267   5.613   2.068  16.761 -1.7011 -0.3542 -0.3127
 7926TIP3   OH245268   1.243   5.016   3.127  0.0521  0.7204 -0.0868
 7926TIP3    H145269   1.223   4.981   3.214  1.2651  1.1195  0.3594
 7926TIP3    H245270   1.322   4.969   3.100  0.6135  1.7578 -0.2779
 7927TIP3   OH245271   2.186   2.160   4.134 -0.1741  0.0772  0.2478
 7927TIP3    H145272   2.247   2.137   4.205 -0.9958  0.3939  1.0592
 7927TIP3    H245273   2.164   2.252   4.151 -2.3724 -0.5881  1.0619
 7928TIP3   OH245274   3.777   4.432  12.562 -0.7333 -0.3806 -0.2672
 7928TIP3    H145275   3.860   4.386  12.561 -1.0688 -1.0609  1.1768
 7928TIP3    H245276   3.739   4.411  12.647 -0.5903  3.1032  0.7717
 7929TIP3   OH245277   2.026   2.855   1.832  0.1451  0.2806 -0.3889
 7929TIP3    H145278   2.035   2.935   1.884  0.5559  0.3938 -0.6344
 7929TIP3    H245279   1.940   2.863   1.791  0.3751  0.8084 -0.7718
 7930TIP3   OH245280   2.201   6.210  11.512 -0.4399  0.1468  0.3888
 7930TIP3    H145281   2.197   6.306  11.513  1.4794  0.2934 -1.8134
 7930TIP3    H245282   2.270   6.188  11.574  0.0532  0.2683 -0.1145
 7931TIP3   OH245283   4.152   4.868   4.462 -0.1123 -0.1017 -0.0038
 7931TIP3    H145284   4.247   4.867   4.451  0.0170 -1.0337  1.1411
 7931TIP3    H245285   4.135   4.950   4.509  0.1308 -0.0031 -0.0822
 7932TIP3   OH245286   4.255   3.858   3.523 -0.0978 -0.1638  0.1269
 7932TIP3    H145287   4.293   3.789   3.468  0.0518 -0.2725  0.3641
 7932TIP3    H245288   4.270   3.939   3.475 -1.4338 -0.4311 -0.7804
 7933TIP3   OH245289   0.413   3.509  16.321 -0.5554  0.3024  0.0308
 7933TIP3    H145290   0.414   3.587  16.377 -1.4104  0.7421 -0.5450
 7933TIP3    H245291   0.482   3.524  16.257  0.3083 -0.1228  0.8483
 7934TIP3   OH245292   0.874   6.305  16.643 -0.0445 -0.6888 -0.0642
 7934TIP3    H145293   0.896   6.356  16.565  0.6782 -0.4773  0.2725
 7934TIP3    H245294   0.784   6.276  16.628  0.4716 -1.6299 -1.5094
 7935TIP3   OH245295   6.372   5.956  16.359 -0.1896  0.3288  0.7878
 7935TIP3    H145296   6.389   5.863  16.347  0.8505  0.2476  2.6332
 7935TIP3    H245297   6.324   5.982  16.280  1.3389 -1.2870 -0.7344
 7936TIP3   OH245298   1.532   4.507   5.753 -0.4051  0.5017 -0.6053
 7936TIP3    H145299   1.574   4.421   5.755 -1.1355  0.1669  2.1850
 7936TIP3    H245300   1.439   4.488   5.740 -0.3107  1.0213 -2.2344
 7937TIP3   OH245301   2.839   4.425   5.134 -0.4138  0.3138 -0.2071
 7937TIP3    H145302   2.923   4.461   5.164 -0.4528  0.9988 -0.9225
 7937TIP3    H245303   2.790   4.411   5.215  1.3773 -2.6428  0.4542
 7938TIP3   OH245304   3.395   6.662   6.111 -0.5141  0.1319  0.5927
 7938TIP3    H145305   3.367   6.752   6.093  0.0363  0.3124  0.6244
 7938TIP3    H245306   3.474   6.672   6.166  0.7802 -0.3371 -1.1404
 7939TIP3   OH245307   1.399   5.035   5.797 -0.4768  0.2241  0.0398
 7939TIP3    H145308   1.465   5.069   5.859  0.1301 -0.4329 -0.2337
 7939TIP3    H245309   1.442   5.041   5.712 -0.5172 -0.8263 -0.0609
 7940TIP3   OH245310   5.902   6.192  13.729  0.0734  0.0784  0.1346
 7940TIP3    H145311   5.856   6.248  13.665 -0.1199 -0.3419 -0.0989
 7940TIP3    H245312   5.876   6.227  13.814  0.7241  0.9586 -0.0136
 7941TIP3   OH245313   5.358   0.948   1.087  0.3640  0.2720  0.1579
 7941TIP3    H145314   5.330   0.934   0.997 -0.3808 -1.7077  0.6762
 7941TIP3    H245315   5.440   0.996   1.080  1.5586 -1.9760 -1.6413
 7942TIP3   OH245316   6.266   3.871   2.345  0.2040  0.3006  0.1875
 7942TIP3    H145317   6.247   3.779   2.365 -0.6486  0.0345 -1.7670
 7942TIP3    H245318   6.361   3.872   2.331  0.3599 -0.0841  1.1184
 7943TIP3   OH245319   1.610   3.140   4.836  0.6084  0.2202 -1.0768
 7943TIP3    H145320   1.695   3.178   4.859  0.4528  0.6839 -1.2667
 7943TIP3    H245321   1.581   3.191   4.760 -0.7501  1.3608  0.1919
 7944TIP3   OH245322   3.510   0.814  15.161 -0.0744  0.3985 -0.2333
 7944TIP3    H145323   3.585   0.788  15.215  0.5757 -0.4075 -1.4868
 7944TIP3    H245324   3.442   0.839  15.223  0.8805  0.0994  0.9352
 7945TIP3   OH245325   4.285   3.671   5.898 -0.3208  0.5288  0.1254
 7945TIP3    H145326   4.350   3.603   5.917  0.2269  1.4581  1.6266
 7945TIP3    H245327   4.226   3.670   5.973  0.3213  2.4478  0.6700
 7946TIP3   OH245328   2.151   3.111   4.250  0.3052  0.0631 -0.1148
 7946TIP3    H145329   2.196   3.172   4.193  0.7309 -0.8178 -0.7360
 7946TIP3    H245330   2.098   3.057   4.190  0.1438 -0.3487  0.3950
 7947TIP3   OH245331   6.682   3.413  14.936 -0.1241  0.2346  0.3711
 7947TIP3    H145332   6.660   3.340  14.878 -1.7774 -0.2074  1.5421
 7947TIP3    H245333   6.721   3.479  14.878 -0.4984 -0.7493 -1.0145
 7948TIP3   OH245334   2.784   0.102  15.696 -0.6627 -0.1431 -0.2851
 7948TIP3    H145335   2.824   0.069  15.777 -1.1994  0.8161  0.3820
 7948TIP3    H245336   2.793   0.197  15.702 -1.0782 -0.0462 -1.1630
 7949TIP3   OH245337   0.395   5.600   2.836 -0.0336  0.0807 -0.1299
 7949TIP3    H145338   0.370   5.522   2.786  0.6986  1.0250 -2.0252
 7949TIP3    H245339   0.463   5.570   2.895  1.2163 -0.4452 -1.8170
 7950TIP3   OH245340   5.805   2.101  13.626 -0.3205  0.1454 -0.2951
 7950TIP3    H145341   5.848   2.134  13.705  1.7222  0.8886 -1.6883
 7950TIP3    H245342   5.825   2.165  13.558 -0.7693 -1.2524 -1.7860
 7951TIP3   OH245343   5.314   5.746  15.984 -0.3375 -0.0432 -0.0353
 7951TIP3    H145344   5.356   5.790  16.058  0.0817  1.3973 -1.0901
 7951TIP3    H245345   5.360   5.663  15.975 -0.5027 -0.2963  1.4127
 7952TIP3   OH245346   2.574   1.360  15.064 -0.3496  0.0502 -0.0065
 7952TIP3    H145347   2.504   1.314  15.110 -0.2633 -0.0587  0.0158
 7952TIP3    H245348   2.650   1.303  15.072 -0.0846  0.4756  0.5315
 7953TIP3   OH245349   6.732   1.531  12.959 -0.4057  0.6324  0.5455
 7953TIP3    H145350   6.713   1.621  12.987 -1.7361  0.2760  0.8241
 7953TIP3    H245351   6.722   1.533  12.864  0.5724  1.0079  0.4428
 7954TIP3   OH245352   3.856   5.043   5.170  1.1139 -0.1684 -0.2543
 7954TIP3    H145353   3.820   5.029   5.083 -1.0272  0.0699  0.5518
 7954TIP3    H245354   3.844   4.959   5.215  2.1084 -0.2595 -0.1494
 7955TIP3   OH245355   0.455   4.381  14.071  0.0444 -0.1998 -0.0789
 7955TIP3    H145356   0.377   4.324  14.069 -0.5269  0.5590  0.4211
 7955TIP3    H245357   0.510   4.344  14.140 -0.6179  0.2257  0.6848
 7956TIP3   OH245358   5.183   0.037   5.336  0.2365  0.0593 -0.1318
 7956TIP3    H145359   5.241   0.109   5.363  0.3588  0.3002 -1.0266
 7956TIP3    H245360   5.239  -0.022   5.286  0.1057 -0.6026  0.4916
 7957TIP3   OH245361   1.304   4.319  17.272 -0.2789 -0.2757 -0.2847
 7957TIP3    H145362   1.324   4.279  17.187 -1.7865 -0.3240 -0.6295
 7957TIP3    H245363   1.368   4.281  17.332  1.4132  0.4439 -1.5611
 7958TIP3   OH245364   0.473   4.862  11.802 -0.3012 -0.0499 -0.6370
 7958TIP3    H145365   0.544   4.864  11.738 -0.4780  1.9654 -0.8255
 7958TIP3    H245366   0.480   4.947  11.847 -3.0990  0.5490 -1.2320
 7959TIP3   OH245367   3.801   4.253  15.226 -0.0315 -0.3903 -0.3053
 7959TIP3    H145368   3.836   4.165  15.244 -0.1141 -0.2909  0.3435
 7959TIP3    H245369   3.743   4.271  15.300  2.2019  1.4058  1.0385
 7960TIP3   OH245370   1.466   0.204   6.134  0.7895 -0.5265  0.3183
 7960TIP3    H145371   1.543   0.189   6.189  1.2313  1.7463  0.3823
 7960TIP3    H245372   1.497   0.265   6.067 -0.8843  0.1390  0.1463
 7961TIP3   OH245373   4.761   1.191   5.392  0.2209 -0.0121  0.2174
 7961TIP3    H145374   4.763   1.285   5.372 -0.3347 -0.1043 -0.2824
 7961TIP3    H245375   4.836   1.178   5.449 -0.9451  1.1347  2.0579
 7962TIP3   OH245376   3.031   4.339   5.408  0.4375  0.1158 -0.2218
 7962TIP3    H145377   3.101   4.312   5.349  0.5495  1.0283 -0.5166
 7962TIP3    H245378   3.054   4.428   5.434 -0.9065  0.6668 -0.8181
 7963TIP3   OH245379   3.284   3.955  13.477 -0.1468 -0.3661 -0.4612
 7963TIP3    H145380   3.234   3.915  13.406 -1.5528 -1.0528  0.8839
 7963TIP3    H245381   3.281   3.890  13.548  2.7215 -0.4594 -0.3426
 7964TIP3   OH245382   5.422   5.799   4.211 -0.1482  0.6534 -0.1659
 7964TIP3    H145383   5.421   5.841   4.297 -1.5683  0.9928 -0.3432
 7964TIP3    H245384   5.433   5.871   4.149  2.0170  0.3017 -0.2192
 7965TIP3   OH245385   4.965   1.602  14.378 -0.4574 -0.0378  0.0261
 7965TIP3    H145386   4.900   1.588  14.446 -0.7078  0.6234 -0.0705
 7965TIP3    H245387   4.914   1.630  14.302 -0.1860 -0.8214 -0.4483
 7966TIP3   OH245388   2.370   4.980   4.768 -0.0385  0.3166 -0.4439
 7966TIP3    H145389   2.319   4.995   4.848 -0.9061  0.5072 -1.0184
 7966TIP3    H245390   2.391   5.068   4.736 -0.1150  0.2503 -0.6816
 7967TIP3   OH245391   5.248   1.848   5.305 -0.7449  0.5170  0.2660
 7967TIP3    H145392   5.294   1.922   5.266 -0.0833 -0.0302  0.0222
 7967TIP3    H245393   5.192   1.814   5.235 -1.7243  1.3349  0.6325
 7968TIP3   OH245394   6.109   3.686  12.572 -0.1087 -0.1515 -0.0487
 7968TIP3    H145395   6.067   3.753  12.626  1.5144  1.4047 -0.6459
 7968TIP3    H245396   6.042   3.619  12.560 -1.6163  1.1302  0.9874
 7969TIP3   OH245397   0.936   0.342  15.657  0.1170  0.0158  0.0298
 7969TIP3    H145398   0.845   0.319  15.673 -0.2193  0.5314 -1.0737
 7969TIP3    H245399   0.958   0.405  15.727 -0.4364  0.0592  0.1632
 7970TIP3   OH245400   0.361   5.763   1.871  0.1152 -0.1238  0.2057
 7970TIP3    H145401   0.372   5.810   1.953  0.8852 -2.3759  1.4211
 7970TIP3    H245402   0.307   5.687   1.892 -1.4106  0.3555 -1.7939
 7971TIP3   OH245403   3.253   4.887   6.525 -0.3144  0.4510  0.7919
 7971TIP3    H145404   3.217   4.799   6.518  1.8647 -0.5337  1.5550
 7971TIP3    H245405   3.259   4.918   6.434  0.0196 -0.6472  0.4375
 7972TIP3   OH245406   0.892   1.030  15.202  0.2353 -0.1670  0.5039
 7972TIP3    H145407   0.866   1.049  15.292 -0.7811 -0.3337  0.2548
 7972TIP3    H245408   0.921   0.939  15.204  0.3327 -0.1314  0.6855
 7973TIP3   OH245409   4.480   0.766   4.610  0.0564 -0.0828  0.4159
 7973TIP3    H145410   4.522   0.701   4.665 -1.7767 -0.4213  1.4708
 7973TIP3    H245411   4.511   0.748   4.522  4.0733  1.2740  1.4451
 7974TIP3   OH245412   3.549   5.821  15.302 -0.2130  0.3540  0.1452
 7974TIP3    H145413   3.524   5.830  15.394 -0.4699  0.9769  0.0107
 7974TIP3    H245414   3.641   5.793  15.306 -0.5113 -0.5886  0.6045
 7975TIP3   OH245415   1.955   6.244   0.485 -0.2581 -0.4329  0.0122
 7975TIP3    H145416   2.030   6.212   0.536  0.7461  2.9176  0.7986
 7975TIP3    H245417   1.987   6.246   0.395  0.4514  0.4793  0.2725
 7976TIP3   OH245418   2.287   1.560  14.178 -0.0986 -0.0960 -0.5167
 7976TIP3    H145419   2.374   1.546  14.215  0.0916 -1.2188 -1.3648
 7976TIP3    H245420   2.245   1.621  14.238  1.0556 -0.0279  0.2373
 7977TIP3   OH245421   6.653   5.001  11.803  0.2621  0.2771 -0.1499
 7977TIP3    H145422   6.577   4.947  11.781 -1.0238  1.8691  0.3036
 7977TIP3    H245423   6.726   4.939  11.806 -0.5564 -0.8820 -2.9935
 7978TIP3   OH245424   5.506   1.854   5.853  0.2070  0.2121 -0.4122
 7978TIP3    H145425   5.562   1.914   5.903 -0.2331  0.2371  0.0613
 7978TIP3    H245426   5.441   1.824   5.917  0.9836 -1.4972 -0.3895
 7979TIP3   OH245427   3.284   1.463   4.023  0.5632 -0.3070  0.0250
 7979TIP3    H145428   3.212   1.420   4.069  1.2490 -0.6766  0.7685
 7979TIP3    H245429   3.362   1.417   4.053  1.1047  0.0344 -0.8428
 7980TIP3   OH245430   4.540   2.068   3.494  0.2727 -0.0343  0.0127
 7980TIP3    H145431   4.472   2.059   3.560  0.5686  1.2987  0.5202
 7980TIP3    H245432   4.607   2.004   3.520 -0.6445 -1.1401 -0.3282
 7981TIP3   OH245433   2.298   4.029   5.676 -0.1279 -0.6703 -0.2007
 7981TIP3    H145434   2.373   3.987   5.635 -0.2579  1.0107 -2.2418
 7981TIP3    H245435   2.327   4.050   5.765  1.4924 -0.8726 -0.6736
 7982TIP3   OH245436   4.842   0.078   5.232  0.3596 -0.4036 -0.5455
 7982TIP3    H145437   4.915   0.015   5.231  0.2139 -0.5995  0.5937
 7982TIP3    H245438   4.854   0.129   5.152  1.8432 -0.3466 -0.3131
 7983TIP3   OH245439   1.955   3.169  16.408 -0.0823  0.4046 -0.3632
 7983TIP3    H145440   1.989   3.241  16.355 -1.7393  1.7080  0.2984
 7983TIP3    H245441   1.862   3.165  16.385  0.2106 -2.2518 -1.1894
 7984TIP3   OH245442   2.917   3.863   0.042 -0.6168  0.4314  0.1094
 7984TIP3    H145443   2.943   3.772   0.035 -0.8573  0.4247 -0.7491
 7984TIP3    H245444   2.857   3.865   0.117  0.3202  0.1089  0.8816
 7985TIP3   OH245445   3.325   0.411  14.149 -0.2289 -0.1793  0.1838
 7985TIP3    H145446   3.303   0.465  14.073 -0.8831 -1.1352 -0.3108
 7985TIP3    H245447   3.350   0.327  14.112  1.5383  0.0020  0.9135
 7986TIP3   OH245448   0.955   2.320  15.239 -0.0676 -0.5455 -0.1654
 7986TIP3    H145449   1.020   2.259  15.204 -0.9387 -1.2780 -0.5018
 7986TIP3    H245450   0.917   2.275  15.314  2.0746  1.1733  2.0499
 7987TIP3   OH245451   3.982   6.327   5.002 -0.2243 -0.1457  0.0873
 7987TIP3    H145452   3.929   6.407   4.999 -0.7276 -0.3756  2.0062
 7987TIP3    H245453   4.069   6.358   5.027  0.1204  0.0393 -1.3318
 7988TIP3   OH245454   0.296   1.418   5.642  0.1593  1.3799 -0.0695
 7988TIP3    H145455   0.254   1.430   5.727  0.6023  1.3899  0.1489
 7988TIP3    H245456   0.260   1.335   5.609  0.8131  0.8065  0.6254
 7989TIP3   OH245457   2.374   1.207   4.686 -0.2682 -0.0910 -0.3851
 7989TIP3    H145458   2.459   1.166   4.704  0.1298 -0.1188 -2.1687
 7989TIP3    H245459   2.366   1.276   4.752  0.8704 -0.4827  0.1750
 7990TIP3   OH245460   6.546   6.772   0.516 -0.1096 -0.5249 -0.2013
 7990TIP3    H145461   6.624   6.727   0.485 -0.0099 -0.7646  0.3887
 7990TIP3    H245462   6.538   6.849   0.459 -0.4904 -1.4789 -1.4740
 7991TIP3   OH245463   4.624   5.150   5.916  0.1589 -0.6189 -0.2254
 7991TIP3    H145464   4.672   5.077   5.878  0.1013 -0.4226 -0.6790
 7991TIP3    H245465   4.585   5.195   5.841  0.9749  0.4338 -0.0369
 7992TIP3   OH245466   3.178   6.312  11.071  0.2665  0.1524 -0.1895
 7992TIP3    H145467   3.228   6.262  11.136 -1.0277  0.1291  0.8308
 7992TIP3    H245468   3.241   6.370  11.030  1.5482 -1.4239 -0.4861
 7993TIP3   OH245469   6.114   5.724  16.132 -0.0340  0.6202  0.7527
 7993TIP3    H145470   6.118   5.643  16.080 -0.1281  0.7983  0.4705
 7993TIP3    H245471   6.104   5.693  16.222 -1.3519  0.3240  0.5282
 7994TIP3   OH245472   2.907   5.947   3.428 -0.8805  0.7679 -0.4159
 7994TIP3    H145473   2.934   6.021   3.482 -0.5274  0.5618 -0.3061
 7994TIP3    H245474   2.815   5.934   3.450 -0.3255 -0.3390  1.3514
 7995TIP3   OH245475   4.044   5.755   5.032  0.4807 -0.0756  1.5073
 7995TIP3    H145476   4.102   5.738   4.958 -0.8093 -0.2751  0.5102
 7995TIP3    H245477   4.027   5.849   5.028  2.0064  0.2650  2.7715
 7996TIP3   OH245478   1.814   1.051  10.857  0.0127 -0.0668  0.9093
 7996TIP3    H145479   1.903   1.026  10.832  0.6261  0.1600  2.7687
 7996TIP3    H245480   1.758   0.987  10.813  1.0300  0.2021 -0.8273
 7997TIP3   OH245481   4.115   3.608  16.556  0.2735 -0.1965 -0.0173
 7997TIP3    H145482   4.130   3.702  16.562 -1.4444 -0.0606  2.6954
 7997TIP3    H245483   4.148   3.573  16.638 -0.2952 -1.8010 -0.4500
 7998TIP3   OH245484   0.987   1.442   4.912 -0.3054 -0.0908 -0.1003
 7998TIP3    H145485   1.043   1.398   4.976 -0.7756  0.7520  0.9207
 7998TIP3    H245486   0.907   1.389   4.909  1.3014 -2.4924 -3.1301
 7999TIP3   OH245487   6.460   4.658   5.906  0.4249 -0.3935 -0.1728
 7999TIP3    H145488   6.469   4.577   5.956  0.7512  0.1152  0.6215
 7999TIP3    H245489   6.371   4.688   5.924  0.1697 -0.7869 -0.7915
 8000TIP3   OH245490   1.524   1.012   4.014 -0.3887  0.2545 -0.3025
 8000TIP3    H145491   1.558   0.965   4.090 -2.8317  0.0739  0.7299
 8000TIP3    H245492   1.581   0.986   3.942 -0.4664 -2.7022  0.6533
 8001TIP3   OH245493   2.274   6.143  13.929  0.4138  0.0198 -0.1442
 8001TIP3    H145494   2.191   6.171  13.968  1.1304  1.4800  0.3283
 8001TIP3    H245495   2.250   6.117  13.840 -0.7507 -0.7344  0.3618
 8002TIP3   OH245496   2.215   3.908  14.767  0.2660 -0.2688 -0.5265
 8002TIP3    H145497   2.235   3.923  14.859  0.3081 -2.9929 -0.0351
 8002TIP3    H245498   2.163   3.984  14.741  1.0855  1.0104  1.4648
 8003TIP3   OH245499   5.392   3.180   5.618  0.0882 -0.6878  0.1684
 8003TIP3    H145500   5.354   3.170   5.531 -0.1243 -0.7154  0.2647
 8003TIP3    H245501   5.475   3.224   5.602  0.1653 -0.9180 -0.0723
 8004TIP3   OH245502   1.137   2.313  16.705  0.4528  0.2395 -0.7274
 8004TIP3    H145503   1.169   2.403  16.699 -0.4855  0.6480  0.1246
 8004TIP3    H245504   1.189   2.274  16.775  0.2495  0.3913 -0.4901
 8005TIP3   OH245505   1.604   0.384  14.676 -0.1005 -0.3333  0.8102
 8005TIP3    H145506   1.541   0.319  14.706 -1.0943 -0.1091 -0.7501
 8005TIP3    H245507   1.564   0.422  14.597  2.3253 -0.7777 -0.6930
 8006TIP3   OH245508   5.388   1.871  12.794 -0.1427  0.1630 -0.0725
 8006TIP3    H145509   5.404   1.784  12.831  0.3859  0.2723 -0.0456
 8006TIP3    H245510   5.474   1.901  12.765 -0.1214  1.1679  0.9875
 8007TIP3   OH245511   5.715   2.611  16.652 -0.0137 -0.1136  0.0572
 8007TIP3    H145512   5.663   2.531  16.650  1.5727 -1.1601 -1.1335
 8007TIP3    H245513   5.675   2.668  16.586  0.8739 -1.2695 -1.5103
 8008TIP3   OH245514   4.324   5.463   3.881  0.5096 -0.8847 -0.1191
 8008TIP3    H145515   4.281   5.534   3.929  1.4274 -0.8091  0.6034
 8008TIP3    H245516   4.337   5.498   3.792 -0.5694 -0.7734 -0.2321
 8009TIP3   OH245517   3.075   1.779  11.896  0.4255  0.2487 -0.1950
 8009TIP3    H145518   3.120   1.696  11.880 -0.8874 -0.8630  1.7027
 8009TIP3    H245519   3.032   1.799  11.813  0.6950 -1.0163 -0.6537
 8010TIP3   OH245520   0.771   6.719   2.712 -0.0406  0.5685 -0.2739
 8010TIP3    H145521   0.811   6.786   2.658 -0.1205 -0.1751 -1.2730
 8010TIP3    H245522   0.677   6.735   2.704 -0.0931 -0.1582 -1.1745
 8011TIP3   OH245523   0.869   0.003   0.590  0.0163  0.2770  0.1715
 8011TIP3    H145524   0.841  -0.015   0.680 -2.2342 -0.7311 -0.6890
 8011TIP3    H245525   0.880   0.098   0.587 -0.8818  0.4274  1.2408
 8012TIP3   OH245526   2.431   3.106   1.413 -0.4313  0.5666 -0.1684
 8012TIP3    H145527   2.428   3.013   1.394  2.9272  0.6957 -1.7683
 8012TIP3    H245528   2.377   3.146   1.345 -1.0645 -0.1283 -0.0785
 8013TIP3   OH245529   2.461   6.723  11.271  0.0606 -0.1906  0.0763
 8013TIP3    H145530   2.382   6.709  11.218  0.9648 -0.0636 -1.3206
 8013TIP3    H245531   2.431   6.712  11.361 -1.2894 -1.4955 -0.5012
 8014TIP3   OH245532   3.920   4.528   4.201 -0.1164  0.2122 -0.0098
 8014TIP3    H145533   3.923   4.624   4.193  0.5460  0.1773 -0.2076
 8014TIP3    H245534   3.840   4.511   4.252  0.7778  0.9762  1.6730
 8015TIP3   OH245535   4.891   3.811  14.610 -0.6273 -0.1121 -0.1825
 8015TIP3    H145536   4.953   3.792  14.681 -0.4497 -1.2584 -0.6327
 8015TIP3    H245537   4.842   3.729  14.599 -1.2302  0.3353 -0.8127
 8016TIP3   OH245538   2.665   6.699   1.319 -0.2201 -0.0244  0.1879
 8016TIP3    H145539   2.605   6.752   1.267  0.2458  0.5243  0.2081
 8016TIP3    H245540   2.735   6.674   1.259  0.5620  1.0042  0.6667
 8017TIP3   OH245541   1.729   3.055   1.023  0.5051  0.1939 -0.0341
 8017TIP3    H145542   1.753   3.138   0.982 -0.3340  0.5323  0.1352
 8017TIP3    H245543   1.745   3.070   1.116 -0.1136  0.3390  0.0514
 8018TIP3   OH245544   6.438   5.555  17.178  0.4831  0.1153  0.4564
 8018TIP3    H145545   6.428   5.647  17.201  0.3177  0.7545 -1.9483
 8018TIP3    H245546   6.352   5.517  17.195  0.6278  0.3346  1.7104
 8019TIP3   OH245547   4.927   3.311  12.513  0.2381  0.2776 -0.2006
 8019TIP3    H145548   4.834   3.318  12.494 -0.2637 -0.0897  1.9764
 8019TIP3    H245549   4.947   3.218  12.502  0.0552  0.1484  0.4953
 8020TIP3   OH245550   2.151   0.925   2.304 -0.2587 -0.6983  0.3816
 8020TIP3    H145551   2.177   0.879   2.384  1.7877 -0.8734 -0.3356
 8020TIP3    H245552   2.120   1.010   2.335  0.8060 -0.6447  1.3487
 8021TIP3   OH245553   0.584   5.138  15.032 -0.1669 -0.4144 -0.2155
 8021TIP3    H145554   0.515   5.118  14.968 -0.1715 -3.5746  0.7294
 8021TIP3    H245555   0.536   5.165  15.111 -0.2372  0.1794 -0.4578
 8022TIP3   OH245556   0.149   2.073   2.145  0.2068 -0.0226 -0.0635
 8022TIP3    H145557   0.165   2.153   2.095 -1.8004 -0.9073 -2.2218
 8022TIP3    H245558   0.055   2.074   2.163  0.5441 -0.8023  1.8462
 8023TIP3   OH245559   1.143   2.196  12.635 -0.2150  0.5988 -0.7640
 8023TIP3    H145560   1.051   2.193  12.608 -1.1444  0.9980  2.1243
 8023TIP3    H245561   1.173   2.105  12.628 -0.8815  0.4335 -1.5620
 8024TIP3   OH245562   1.626   0.140  13.210  0.0255  0.7612  0.0392
 8024TIP3    H145563   1.653   0.051  13.231 -0.8687  0.8366  1.5767
 8024TIP3    H245564   1.549   0.129  13.154 -1.1106  0.5408  1.6015
 8025TIP3   OH245565   3.436   0.773   6.297  0.2541 -0.1568 -0.4646
 8025TIP3    H145566   3.502   0.819   6.245  1.0023 -1.8117 -1.0203
 8025TIP3    H245567   3.436   0.818   6.381  0.8169  0.9894 -1.0689
 8026TIP3   OH245568   0.596   5.200  15.703  0.2582  0.0700  0.4570
 8026TIP3    H145569   0.631   5.224  15.789  0.7230  0.2377  0.2240
 8026TIP3    H245570   0.502   5.216  15.710  0.1577 -0.8188  1.2378
 8027TIP3   OH245571   0.719   4.847   4.094 -0.3420 -0.4329 -0.1799
 8027TIP3    H145572   0.637   4.798   4.106 -0.2069 -1.1248 -1.9193
 8027TIP3    H245573   0.775   4.787   4.045  0.1393  1.1414 -1.5912
 8028TIP3   OH245574   4.318   5.957   3.477 -0.1620 -0.2001 -0.1307
 8028TIP3    H145575   4.266   5.891   3.430 -0.1378  0.7790 -1.5837
 8028TIP3    H245576   4.304   5.938   3.569 -1.6734 -1.0611 -0.5218
 8029TIP3   OH245577   3.998   3.350   3.313 -0.3232  0.2537 -0.0917
 8029TIP3    H145578   4.067   3.284   3.320 -0.5067  0.2099  1.6682
 8029TIP3    H245579   3.932   3.311   3.256 -0.1294 -0.8283  0.4116
 8030TIP3   OH245580   2.151   5.773   2.744 -0.0318 -0.6895  0.1898
 8030TIP3    H145581   2.161   5.685   2.709  0.0193 -1.5685  2.3570
 8030TIP3    H245582   2.241   5.805   2.753 -0.0550 -0.3473 -0.7221
 8031TIP3   OH245583   4.651   2.142   4.080 -0.1245 -0.5310  0.1001
 8031TIP3    H145584   4.719   2.080   4.056 -1.6393 -1.8120 -0.9890
 8031TIP3    H245585   4.639   2.197   4.003  0.3485  0.3418  0.6334
 8032TIP3   OH245586   1.732   2.883   3.095 -0.0559  0.1702  0.0518
 8032TIP3    H145587   1.717   2.833   3.175  1.7734  1.2755  1.1295
 8032TIP3    H245588   1.651   2.932   3.082 -0.3608 -0.0045  1.2287
 8033TIP3   OH245589   2.842   5.783   4.180 -0.5924  0.0714 -0.8018
 8033TIP3    H145590   2.836   5.780   4.276 -1.3775  0.7238 -0.8279
 8033TIP3    H245591   2.766   5.834   4.153 -1.3342 -1.5730 -1.8848
 8034TIP3   OH245592   2.253   2.201   1.095  1.1136 -0.4753  0.8406
 8034TIP3    H145593   2.266   2.193   1.190 -0.3646 -1.0399  1.0000
 8034TIP3    H245594   2.215   2.288   1.083  0.4592 -0.7608  0.8511
 8035TIP3   OH245595   1.871   5.798   4.237 -0.4359 -0.1632 -0.0138
 8035TIP3    H145596   1.927   5.737   4.286 -1.1387  0.2521  1.3407
 8035TIP3    H245597   1.852   5.754   4.155  0.2146 -1.1709  0.3738
 8036TIP3   OH245598   6.673   3.708   4.514  0.1692  0.4540 -0.0968
 8036TIP3    H145599   6.747   3.768   4.504  0.6144 -0.4458 -2.3206
 8036TIP3    H245600   6.654   3.710   4.608  2.7806  0.9543  0.4699
 8037TIP3   OH245601   1.868   2.789  16.867  0.1807 -0.1705  0.4441
 8037TIP3    H145602   1.876   2.758  16.777 -0.0174 -0.2697  0.4598
 8037TIP3    H245603   1.955   2.821  16.889  0.3921 -0.7342  0.4344
 8038TIP3   OH245604   2.923   6.718   4.200  0.1371 -0.4412  0.3398
 8038TIP3    H145605   3.014   6.744   4.211 -0.7429  2.2282  1.7797
 8038TIP3    H245606   2.903   6.668   4.279  0.0997 -0.2627  0.4427
 8039TIP3   OH245607   4.800   2.812   1.563 -0.4121 -0.0995  0.0777
 8039TIP3    H145608   4.824   2.751   1.493  1.7899 -1.8040  2.2380
 8039TIP3    H245609   4.873   2.873   1.567 -1.2970  0.9911 -0.1651
 8040TIP3   OH245610   6.479   1.045   4.346 -0.2211 -0.4510  0.2931
 8040TIP3    H145611   6.549   0.990   4.381 -1.0764 -1.0965  1.0105
 8040TIP3    H245612   6.422   1.063   4.420 -1.4168 -0.8470 -0.5078
 8041TIP3   OH245613   2.591   6.372   4.156 -0.4721 -0.1404 -0.1256
 8041TIP3    H145614   2.591   6.448   4.097 -0.9764 -0.8516 -1.0596
 8041TIP3    H245615   2.677   6.374   4.197 -0.5370  1.0284 -0.0269
 8042TIP3   OH245616   2.873   1.949   3.792  0.0522  0.1994  0.2455
 8042TIP3    H145617   2.829   1.920   3.712  0.2561 -0.6214  0.4279
 8042TIP3    H245618   2.966   1.953   3.767 -0.0121  1.0172  0.1279
 8043TIP3   OH245619   0.931   4.447  12.911 -0.0948 -0.7507 -0.7717
 8043TIP3    H145620   0.943   4.490  12.996  0.6325  0.9928 -1.7322
 8043TIP3    H245621   0.836   4.432  12.905 -0.1729 -0.7089  0.2485
 8044TIP3   OH245622   6.494   2.181  11.734 -0.0555 -0.3115  0.1575
 8044TIP3    H145623   6.579   2.209  11.768  0.7866 -3.0634  0.4910
 8044TIP3    H245624   6.433   2.197  11.805  0.6636 -0.7167  0.8778
 8045TIP3   OH245625   3.327   4.594   1.810  0.4047  0.1226 -0.1779
 8045TIP3    H145626   3.316   4.560   1.899 -0.8308 -2.3778 -1.2407
 8045TIP3    H245627   3.255   4.657   1.801 -0.4649 -0.8110  0.0654
 8046TIP3   OH245628   3.476   2.992  15.760  0.4908  0.8793 -0.2642
 8046TIP3    H145629   3.549   3.014  15.818  0.1337 -1.3230  1.1210
 8046TIP3    H245630   3.405   2.968  15.820 -0.5071  0.4293 -1.6069
 8047TIP3   OH245631   4.886   2.181   1.765  0.1906 -0.0290  0.0053
 8047TIP3    H145632   4.834   2.262   1.761 -1.1369 -0.9061 -0.6954
 8047TIP3    H245633   4.976   2.212   1.774 -0.4647  1.5196  1.7625
 8048TIP3   OH245634   1.907   4.714  16.546 -0.1575  0.4028  0.5154
 8048TIP3    H145635   1.915   4.746  16.637  1.2129 -1.1635  0.9704
 8048TIP3    H245636   1.906   4.619  16.554 -0.0890  0.2510 -1.1273
 8049TIP3   OH245637   1.534   1.066  12.712  0.0613 -0.4626 -0.0130
 8049TIP3    H145638   1.490   1.138  12.758 -1.3669 -1.0650 -0.4190
 8049TIP3    H245639   1.623   1.099  12.695  0.5462 -0.1444  2.9327
 8050TIP3   OH245640   6.079   2.005   1.703  0.2125 -0.3105 -0.0830
 8050TIP3    H145641   6.023   2.039   1.634  0.2326  0.2046  0.1512
 8050TIP3    H245642   6.019   1.960   1.763 -0.0973  1.0748  0.6835
 8051TIP3   OH245643   4.866   6.230   6.289  0.1152  0.0100  0.0795
 8051TIP3    H145644   4.933   6.244   6.355  0.6910  0.8090 -0.6643
 8051TIP3    H245645   4.865   6.310   6.237 -0.7051 -0.3900 -0.5489
 8052TIP3   OH245646   5.233   1.001  15.055  0.9505 -0.1832  0.5579
 8052TIP3    H145647   5.204   1.005  15.146  0.7005 -0.8182  0.5148
 8052TIP3    H245648   5.328   1.006  15.060  0.8631  1.5646  0.7240
 8053TIP3   OH245649   5.884   3.841   5.228 -0.3483  0.5533 -0.1222
 8053TIP3    H145650   5.897   3.928   5.264 -1.2420  0.1922  1.1393
 8053TIP3    H245651   5.807   3.849   5.171 -0.9410  0.4331  0.6416
 8054TIP3   OH245652   6.030   2.038  11.499  0.1761  0.0598 -0.3667
 8054TIP3    H145653   6.043   1.953  11.540  0.0312 -0.1417 -0.7234
 8054TIP3    H245654   6.108   2.051  11.446 -0.9324 -1.0750 -2.3790
 8055TIP3   OH245655   1.313   2.287   5.023  0.0789 -0.4100 -0.1103
 8055TIP3    H145656   1.278   2.373   5.048  1.6472  0.2727 -0.2146
 8055TIP3    H245657   1.399   2.306   4.987  0.7102 -2.1039  0.4656
 8056TIP3   OH245658   6.323   6.144  13.151 -0.4884  0.1338 -0.0094
 8056TIP3    H145659   6.370   6.112  13.227 -0.3163 -1.1025 -0.6306
 8056TIP3    H245660   6.312   6.238  13.168 -0.4437 -0.1249  1.5148
 8057TIP3   OH245661   3.948   2.688   0.644  0.5281  0.3413  0.4061
 8057TIP3    H145662   3.903   2.765   0.678  0.8997  0.9664 -0.4791
 8057TIP3    H245663   3.908   2.614   0.689 -1.9058  0.8143 -0.8916
 8058TIP3   OH245664   1.341   2.328  13.252  0.2280 -0.1355 -0.2289
 8058TIP3    H145665   1.374   2.280  13.328 -0.3080  0.3768  0.3352
 8058TIP3    H245666   1.261   2.282  13.227  0.4995 -0.4099 -0.5929
 8059TIP3   OH245667   0.759   1.341  14.670  0.3301 -0.3053 -0.2717
 8059TIP3    H145668   0.697   1.407  14.638  0.0226 -0.3471  0.2203
 8059TIP3    H245669   0.843   1.366  14.632 -0.6391 -2.3765 -3.9601
 8060TIP3   OH245670   1.118   2.405   2.036  0.2673  0.1723 -0.3829
 8060TIP3    H145671   1.184   2.385   2.102 -1.2226 -3.1731  0.2074
 8060TIP3    H245672   1.053   2.459   2.081 -0.6197 -1.8946  0.8732
 8061TIP3   OH245673   5.505   6.480  14.798 -0.1386  0.1423 -0.2845
 8061TIP3    H145674   5.533   6.566  14.830  1.2058 -0.2045 -0.4977
 8061TIP3    H245675   5.421   6.464  14.841  1.1236  0.1599  2.2581
 8062TIP3   OH245676   0.969   3.870   4.211 -0.2612  0.4638  0.2760
 8062TIP3    H145677   0.999   3.779   4.217  0.3010  0.5024 -1.5824
 8062TIP3    H245678   0.996   3.898   4.123  0.0866  2.6122  1.0394
 8063TIP3   OH245679   1.567   1.470   2.747  0.4380  0.1998  0.1198
 8063TIP3    H145680   1.546   1.420   2.826 -0.0388  1.3187  0.7179
 8063TIP3    H245681   1.613   1.408   2.691 -0.1720 -0.9128  0.8312
 8064TIP3   OH245682   3.087   5.704   2.652 -0.3502  0.1891  0.3051
 8064TIP3    H145683   3.088   5.622   2.702  0.6416  0.0909  0.1317
 8064TIP3    H245684   3.022   5.689   2.583 -0.3772 -0.3535  0.4438
 8065TIP3   OH245685   5.311   6.395   3.622 -0.3580 -0.4040  0.0744
 8065TIP3    H145686   5.230   6.349   3.598 -0.5756 -1.4863  2.7255
 8065TIP3    H245687   5.330   6.451   3.546 -2.5406 -1.5403 -1.3690
 8066TIP3   OH245688   2.721   2.307  12.649 -0.9155 -0.2686 -0.5923
 8066TIP3    H145689   2.750   2.239  12.710 -0.9744 -0.3415 -0.6462
 8066TIP3    H245690   2.755   2.280  12.564 -0.0138  0.3189 -0.4352
 8067TIP3   OH245691   4.511   3.614   0.496  0.4625 -0.4060  0.3600
 8067TIP3    H145692   4.563   3.670   0.553  1.7035  0.2415 -1.3768
 8067TIP3    H245693   4.420   3.641   0.513  0.7715 -0.5175  2.3057
 8068TIP3   OH245694   6.699   0.665   4.845  0.3922  0.2216 -0.6446
 8068TIP3    H145695   6.706   0.574   4.818  1.2645  0.1737 -0.2473
 8068TIP3    H245696   6.737   0.714   4.772  2.9222  0.0829  0.5197
 8069TIP3   OH245697   5.014   4.400  16.758  0.1834  0.3018 -0.5715
 8069TIP3    H145698   5.066   4.425  16.682 -1.6108  0.3447 -1.8033
 8069TIP3    H245699   4.960   4.328  16.728  1.0957 -1.2235  1.3273
 8070TIP3   OH245700   4.109   5.953  10.588  0.8020  0.1769 -0.7559
 8070TIP3    H145701   4.081   6.043  10.573  1.1923  0.5058  0.3793
 8070TIP3    H245702   4.100   5.910  10.504 -0.2803  1.0410 -1.0832
 8071TIP3   OH245703   1.924   3.301  17.236 -0.1404 -0.2570 -0.2897
 8071TIP3    H145704   1.871   3.376  17.266 -1.0441 -0.7019 -0.7384
 8071TIP3    H245705   1.879   3.224  17.272  0.7121 -0.5975  0.0567
 8072TIP3   OH245706   1.547   1.129  14.533  0.0780  0.0599  0.2897
 8072TIP3    H145707   1.496   1.048  14.522  0.8927 -0.2408 -1.4078
 8072TIP3    H245708   1.561   1.136  14.628 -1.9361 -0.5746  0.6567
 8073TIP3   OH245709   5.273   0.623   4.113 -0.0142 -0.4153 -0.0215
 8073TIP3    H145710   5.198   0.576   4.149  0.2780 -1.4562 -0.7316
 8073TIP3    H245711   5.235   0.689   4.055 -0.3753 -1.6608 -1.2422
 8074TIP3   OH245712   6.362   6.132   1.718  0.0761  0.6171  0.5750
 8074TIP3    H145713   6.439   6.186   1.698 -1.4079  1.9855 -1.5651
 8074TIP3    H245714   6.359   6.130   1.814  1.7798  1.9788  0.6872
 8075TIP3   OH245715   5.016   5.289   3.691 -0.3729 -0.3040 -0.4113
 8075TIP3    H145716   5.070   5.217   3.722  0.8633  0.2797 -1.1726
 8075TIP3    H245717   4.986   5.260   3.604 -1.1148 -0.5356 -0.0819
 8076TIP3   OH245718   3.013   2.756   0.154 -0.0363 -0.1572 -0.8122
 8076TIP3    H145719   3.013   2.662   0.136 -0.0941 -0.6275  1.5667
 8076TIP3    H245720   2.921   2.778   0.164  0.0058  0.0566 -0.9059
 8077TIP3   OH245721   4.723   2.685   2.899  0.3124  0.4279  0.0606
 8077TIP3    H145722   4.797   2.641   2.857 -0.3065  1.7805 -2.4901
 8077TIP3    H245723   4.723   2.773   2.862 -2.4059  0.5396  0.2578
 8078TIP3   OH245724   4.992   5.412  14.922  0.5659 -0.0099 -0.2452
 8078TIP3    H145725   4.910   5.410  14.873  1.2556  0.8120 -1.4769
 8078TIP3    H245726   5.043   5.340  14.886  0.3396 -0.5939  0.5998
 8079TIP3   OH245727   0.244   6.032  11.877 -0.1260  0.0249 -0.6067
 8079TIP3    H145728   0.244   6.085  11.957  0.8141 -0.3722 -0.3441
 8079TIP3    H245729   0.204   5.949  11.903 -0.5454  0.1801 -0.7452
 8080TIP3   OH245730   5.709   2.387   5.850 -0.4110  0.1639  0.3941
 8080TIP3    H145731   5.774   2.356   5.913 -0.5453 -0.0297  0.4384
 8080TIP3    H245732   5.662   2.308   5.824 -0.3106  0.2317 -0.0000
 8081TIP3   OH245733   3.175   2.165  14.239 -0.5177  0.1078 -0.1126
 8081TIP3    H145734   3.262   2.177  14.201 -0.5185  0.9455  0.1317
 8081TIP3    H245735   3.190   2.158  14.333 -0.7778  0.9697 -0.0059
 8082TIP3   OH245736   6.138   4.131  12.169  0.1873 -0.4266 -0.9701
 8082TIP3    H145737   6.180   4.208  12.210 -0.5946  0.3733 -1.6504
 8082TIP3    H245738   6.051   4.128  12.207  0.3887 -1.2984 -0.5650
 8083TIP3   OH245739   5.297   2.827   1.043  0.6611  0.6331  0.0734
 8083TIP3    H145740   5.365   2.889   1.017  0.5851  0.7168  0.0736
 8083TIP3    H245741   5.308   2.752   0.984  0.2552  0.9760 -0.4455
 8084TIP3   OH245742   3.631   5.540  12.245  0.4284  0.1769 -0.3389
 8084TIP3    H145743   3.559   5.552  12.183  0.0181 -0.8657 -0.0858
 8084TIP3    H245744   3.627   5.617  12.301 -1.5214 -0.6206  0.6769
 8085TIP3   OH245745   2.142   0.946  13.339 -0.0719 -0.3180 -0.1534
 8085TIP3    H145746   2.197   0.937  13.417  1.4382  0.6219 -1.0808
 8085TIP3    H245747   2.083   0.871  13.343 -0.3533 -0.0334  2.1382
 8086TIP3   OH245748   6.279   1.237   4.716  0.3365 -0.0331 -0.2042
 8086TIP3    H145749   6.315   1.307   4.770  1.5013 -0.3090 -0.6036
 8086TIP3    H245750   6.185   1.252   4.716  0.7225  2.6328 -1.7814
 8087TIP3   OH245751   0.022   2.267   5.901  0.1732  0.2999 -0.0374
 8087TIP3    H145752   0.050   2.345   5.948 -0.6633  0.0591  0.8713
 8087TIP3    H245753  -0.073   2.267   5.908  0.2683 -2.0339  1.9788
 8088TIP3   OH245754   0.201   1.468  13.347 -0.0191 -0.1298  0.5994
 8088TIP3    H145755   0.133   1.427  13.295 -1.2578  2.4263  0.1097
 8088TIP3    H245756   0.159   1.490  13.430  0.2461  1.2100  0.4016
 8089TIP3   OH245757   4.435   3.858   2.346  0.4044 -0.1118  0.4970
 8089TIP3    H145758   4.501   3.794   2.318  1.9351  1.5817  0.1550
 8089TIP3    H245759   4.481   3.917   2.406 -1.1835  0.2245  1.4296
 8090TIP3   OH245760   3.770   6.301   1.365 -0.0625 -0.0999 -0.2799
 8090TIP3    H145761   3.796   6.210   1.347 -1.6352 -0.4673 -0.7703
 8090TIP3    H245762   3.676   6.296   1.379  0.0319  1.2981  0.8744
 8091TIP3   OH245763   5.567   3.541  16.621  0.0364 -0.0616  0.2921
 8091TIP3    H145764   5.590   3.517  16.711 -1.1513 -0.0915  0.5927
 8091TIP3    H245765   5.482   3.584  16.628 -0.7314 -1.3337 -0.9857
 8092TIP3   OH245766   2.533   5.788  12.636  0.2121  0.5245 -0.2315
 8092TIP3    H145767   2.487   5.710  12.667 -0.7408  1.1282 -0.1191
 8092TIP3    H245768   2.594   5.755  12.570 -0.9845 -0.1765 -0.9983
 8093TIP3   OH245769   0.284   5.836   1.597 -0.0346  0.3257 -0.1167
 8093TIP3    H145770   0.258   5.750   1.563 -3.3907  1.6327 -1.0423
 8093TIP3    H245771   0.311   5.818   1.687  0.2194 -1.8246 -0.5839
 8094TIP3   OH245772   0.904   0.801  13.407 -0.7329 -0.0864  0.1730
 8094TIP3    H145773   0.979   0.758  13.448 -2.2263 -1.4268  1.5568
 8094TIP3    H245774   0.889   0.878  13.461 -0.7658 -0.1692  0.2821
 8095TIP3   OH245775   0.942   3.573  12.403 -0.0949  0.1666  0.0258
 8095TIP3    H145776   0.964   3.662  12.428  1.0505  0.0006 -0.3533
 8095TIP3    H245777   0.995   3.556  12.325  0.2922 -1.1202  0.5586
 8096TIP3   OH245778   3.905   3.214   5.057 -0.0965  0.4462 -0.4735
 8096TIP3    H145779   3.945   3.132   5.027 -1.9333 -0.3517 -0.7683
 8096TIP3    H245780   3.959   3.282   5.017  1.2718 -0.6055 -0.4649
 8097TIP3   OH245781   3.016   2.766  14.195 -1.0188 -0.3918  0.0582
 8097TIP3    H145782   2.946   2.727  14.142 -3.0157 -1.5805  3.4391
 8097TIP3    H245783   2.971   2.826  14.254  1.2766  1.7086 -0.2364
 8098TIP3   OH245784   4.333   5.105  15.262 -0.4629  0.1025  0.3357
 8098TIP3    H145785   4.291   5.128  15.179  0.6306  3.2058  0.5838
 8098TIP3    H245786   4.413   5.060  15.236  0.3998  1.9882 -0.3558
 8099TIP3   OH245787   3.154   2.501   5.889 -0.5519  0.2686  0.2418
 8099TIP3    H145788   3.225   2.439   5.873  2.0096  3.3836 -0.8155
 8099TIP3    H245789   3.154   2.512   5.984  1.4821  1.4806  0.1176
 8100TIP3   OH245790   0.007   0.926  16.076  0.0603  0.9763  0.6678
 8100TIP3    H145791  -0.029   0.917  15.988  0.8208 -1.1111  0.5365
 8100TIP3    H245792   0.064   1.002  16.072  2.1723 -0.6464 -1.4041
 8101TIP3   OH245793   2.350   2.879  15.864 -0.3162  0.3365  0.1323
 8101TIP3    H145794   2.405   2.900  15.788 -0.7884  2.0525  0.2604
 8101TIP3    H245795   2.309   2.795  15.840  1.0270 -0.1187 -0.6769
 8102TIP3   OH245796   0.763   6.030   4.222 -0.6960 -0.2685 -0.0469
 8102TIP3    H145797   0.856   6.036   4.203 -0.4695 -1.2369  0.6966
 8102TIP3    H245798   0.758   6.029   4.318 -1.2344 -2.9701 -0.0468
 8103TIP3   OH245799   4.471   2.961  12.630 -0.3018 -0.3255 -0.3346
 8103TIP3    H145800   4.525   2.944  12.707  0.4549  0.2931 -0.7184
 8103TIP3    H245801   4.518   2.917  12.558  0.0459  0.7752 -0.7889
 8104TIP3   OH245802   3.886   6.739   3.703  0.2144 -0.1340 -0.2159
 8104TIP3    H145803   3.823   6.810   3.711 -1.2515 -1.4806  0.3855
 8104TIP3    H245804   3.924   6.750   3.615 -1.3011  0.3321 -0.8269
 8105TIP3   OH245805   6.758   3.795  15.673 -0.3504 -0.6971 -0.0083
 8105TIP3    H145806   6.719   3.785  15.760 -0.5586 -1.3390 -0.1733
 8105TIP3    H245807   6.829   3.858  15.686 -0.1709 -1.0391  0.6922
 8106TIP3   OH245808   1.553   3.958  17.179 -0.7474  0.3402  0.1378
 8106TIP3    H145809   1.530   4.026  17.242 -3.0408  0.0012 -0.2933
 8106TIP3    H245810   1.550   3.877  17.230 -2.4343  0.0855 -0.3222
 8107TIP3   OH245811   0.478   3.471  14.778  0.8776 -0.3681 -0.1345
 8107TIP3    H145812   0.415   3.406  14.747  1.4126  0.0542 -2.1621
 8107TIP3    H245813   0.426   3.532  14.831 -0.1909 -0.6902 -0.8141
 8108TIP3   OH245814   6.274   0.312   2.733  0.6469  0.0242 -0.0749
 8108TIP3    H145815   6.206   0.378   2.749 -0.5547 -1.1684 -0.1242
 8108TIP3    H245816   6.357   0.358   2.747 -0.1623  1.6339 -0.4885
 8109TIP3   OH245817   0.028   2.882   6.407  0.0472 -0.5757 -0.5271
 8109TIP3    H145818  -0.068   2.881   6.410  0.0948  0.0279  1.5141
 8109TIP3    H245819   0.055   2.847   6.492  1.6478  1.1750 -0.2914
 8110TIP3   OH245820   1.928   2.038   0.792 -0.2185 -0.3840  0.1672
 8110TIP3    H145821   1.841   1.999   0.781 -0.4619  0.0448  0.5806
 8110TIP3    H245822   1.946   2.031   0.886  1.2085 -2.6511 -0.2291
 8111TIP3   OH245823   5.271   1.317  12.844  0.2779 -0.1741 -0.2728
 8111TIP3    H145824   5.246   1.311  12.751 -0.3856  3.0701 -0.3959
 8111TIP3    H245825   5.208   1.260  12.889 -1.2652  0.4334 -1.5733
 8112TIP3   OH245826   4.393   2.412  13.271  0.2218  0.1093 -0.0226
 8112TIP3    H145827   4.419   2.504  13.269 -0.6882  0.3769  0.2431
 8112TIP3    H245828   4.469   2.365  13.236  0.6582  0.9655 -0.2467
 8113TIP3   OH245829   6.014   4.981   2.813  0.6193 -0.8581 -0.1895
 8113TIP3    H145830   5.961   4.984   2.733  0.6896  0.5851 -0.2029
 8113TIP3    H245831   6.097   4.943   2.785  0.7969  0.0284 -0.9096
 8114TIP3   OH245832   4.454   0.527  11.476  0.5476 -0.2303 -0.0907
 8114TIP3    H145833   4.492   0.573  11.400  1.2127 -1.7415 -0.7007
 8114TIP3    H245834   4.419   0.446  11.439 -0.5389 -0.2591  0.9830
 8115TIP3   OH245835   6.771   2.309  11.738  0.2989 -0.5379 -0.6433
 8115TIP3    H145836   6.786   2.394  11.779 -3.5722 -0.4554  0.8164
 8115TIP3    H245837   6.853   2.261  11.751  1.2267  1.6550  1.9051
 8116TIP3   OH245838   3.260   0.482  13.448 -0.0872  0.5285 -0.2707
 8116TIP3    H145839   3.206   0.441  13.380 -0.1610 -1.0537  0.7237
 8116TIP3    H245840   3.216   0.460  13.530  0.3189  1.9448  0.3341
 8117TIP3   OH245841   4.070   4.738  12.887 -0.1283 -0.1961 -0.8578
 8117TIP3    H145842   4.049   4.828  12.864  0.5083 -0.0333 -0.8014
 8117TIP3    H245843   4.123   4.706  12.814 -1.5403 -0.9864 -1.5630
 8118TIP3   OH245844   2.371   4.417   2.048 -0.1419 -0.1226 -0.5572
 8118TIP3    H145845   2.439   4.394   2.110 -0.2694  0.2861 -0.2638
 8118TIP3    H245846   2.297   4.445   2.102 -1.4908 -3.0409 -0.7652
 8119TIP3   OH245847   6.390   6.517   5.212 -0.0419 -0.4774 -0.3715
 8119TIP3    H145848   6.381   6.582   5.142  0.5218  2.0038  1.7563
 8119TIP3    H245849   6.484   6.504   5.221  0.1453  2.4121  2.6439
 8120TIP3   OH245850   5.579   2.923  14.716 -0.1355  0.0245  0.0058
 8120TIP3    H145851   5.528   2.887  14.788 -0.5488 -0.7628 -0.6639
 8120TIP3    H245852   5.563   3.017  14.718  0.6915  0.1430  1.5849
 8121TIP3   OH245853   1.640   0.914  11.323  0.0560 -0.4449 -0.1853
 8121TIP3    H145854   1.725   0.870  11.330  1.5602  2.1266 -1.4981
 8121TIP3    H245855   1.584   0.850  11.278  2.4246 -0.7784 -2.8385
 8122TIP3   OH245856   0.299   3.833   4.721 -0.1802  0.2454  0.0151
 8122TIP3    H145857   0.260   3.880   4.647 -1.1009 -0.4524  0.0480
 8122TIP3    H245858   0.233   3.838   4.790 -1.4779 -3.3202 -0.8304
 8123TIP3   OH245859   4.459   4.248   6.147 -0.1388 -0.0597 -0.4755
 8123TIP3    H145860   4.398   4.198   6.201  0.5692  2.1087  2.4547
 8123TIP3    H245861   4.508   4.181   6.098 -0.2950 -2.1537  2.1470
 8124TIP3   OH245862   0.317   3.201  14.334 -0.6307 -0.5904 -0.4444
 8124TIP3    H145863   0.319   3.154  14.417 -1.8231 -1.2473 -0.7618
 8124TIP3    H245864   0.312   3.293  14.358  0.5639 -0.6928  0.1996
 8125TIP3   OH245865   4.368   5.864   0.365 -0.0445  0.1395 -0.5356
 8125TIP3    H145866   4.308   5.924   0.321 -1.2252 -0.4249  0.2751
 8125TIP3    H245867   4.410   5.815   0.294 -1.0161  0.0987 -1.0972
 8126TIP3   OH245868   2.756   1.810   6.049  0.2867 -0.3979  0.2370
 8126TIP3    H145869   2.814   1.794   6.124  0.4589 -0.9493 -0.0154
 8126TIP3    H245870   2.812   1.799   5.972  0.1126  0.1885  0.0268
 8127TIP3   OH245871   6.616   6.334  12.251 -0.0406  0.5725 -0.4764
 8127TIP3    H145872   6.634   6.398  12.320 -1.2319  0.1163  0.2723
 8127TIP3    H245873   6.575   6.385  12.181  0.9241  0.9911 -0.7399
 8128TIP3   OH245874   2.921   6.245  14.740  0.4006  0.4447 -0.2386
 8128TIP3    H145875   2.843   6.231  14.686  0.3986 -1.1986  0.1472
 8128TIP3    H245876   2.912   6.334  14.773 -1.3117  0.2863 -0.2140
 8129TIP3   OH245877   2.778   5.031   1.380  0.4665  0.7370 -0.5693
 8129TIP3    H145878   2.789   4.958   1.441  0.3010  0.9544 -0.2777
 8129TIP3    H245879   2.704   5.005   1.325  0.3160  0.7458 -0.3733
 8130TIP3   OH245880   5.506   1.326  16.777  0.2479  0.0045 -0.6000
 8130TIP3    H145881   5.490   1.235  16.802  0.6615  0.0419 -0.1842
 8130TIP3    H245882   5.444   1.343  16.706  0.4883 -0.7451 -0.9945
 8131TIP3   OH245883   1.201   4.569  16.535  0.1748 -0.1267 -0.6666
 8131TIP3    H145884   1.112   4.595  16.561  0.1531 -1.1093  0.2698
 8131TIP3    H245885   1.201   4.474  16.543  2.0157  0.0187  1.7063
 8132TIP3   OH245886   3.931   1.325   2.605 -0.3688  0.0974  0.2120
 8132TIP3    H145887   3.982   1.247   2.584 -0.1524  0.4495 -0.5950
 8132TIP3    H245888   3.883   1.345   2.524 -1.2514  0.1769  0.7441
 8133TIP3   OH245889   5.056   3.615   1.342  0.0967 -0.0695  0.3602
 8133TIP3    H145890   4.982   3.595   1.399  1.2386  1.3985  2.4218
 8133TIP3    H245891   5.123   3.552   1.366  0.1013 -0.3430 -0.3568
 8134TIP3   OH245892   3.664   5.527  11.228 -0.5427  0.0408 -0.0840
 8134TIP3    H145893   3.732   5.470  11.263  0.6411  1.1097 -0.6229
 8134TIP3    H245894   3.665   5.512  11.134 -0.7602  0.3886 -0.1446
 8135TIP3   OH245895   2.027   5.183   4.754  0.3295 -0.1696 -0.0347
 8135TIP3    H145896   2.034   5.146   4.666  2.4499 -1.0736  0.4662
 8135TIP3    H245897   1.954   5.136   4.794  0.5613 -1.0949 -0.6869
 8136TIP3   OH245898   3.774   0.366  16.581  0.1751 -0.3773  0.2695
 8136TIP3    H145899   3.852   0.320  16.612  0.5379 -0.5118 -0.8277
 8136TIP3    H245900   3.783   0.454  16.617  0.3199 -0.6888  1.0005
 8137TIP3   OH245901   6.068   1.691   1.846 -0.6091  0.1456 -0.6437
 8137TIP3    H145902   6.006   1.700   1.919 -0.2139  1.6255 -0.4640
 8137TIP3    H245903   6.154   1.683   1.888 -0.4945 -0.0450 -0.9171
 8138TIP3   OH245904   2.100   6.698   2.211 -0.5771 -0.2403 -0.0197
 8138TIP3    H145905   2.043   6.645   2.156  0.2980 -2.5706  1.2433
 8138TIP3    H245906   2.183   6.701   2.164 -0.5549 -0.1845  0.0228
 8139TIP3   OH245907   4.633   2.025  11.747  0.5242 -0.6372 -0.7215
 8139TIP3    H145908   4.588   2.088  11.804  1.0044 -0.1429 -0.8927
 8139TIP3    H245909   4.618   2.058  11.658  0.6216 -0.8644 -0.8215
 8140TIP3   OH245910   6.583   6.238   3.969  0.1766  0.0983 -0.7852
 8140TIP3    H145911   6.583   6.145   3.947  0.3314  0.1839 -1.1587
 8140TIP3    H245912   6.491   6.262   3.974  0.1126 -0.5046  1.1606
 8141TIP3   OH245913   5.377   3.698  13.930 -0.0600  0.1068  0.2826
 8141TIP3    H145914   5.310   3.707  13.997 -2.7289  2.0087 -2.5249
 8141TIP3    H245915   5.341   3.635  13.867  0.6814  1.2447 -1.3228
 8142TIP3   OH245916   6.242   0.394  16.000  0.3472 -0.3033  0.2048
 8142TIP3    H145917   6.258   0.467  16.059 -0.0758 -0.4192  0.4649
 8142TIP3    H245918   6.147   0.383  16.001  0.3061 -0.1124 -0.7227
 8143TIP3   OH245919   2.484   4.548   6.311  0.4517 -0.7387 -0.1122
 8143TIP3    H145920   2.483   4.507   6.224  0.5875  1.2043 -1.0700
 8143TIP3    H245921   2.562   4.604   6.309  0.1113 -0.2201  1.0465
 8144TIP3   OH245922   4.410   0.785   4.073  0.3706 -0.6092 -0.0542
 8144TIP3    H145923   4.496   0.808   4.038  0.1353  0.4650  0.0408
 8144TIP3    H245924   4.371   0.729   4.006  0.2049  0.8516 -1.2212
 8145TIP3   OH245925   2.335   2.233  11.089  0.2086 -0.4138  0.5043
 8145TIP3    H145926   2.245   2.207  11.107  0.4011 -1.4437  0.0109
 8145TIP3    H245927   2.388   2.179  11.148  0.6497 -1.6094 -0.9710
 8146TIP3   OH245928   5.228   3.638  16.244 -0.3529 -0.0484 -0.0777
 8146TIP3    H145929   5.255   3.647  16.335  1.0220 -1.3188 -0.3324
 8146TIP3    H245930   5.195   3.725  16.220  2.1553  1.1740  0.7168
 8147TIP3   OH245931   1.988   0.193  17.281  0.1958 -0.1071  0.0130
 8147TIP3    H145932   1.911   0.191  17.223  1.1204  1.2978 -1.3179
 8147TIP3    H245933   1.986   0.281  17.320  1.4866  0.1949 -0.5649
 8148TIP3   OH245934   1.675   2.336   5.158 -0.0016  0.5463  0.7997
 8148TIP3    H145935   1.642   2.420   5.126 -0.0855  0.6324  1.1062
 8148TIP3    H245936   1.663   2.341   5.253  2.8368  1.4461  1.1704
 8149TIP3   OH245937   5.838   1.135  14.541  0.1177 -0.5425 -0.1471
 8149TIP3    H145938   5.869   1.202  14.479  0.4332 -0.5936 -0.0496
 8149TIP3    H245939   5.878   1.160  14.625 -0.2966 -0.4825  0.0327
 8150TIP3   OH245940   5.368   4.961  14.529 -0.1164  0.1740 -0.2552
 8150TIP3    H145941   5.389   5.054  14.529 -1.1175  0.4017  0.4931
 8150TIP3    H245942   5.402   4.929  14.613 -0.7844  0.0942 -0.0149
 8151TIP3   OH245943   0.189   3.204  15.130  0.5178 -0.0204  0.1346
 8151TIP3    H145944   0.285   3.210  15.123  0.3483  2.9633 -0.5916
 8151TIP3    H245945   0.163   3.146  15.059  1.7880 -0.9557  0.4114
 8152TIP3   OH245946   1.769   5.549  15.372 -0.1995 -0.0931 -0.2850
 8152TIP3    H145947   1.719   5.630  15.380  2.1797  1.3587  0.2322
 8152TIP3    H245948   1.858   5.577  15.350  0.4861 -2.6057 -0.9637
 8153TIP3   OH245949   2.564   2.489  13.343 -0.3547  0.4163 -0.5508
 8153TIP3    H145950   2.623   2.446  13.281 -0.2608  0.4632 -0.4946
 8153TIP3    H245951   2.498   2.423  13.363  0.5639 -0.1912  0.5933
 8154TIP3   OH245952   0.956   4.754   1.856  0.3105 -0.6332  1.1242
 8154TIP3    H145953   1.051   4.744   1.851  0.2269 -0.6513 -0.7608
 8154TIP3    H245954   0.922   4.664   1.858  0.2138 -0.6717 -1.2400
 8155TIP3   OH245955   5.681   3.995  13.753 -0.0367  0.1735  0.4089
 8155TIP3    H145956   5.727   3.988  13.670 -0.4498 -2.0248  0.3240
 8155TIP3    H245957   5.597   3.953  13.738 -1.1744  2.0821  1.2258
 8156TIP3   OH245958   1.523   2.788  15.907  0.4595  0.0304  0.4377
 8156TIP3    H145959   1.567   2.756  15.986  0.9226  1.7311  0.8762
 8156TIP3    H245960   1.473   2.712  15.876  0.0045 -0.5723  2.5451
 8157TIP3   OH245961   2.617   0.178   5.998 -0.5200 -0.0920 -0.0989
 8157TIP3    H145962   2.629   0.114   6.068 -1.5826  1.5067  1.5940
 8157TIP3    H245963   2.568   0.249   6.039 -1.0053  0.9639 -2.4370
 8158TIP3   OH245964   4.877   1.451  11.908 -0.1024 -0.1357 -0.4584
 8158TIP3    H145965   4.842   1.429  11.995  0.7579 -0.7774 -0.2734
 8158TIP3    H245966   4.801   1.483  11.860 -0.4015  1.1525  0.8406
 8159TIP3   OH245967   4.864   1.013  16.461  0.3939 -0.2351  0.2813
 8159TIP3    H145968   4.820   1.014  16.546  1.7161 -0.2299  0.9704
 8159TIP3    H245969   4.804   0.965  16.404 -0.9137  0.5149  0.9883
 8160TIP3   OH245970   1.405   5.674  17.149  0.0900 -0.2528 -0.3772
 8160TIP3    H145971   1.316   5.697  17.122 -0.1954 -1.5399 -0.5794
 8160TIP3    H245972   1.446   5.639  17.069 -0.4823 -3.2685  0.5876
 8161TIP3   OH245973   2.937   5.205   2.767  0.0113  0.3371 -0.1497
 8161TIP3    H145974   2.881   5.231   2.694  0.1215  0.8133 -0.0714
 8161TIP3    H245975   3.014   5.166   2.725 -0.5007 -0.5618 -0.2476
 8162TIP3   OH245976   4.571   5.444  15.356 -0.3157 -0.5245  0.7426
 8162TIP3    H145977   4.526   5.439  15.441 -1.3333  1.2521  0.3452
 8162TIP3    H245978   4.500   5.441  15.291  0.2389  0.7379  0.0596
 8163TIP3   OH245979   3.572   0.889   4.773 -0.1910 -0.3035  0.4422
 8163TIP3    H145980   3.535   0.864   4.858  0.7500 -0.4026  0.8391
 8163TIP3    H245981   3.497   0.913   4.720 -0.9613 -1.9520  0.7362
 8164TIP3   OH245982   5.197   2.746  13.685 -0.6021  0.3021 -0.2633
 8164TIP3    H145983   5.196   2.722  13.593 -0.0335  0.8902 -0.4234
 8164TIP3    H245984   5.137   2.683  13.727  0.8084 -1.3432 -0.6731
 8165TIP3   OH245985   1.891   4.696  13.624 -0.4055  0.8197 -0.2691
 8165TIP3    H145986   1.968   4.703  13.568 -0.5560 -3.0318 -1.1573
 8165TIP3    H245987   1.926   4.680  13.712 -0.1877  1.0007 -0.3236
 8166TIP3   OH245988   5.127   2.296   4.814 -0.4742  0.1549 -0.0444
 8166TIP3    H145989   5.172   2.212   4.821 -0.9368  0.0619  2.2457
 8166TIP3    H245990   5.197   2.361   4.810 -0.1267 -0.2653 -1.1048
 8167TIP3   OH245991   6.083   1.363  16.315 -0.4177 -0.4980 -0.2054
 8167TIP3    H145992   6.010   1.407  16.357 -0.2656 -0.7732  0.3457
 8167TIP3    H245993   6.141   1.435  16.288  0.9043 -0.4253  2.6515
 8168TIP3   OH245994   0.818   2.779  11.461  0.8116 -0.2698 -0.7802
 8168TIP3    H145995   0.882   2.781  11.391 -1.1807  1.8457 -2.6047
 8168TIP3    H245996   0.769   2.698  11.447  0.9273 -0.2359 -1.3750
 8169TIP3   OH245997   6.695   3.566  15.429  0.6525 -0.0089 -0.1986
 8169TIP3    H145998   6.732   3.521  15.354  0.3160 -0.1349 -0.2931
 8169TIP3    H245999   6.626   3.507  15.461  1.7034 -0.5771  1.0474
 8170TIP3   OH246000   1.119   0.741   3.815  0.2688  0.5740  0.7406
 8170TIP3    H146001   1.089   0.733   3.725  0.1971 -2.4654  0.9605
 8170TIP3    H246002   1.043   0.773   3.863  0.0503  1.3779 -0.1440
 8171TIP3   OH246003   5.472   6.292  13.259 -0.5146  0.2705 -0.0335
 8171TIP3    H146004   5.557   6.329  13.234  0.2808  0.6021  3.0464
 8171TIP3    H246005   5.480   6.198  13.240  0.1093  0.4791 -0.8321
 8172TIP3   OH246006   4.368   6.611  15.852 -0.2470  0.2196 -0.0694
 8172TIP3    H146007   4.343   6.684  15.909 -2.2981  1.0888 -2.0223
 8172TIP3    H246008   4.464   6.613  15.853 -0.2517  2.5379  0.4587
 8173TIP3   OH246009   4.753   0.027  12.280 -0.2226  0.0757  0.0216
 8173TIP3    H146010   4.750   0.057  12.371 -1.4849 -0.4902  0.1761
 8173TIP3    H246011   4.753  -0.069  12.287  0.6619  0.0273 -0.5500
 8174TIP3   OH246012   6.260   2.355   2.744 -0.0589 -0.6181 -0.1364
 8174TIP3    H146013   6.261   2.410   2.666 -0.3011  1.6513  1.3997
 8174TIP3    H246014   6.169   2.357   2.774  0.1386 -0.9858  0.5090
 8175TIP3   OH246015   0.721   3.774   0.251  0.4100 -0.1444  1.1908
 8175TIP3    H146016   0.806   3.730   0.242 -1.9770 -4.3443 -2.7880
 8175TIP3    H246017   0.669   3.715   0.304 -0.5471  1.7950  2.4935
 8176TIP3   OH246018   2.901   5.980  14.405  0.3536  0.1165 -0.1858
 8176TIP3    H146019   2.888   5.939  14.319  1.4086 -0.3128 -0.1543
 8176TIP3    H246020   2.988   5.951  14.432 -0.4589 -0.7342  1.5805
 8177TIP3   OH246021   6.055   5.605  16.429 -0.0274  0.3157 -0.1309
 8177TIP3    H146022   6.086   5.532  16.376  0.0933  0.0659  0.2741
 8177TIP3    H246023   6.099   5.593  16.514 -1.0005  0.1210  0.3566
 8178TIP3   OH246024   5.846   0.647   1.281 -0.2734 -0.2617 -0.2669
 8178TIP3    H146025   5.803   0.731   1.265 -0.0759 -0.2875 -0.9311
 8178TIP3    H246026   5.937   0.661   1.254 -0.2088 -0.6488 -0.2502
 8179TIP3   OH246027   1.797   3.169  13.006  0.0383  0.1179  0.5715
 8179TIP3    H146028   1.795   3.098  13.070  0.4283  0.0947  0.5585
 8179TIP3    H246029   1.781   3.248  13.056  1.5626  0.2337  0.8855
 8180TIP3   OH246030   5.954   3.056  13.132  0.2583  0.0568 -0.0541
 8180TIP3    H146031   5.987   3.066  13.221 -2.9700  0.2552  1.1554
 8180TIP3    H246032   6.010   3.113  13.079  1.6312  0.6063  1.9645
 8181TIP3   OH246033   1.755   4.368   4.357  0.4293  0.2038 -0.8422
 8181TIP3    H146034   1.826   4.418   4.318 -0.4914  0.9070 -1.6145
 8181TIP3    H246035   1.707   4.431   4.410 -0.8950  0.2160 -2.0286
 8182TIP3   OH246036   6.035   6.078  10.873  0.3903  0.5792  0.2992
 8182TIP3    H146037   5.975   6.051  10.803  0.8160 -1.5410  0.7117
 8182TIP3    H246038   5.991   6.153  10.915 -1.6072 -0.4340  0.0919
 8183TIP3   OH246039   1.003   4.863  11.768 -0.3871 -0.3080  0.5812
 8183TIP3    H146040   1.045   4.950  11.762  0.9269 -1.0132 -0.9656
 8183TIP3    H246041   0.984   4.852  11.861 -2.4033  2.4850  0.5630
 8184TIP3   OH246042   1.196   0.971   3.059 -0.2176  0.0028 -0.4026
 8184TIP3    H146043   1.201   0.892   3.005  1.3471  0.3101 -0.7236
 8184TIP3    H246044   1.285   0.983   3.092 -0.6815  1.0449  0.4986
 8185TIP3   OH246045   0.227   2.294   6.279  1.0099  0.0087  0.4005
 8185TIP3    H146046   0.151   2.350   6.262 -0.2902 -1.4585  1.1934
 8185TIP3    H246047   0.232   2.289   6.375 -0.2593 -2.9694  0.3732
 8186TIP3   OH246048   4.830   5.756   5.489  0.1175 -0.2109  0.4080
 8186TIP3    H146049   4.899   5.691   5.475  1.8988  1.5405  0.8511
 8186TIP3    H246050   4.833   5.773   5.583  0.6839  1.6015  0.0779
 8187TIP3   OH246051   0.848   2.012   3.717  0.2148  0.2893  0.2602
 8187TIP3    H146052   0.882   2.052   3.797 -0.9508 -1.0747  1.4876
 8187TIP3    H246053   0.918   1.954   3.687  0.3274  0.1387  0.8123
 8188TIP3   OH246054   6.349   6.136   0.850  0.5704  0.2568  0.0856
 8188TIP3    H146055   6.411   6.123   0.922 -1.1871  1.5660  1.8780
 8188TIP3    H246056   6.302   6.216   0.873 -0.9475 -0.0531 -1.8627
 8189TIP3   OH246057   3.762   6.721  13.403  0.1882 -0.3463  0.9191
 8189TIP3    H146058   3.705   6.655  13.363  0.8621 -1.3187  1.5185
 8189TIP3    H246059   3.825   6.669  13.453  1.0573  0.7527  0.9609
 8190TIP3   OH246060   1.291   5.315  13.504  0.4078 -0.0913  0.7322
 8190TIP3    H146061   1.258   5.261  13.575  2.0968  1.0677  2.4570
 8190TIP3    H246062   1.332   5.390  13.548 -0.1459  1.5858 -1.5282
 8191TIP3   OH246063   6.555   3.243   5.827  0.0212  0.0028  0.3402
 8191TIP3    H146064   6.615   3.170   5.838 -0.5620 -0.9344 -2.4203
 8191TIP3    H246065   6.610   3.317   5.803  0.2481 -0.5216 -0.7992
 8192TIP3   OH246066   2.074   0.724  14.343 -0.4522  0.0714  0.2388
 8192TIP3    H146067   2.092   0.657  14.409  0.1791  1.2418  1.2634
 8192TIP3    H246068   2.157   0.772  14.334 -0.8737  0.6607 -0.5516
 8193TIP3   OH246069   3.626   0.639   6.073  0.0964 -0.3093  0.4579
 8193TIP3    H146070   3.672   0.686   6.004 -0.3430 -1.1468 -0.4162
 8193TIP3    H246071   3.611   0.705   6.141 -0.1936  0.7291 -0.5860
 8194TIP3   OH246072   2.148   2.532  16.265 -0.4797 -0.7041 -0.3301
 8194TIP3    H146073   2.116   2.543  16.354 -3.3685  1.4352 -1.5598
 8194TIP3    H246074   2.153   2.437  16.252 -0.0877 -1.0300  2.0484
 8195TIP3   OH246075   6.256   1.756   0.528 -0.0342  0.2392  0.0221
 8195TIP3    H146076   6.321   1.770   0.458  0.4277 -1.5045  0.0773
 8195TIP3    H246077   6.173   1.782   0.488  0.3795  0.3374 -0.8062
 8196TIP3   OH246078   0.630   2.015  11.810 -0.1980  0.0233  0.2662
 8196TIP3    H146079   0.608   2.025  11.718 -0.7177  0.7551  0.4628
 8196TIP3    H246080   0.658   2.102  11.838  2.1361 -0.6822  0.2401
 8197TIP3   OH246081   1.705   3.666  12.909  0.0132 -0.0776 -0.2854
 8197TIP3    H146082   1.768   3.656  12.980 -0.9386 -1.2214  0.4158
 8197TIP3    H246083   1.636   3.721  12.946  0.2096  0.5229 -0.8008
 8198TIP3   OH246084   0.393   4.429   1.207 -0.8051 -0.7277  0.4058
 8198TIP3    H146085   0.476   4.401   1.246  0.7355  0.9432 -1.5331
 8198TIP3    H246086   0.337   4.449   1.282  0.9349 -0.8011  1.7658
 8199TIP3   OH246087   5.472   1.211   1.168 -0.4526  0.0010 -0.4458
 8199TIP3    H146088   5.451   1.141   1.229 -1.6230  1.5092  0.9492
 8199TIP3    H246089   5.397   1.215   1.108 -1.2424  1.2105  0.5926
 8200TIP3   OH246090   2.297   3.953  11.725  0.5319 -0.5853  0.4522
 8200TIP3    H146091   2.376   3.957  11.672  1.0956 -1.4615  1.2360
 8200TIP3    H246092   2.238   4.017  11.684  1.1536 -0.8776 -0.9139
 8201TIP3   OH246093   6.812   1.220   1.433  0.3511 -0.2041 -0.6149
 8201TIP3    H146094   6.863   1.169   1.496  2.0855  0.4791 -1.4499
 8201TIP3    H246095   6.782   1.156   1.369 -0.9961 -0.8231  0.5843
 8202TIP3   OH246096   0.554   2.654   1.082 -0.2862  0.3403 -0.4670
 8202TIP3    H146097   0.621   2.613   1.027  0.1413 -0.6345  0.7690
 8202TIP3    H246098   0.569   2.748   1.071 -0.5394  0.1764 -2.4111
 8203TIP3   OH246099   0.620   0.281   4.596 -0.2574 -0.4155 -0.3412
 8203TIP3    H146100   0.656   0.193   4.611  0.0011 -0.0143  1.5588
 8203TIP3    H246101   0.527   0.266   4.577  0.0025 -1.1662 -1.0292
 8204TIP3   OH246102   0.737   5.986  13.782  0.2356 -0.0085 -0.3390
 8204TIP3    H146103   0.700   6.043  13.713 -0.6266  1.2839  1.1498
 8204TIP3    H246104   0.702   6.022  13.863  0.8656 -1.8157  0.7513
 8205TIP3   OH246105   1.375   6.161  17.188  0.4669  0.5197 -0.4544
 8205TIP3    H146106   1.428   6.092  17.147 -0.4504  0.3034 -1.2834
 8205TIP3    H246107   1.387   6.237  17.131 -0.1638  0.4544 -0.6766
 8206TIP3   OH246108   4.954   6.731   0.881  0.5743  0.5603 -0.0310
 8206TIP3    H146109   4.864   6.700   0.880 -0.0889  2.4318 -0.4508
 8206TIP3    H246110   4.984   6.717   0.970 -0.4027  0.6848  0.3213
 8207TIP3   OH246111   0.715   5.275   4.305  0.6131 -0.2489 -0.3919
 8207TIP3    H146112   0.747   5.236   4.224  0.1091 -0.7664 -0.3415
 8207TIP3    H246113   0.673   5.357   4.277  0.8264 -0.2141 -0.6047
 8208TIP3   OH246114   1.162   1.802  15.458 -0.1325 -0.7527 -0.0086
 8208TIP3    H146115   1.241   1.834  15.502 -0.5455  1.6432 -0.9287
 8208TIP3    H246116   1.094   1.865  15.483 -0.4857  0.3923 -3.5945
 8209TIP3   OH246117   2.944   6.121   3.635  0.0712 -0.0209 -0.2506
 8209TIP3    H146118   2.911   6.105   3.724 -0.0336 -0.1391 -0.3115
 8209TIP3    H246119   3.039   6.109   3.643 -0.2270 -2.8681 -0.7788
 8210TIP3   OH246120   5.094   2.272  13.715 -0.0796  0.4254  0.1880
 8210TIP3    H146121   5.102   2.364  13.739 -0.0691  0.3018  0.6677
 8210TIP3    H246122   5.091   2.225  13.799  0.4114 -0.0522 -0.0557
 8211TIP3   OH246123   4.183   3.695   2.993 -0.1409  0.0999 -0.0282
 8211TIP3    H146124   4.193   3.612   2.946 -0.6004  0.0281  0.0066
 8211TIP3    H246125   4.154   3.670   3.080 -0.3409  0.3010 -0.0374
 8212TIP3   OH246126   0.610   4.389   6.754  0.1735 -0.1231 -0.1964
 8212TIP3    H146127   0.704   4.371   6.748  0.5140  1.4116  0.1593
 8212TIP3    H246128   0.579   4.333   6.825  1.0327  0.0930  0.3641
 8213TIP3   OH246129   1.914   1.012   6.075  0.4535 -0.1095 -0.2707
 8213TIP3    H146130   1.936   0.920   6.092  1.0689  0.1598  0.4199
 8213TIP3    H246131   1.842   1.031   6.135 -1.2017 -0.7794 -2.0135
 8214TIP3   OH246132   0.556   2.081  14.238  0.1635  0.1599 -0.3413
 8214TIP3    H146133   0.504   2.021  14.291 -2.3886  1.9828 -0.6788
 8214TIP3    H246134   0.554   2.043  14.150 -0.0636 -0.1192 -0.2140
 8215TIP3   OH246135   5.403   1.816   3.191  0.1071 -0.2414 -0.3014
 8215TIP3    H146136   5.341   1.763   3.141 -1.5026  0.9387  0.3989
 8215TIP3    H246137   5.449   1.868   3.124  0.3147 -1.0830 -0.8211
 8216TIP3   OH246138   6.772   4.134   4.610  0.2697  0.0855  0.1405
 8216TIP3    H146139   6.825   4.128   4.690 -1.7049  2.5145  1.7068
 8216TIP3    H246140   6.685   4.106   4.637  0.1873 -1.7143 -1.8744
 8217TIP3   OH246141   3.416   6.652  14.847  0.0008 -0.2047 -0.5075
 8217TIP3    H146142   3.383   6.736  14.814 -1.3593 -0.4704  0.1308
 8217TIP3    H246143   3.474   6.621  14.778  0.1060  1.0138 -0.9872
 8218TIP3   OH246144   1.348   6.116  11.975 -0.4068  0.1439  0.0053
 8218TIP3    H146145   1.263   6.088  12.008 -1.1174  1.2404 -0.8358
 8218TIP3    H246146   1.373   6.188  12.033 -0.0084 -0.2345  0.3067
 8219TIP3   OH246147   0.762   0.503   3.284  0.3865 -0.2029  0.8651
 8219TIP3    H146148   0.744   0.509   3.190 -0.8640  1.4672  1.1759
 8219TIP3    H246149   0.854   0.478   3.290  0.6161  0.1713 -0.8124
 8220TIP3   OH246150   0.613   2.177   2.511  0.0516 -0.4340  0.5190
 8220TIP3    H146151   0.698   2.217   2.531 -0.2260 -0.0889  1.0085
 8220TIP3    H246152   0.620   2.088   2.545  0.4262 -0.5900  0.0379
 8221TIP3   OH246153   4.968   5.084  12.937 -0.2851 -0.2469  0.1281
 8221TIP3    H146154   4.976   5.072  13.031 -1.3096 -0.7245  0.1690
 8221TIP3    H246155   4.877   5.061  12.918 -0.0408 -0.3191 -1.0009
 8222TIP3   OH246156   2.569   0.793  12.607 -0.0905 -0.4734 -0.6183
 8222TIP3    H146157   2.508   0.824  12.674 -0.1145 -0.5076 -0.6239
 8222TIP3    H246158   2.514   0.765  12.534 -0.0264  0.6772 -1.1296
 8223TIP3   OH246159   0.535   1.899   4.329  0.4078 -0.5340 -0.4444
 8223TIP3    H146160   0.589   1.825   4.358  1.6988 -0.0018 -1.4237
 8223TIP3    H246161   0.459   1.898   4.387  0.9603 -1.9485  0.2768
 8224TIP3   OH246162   3.499   6.673  11.847  0.3282 -0.6044  0.0780
 8224TIP3    H146163   3.437   6.636  11.910 -0.1966 -1.4383 -0.8969
 8224TIP3    H246164   3.495   6.613  11.772  1.0528  0.2702 -0.6761
 8225TIP3   OH246165   5.757   5.530  16.553 -0.4509  0.0117 -0.0252
 8225TIP3    H146166   5.848   5.555  16.534 -1.1911  0.6333 -2.9133
 8225TIP3    H246167   5.760   5.500  16.644  2.4775  0.8332  0.2204
 8226TIP3   OH246168   6.015   4.451   3.967 -0.1556 -0.1135  0.7972
 8226TIP3    H146169   6.088   4.503   3.936  0.7615 -1.1768  1.1435
 8226TIP3    H246170   5.973   4.505   4.034 -0.3393  0.9401 -0.1631
 8227TIP3   OH246171   2.264   0.155   2.405 -0.2622 -0.8518  0.3502
 8227TIP3    H146172   2.196   0.090   2.389 -0.2540 -1.2005  1.6592
 8227TIP3    H246173   2.331   0.109   2.454  0.9862 -0.5294 -1.0446
 8228TIP3   OH246174   4.751   3.362  12.975  0.8006  0.0249 -0.3428
 8228TIP3    H146175   4.840   3.386  12.947  0.3073  2.1220 -0.2215
 8228TIP3    H246176   4.699   3.367  12.894  0.6516 -0.4711 -0.2765
 8229TIP3   OH246177   4.605   1.889   0.606  0.2435  0.0725  0.9605
 8229TIP3    H146178   4.654   1.817   0.644  0.2205  0.2702  1.3658
 8229TIP3    H246179   4.533   1.847   0.559  0.3632 -0.1793  1.0002
 8230TIP3   OH246180   5.802   0.536   4.042  0.3491 -0.1748  0.2643
 8230TIP3    H146181   5.832   0.623   4.016  0.7927 -0.0204  1.2592
 8230TIP3    H246182   5.743   0.509   3.972  0.6882  0.6678 -0.3552
 8231TIP3   OH246183   5.142   4.389  17.132  0.3768  0.0826  0.8138
 8231TIP3    H146184   5.163   4.479  17.107  2.3266 -0.2868  1.0909
 8231TIP3    H246185   5.202   4.369  17.204  0.7626 -1.8466 -0.0309
 8232TIP3   OH246186   4.832   1.521  13.236  0.3621  0.2684  0.4719
 8232TIP3    H146187   4.792   1.527  13.149 -3.6747 -1.1250  2.0977
 8232TIP3    H246188   4.902   1.456  13.226 -0.5413 -0.4182 -1.5562
 8233TIP3   OH246189   1.257   2.396  13.952  0.0449 -0.8869 -0.0670
 8233TIP3    H146190   1.213   2.401  14.037  0.2376 -1.9930  0.1025
 8233TIP3    H246191   1.278   2.304  13.941  2.1811 -0.4001 -0.2265
 8234TIP3   OH246192   6.705   4.171   6.188  0.0178 -0.3284  0.7642
 8234TIP3    H146193   6.699   4.261   6.221 -0.0385 -0.3205  0.7316
 8234TIP3    H246194   6.758   4.126   6.254  0.1023 -0.2558  0.7475
 8235TIP3   OH246195   5.772   6.707  13.419 -0.1228  0.3057 -0.4336
 8235TIP3    H146196   5.806   6.746  13.500 -1.5682  0.9145 -0.1140
 8235TIP3    H246197   5.787   6.773  13.352  0.8278 -0.0917 -0.6263
 8236TIP3   OH246198   1.634   1.307  16.989  0.1243  0.1958 -0.0844
 8236TIP3    H146199   1.706   1.255  17.024 -0.4182  1.5133  3.2305
 8236TIP3    H246200   1.676   1.385  16.952  0.5291  0.1286  0.2332
 8237TIP3   OH246201   4.144   4.540   0.152  0.5546 -0.0867 -0.0221
 8237TIP3    H146202   4.232   4.541   0.113 -0.0384 -1.2587 -1.4637
 8237TIP3    H246203   4.116   4.631   0.149  0.9255  0.0054 -1.4837
 8238TIP3   OH246204   4.306   1.768  11.667  0.0153  0.0404  0.3632
 8238TIP3    H146205   4.279   1.846  11.618 -0.1740 -0.0895  0.2610
 8238TIP3    H246206   4.279   1.785  11.757  0.0082  0.1095  0.3498
 8239TIP3   OH246207   0.897   4.007  11.915 -0.4401 -0.1785 -0.4339
 8239TIP3    H146208   0.902   3.989  12.009  0.7438 -0.3791 -0.5324
 8239TIP3    H246209   0.977   4.056  11.896  0.6492 -2.4009 -1.8294
 8240TIP3   OH246210   4.286   1.612   2.769 -0.0497  0.5340  0.6709
 8240TIP3    H146211   4.259   1.653   2.687 -1.8326 -1.8443  0.0194
 8240TIP3    H246212   4.371   1.573   2.751 -1.2967 -1.6571 -0.6769
 8241TIP3   OH246213   4.458   3.455  12.229 -0.5350 -0.0931  0.2335
 8241TIP3    H146214   4.485   3.430  12.140 -0.8765  1.4465 -0.3186
 8241TIP3    H246215   4.363   3.450  12.228 -0.7320  2.8876 -0.4343
 8242TIP3   OH246216   2.695   1.508  15.679 -0.3500 -0.0400 -0.0249
 8242TIP3    H146217   2.619   1.455  15.701 -0.6811  1.4736  2.7368
 8242TIP3    H246218   2.758   1.490  15.749  1.2228 -0.0699 -1.4133
 8243TIP3   OH246219   5.511   0.191   4.085 -0.2641 -0.2818 -0.0986
 8243TIP3    H146220   5.451   0.119   4.106  0.6180 -1.0061 -0.0112
 8243TIP3    H246221   5.551   0.214   4.169 -1.5060  1.2183  0.1100
 8244TIP3   OH246222   2.828   0.076  13.489 -0.5042 -0.1317 -0.4182
 8244TIP3    H146223   2.773  -0.001  13.502 -0.0891 -0.6881 -1.8886
 8244TIP3    H246224   2.902   0.044  13.438 -0.1692  1.1867 -0.7705
 8245TIP3   OH246225   5.940   0.266  10.913  0.6236  0.2489  0.0557
 8245TIP3    H146226   6.001   0.275  10.986  1.6257  0.0001 -0.7436
 8245TIP3    H246227   5.903   0.353  10.902  1.5580  0.6421 -0.0614
 8246TIP3   OH246228   0.022   6.032  13.412  0.4351  0.3568 -0.1318
 8246TIP3    H146229  -0.068   6.015  13.384  0.2488  1.3301 -0.1381
 8246TIP3    H246230   0.076   5.998  13.341  0.0469  0.4570 -0.4761
 8247TIP3   OH246231   4.593   6.542   4.077  0.5244  0.1153 -0.1401
 8247TIP3    H146232   4.552   6.486   4.010  0.2353  0.6818 -0.4387
 8247TIP3    H246233   4.529   6.612   4.092  0.7938  0.2492  0.3860
 8248TIP3   OH246234   2.706   4.670   1.159  0.3077 -0.4649 -0.4146
 8248TIP3    H146235   2.675   4.636   1.243  0.3645 -0.9772 -0.6020
 8248TIP3    H246236   2.657   4.622   1.093 -0.3501  0.5398 -0.6641
 8249TIP3   OH246237   4.734   3.000   5.683 -1.0000  0.3990  0.2595
 8249TIP3    H146238   4.779   2.922   5.715 -0.5999  0.7980  0.6651
 8249TIP3    H246239   4.653   2.966   5.644 -1.7901 -0.0184  2.2326
 8250TIP3   OH246240   4.439   4.191   3.496 -0.4841 -0.0389  0.4425
 8250TIP3    H146241   4.412   4.275   3.535 -1.6015  0.7648 -1.9596
 8250TIP3    H246242   4.356   4.148   3.473  0.1469 -0.4502 -1.0919
 8251TIP3   OH246243   2.270   2.899  14.938  0.4582 -0.1545  0.7113
 8251TIP3    H146244   2.244   2.980  14.982  1.9113 -0.0025  1.3205
 8251TIP3    H246245   2.356   2.878  14.975  0.9993 -0.8777 -0.9074
 8252TIP3   OH246246   5.067   1.532   0.238 -0.4551 -0.5075  0.5410
 8252TIP3    H146247   5.010   1.531   0.161 -1.4523 -1.0369  1.2769
 8252TIP3    H246248   5.126   1.606   0.223  0.9657 -2.0472 -1.8805
 8253TIP3   OH246249   0.343   5.345   1.558  0.4674  0.3704 -0.1847
 8253TIP3    H146250   0.353   5.307   1.471 -1.3227 -1.7257  0.4763
 8253TIP3    H246251   0.395   5.289   1.615  0.8906  1.1852  0.2383
 8254TIP3   OH246252   5.670   0.621   2.028  0.3376  0.1013 -0.4583
 8254TIP3    H146253   5.601   0.681   2.000  0.0938 -0.0664 -0.2108
 8254TIP3    H246254   5.730   0.675   2.079 -0.7520 -0.2134  1.1857
 8255TIP3   OH246255   6.409   3.667   1.614 -0.1089  0.2159 -0.0621
 8255TIP3    H146256   6.463   3.646   1.537 -0.1916 -1.4117  0.2924
 8255TIP3    H246257   6.344   3.729   1.582 -0.2975 -0.6476 -1.3743
 8256TIP3   OH246258   2.481   0.565  16.555 -0.6077  0.5723  0.0147
 8256TIP3    H146259   2.538   0.516  16.615 -1.9213  0.5790  1.2962
 8256TIP3    H246260   2.541   0.623  16.508  0.8610 -1.6763 -0.9696
 8257TIP3   OH246261   5.284   1.179   6.372  0.1291  0.5732  0.1481
 8257TIP3    H146262   5.239   1.218   6.448 -0.7981  1.2208 -0.7142
 8257TIP3    H246263   5.376   1.200   6.385  0.1421 -0.3859  1.7246
 8258TIP3   OH246264   4.260   2.803   2.721  0.3170 -0.1613  0.1774
 8258TIP3    H146265   4.235   2.876   2.665  1.3885  0.7628  0.8896
 8258TIP3    H246266   4.202   2.810   2.797  0.8433  0.3235  0.5359
 8259TIP3   OH246267   5.939   5.388  16.026  0.3632 -0.4826  0.3111
 8259TIP3    H146268   6.015   5.394  15.969  0.1501  1.5845  0.1898
 8259TIP3    H246269   5.867   5.363  15.968  0.3270  0.7344 -0.1916
 8260TIP3   OH246270   6.065   3.441   1.720  0.6684  0.1769  0.5297
 8260TIP3    H146271   5.985   3.394   1.743  1.2115 -0.4308  1.2112
 8260TIP3    H246272   6.083   3.416   1.630 -1.5529  2.6705 -0.6955
 8261TIP3   OH246273   3.721   2.655   4.262 -0.0975 -0.3719  0.1862
 8261TIP3    H146274   3.627   2.664   4.248 -0.2122 -1.2903  0.3484
 8261TIP3    H246275   3.756   2.632   4.176  0.1382  1.1070 -0.1296
 8262TIP3   OH246276   6.382   4.011  13.705  0.1416  0.0696  0.3536
 8262TIP3    H146277   6.337   3.930  13.730 -0.3552  0.1512 -0.2762
 8262TIP3    H246278   6.472   3.998  13.734 -0.1709 -0.2832  1.2100
 8263TIP3   OH246279   3.353   5.028  12.950  0.0046  0.4970 -0.8185
 8263TIP3    H146280   3.337   4.964  12.881  0.5949 -0.7592  0.1784
 8263TIP3    H246281   3.339   4.979  13.032  2.0964  1.1818 -0.0156
 8264TIP3   OH246282   4.098   5.368  10.965  0.1913 -0.2975 -0.6634
 8264TIP3    H146283   4.082   5.414  11.048  1.2963  0.8618 -1.0866
 8264TIP3    H246284   4.099   5.437  10.899  0.6034 -1.0765 -1.4736
 8265TIP3   OH246285   4.866   2.796  16.526 -0.3679 -0.1606 -0.1232
 8265TIP3    H146286   4.861   2.741  16.448 -0.2965 -1.1413  0.5495
 8265TIP3    H246287   4.847   2.884  16.495  0.0125 -0.4898 -1.3113
 8266TIP3   OH246288   4.991   1.532  17.050 -0.3065 -0.1859 -0.4836
 8266TIP3    H146289   5.075   1.494  17.075 -0.3794 -0.2045 -0.2635
 8266TIP3    H246290   4.939   1.457  17.019 -0.5492 -0.3125  0.2220
 8267TIP3   OH246291   1.725   1.438  15.359  0.0458  0.4199  0.1704
 8267TIP3    H146292   1.733   1.473  15.270  1.8527  1.9907  0.8961
 8267TIP3    H246293   1.699   1.347  15.347  0.0609  0.6667 -1.9528
 8268TIP3   OH246294   3.595   2.257   4.728 -0.2550 -0.0551  0.3501
 8268TIP3    H146295   3.536   2.307   4.785 -0.5924 -0.7333  0.5970
 8268TIP3    H246296   3.574   2.287   4.640  0.0755  0.7997  0.5520
 8269TIP3   OH246297   5.970   5.507   0.950  0.2701 -0.1550 -0.5513
 8269TIP3    H146298   6.039   5.480   0.890  0.6486  1.9436 -1.1197
 8269TIP3    H246299   5.899   5.538   0.893 -0.3080 -0.3397  0.0590
 8270TIP3   OH246300   4.128   3.380   3.879  0.5600  0.6651  0.1315
 8270TIP3    H146301   4.115   3.386   3.784  1.0832  0.5227  0.0454
 8270TIP3    H246302   4.195   3.311   3.888  0.9839  1.1365  0.5658
 8271TIP3   OH246303   1.015   0.865   4.461  0.4963 -0.1714  0.2286
 8271TIP3    H146304   0.936   0.910   4.433  1.2120  0.7366 -0.3498
 8271TIP3    H246305   1.078   0.882   4.392  1.1368 -1.0664  0.5851
 8272TIP3   OH246306   3.996   4.836  14.827 -0.2617 -0.2446 -1.0970
 8272TIP3    H146307   4.066   4.771  14.827  0.1862  0.2312 -1.9716
 8272TIP3    H246308   3.963   4.836  14.917 -0.3561 -1.7811 -1.1208
 8273TIP3   OH246309   2.868   3.138  11.132  0.1982 -0.0632 -0.2970
 8273TIP3    H146310   2.858   3.045  11.151  1.4340 -0.3449 -0.9326
 8273TIP3    H246311   2.883   3.141  11.037  0.1005  0.7941 -0.2871
 8274TIP3   OH246312   0.049   4.673   6.520  0.6453 -0.3635  0.1248
 8274TIP3    H146313  -0.025   4.656   6.578 -0.0370  1.4959 -0.1457
 8274TIP3    H246314   0.116   4.710   6.578 -0.5045  2.7191 -0.4162
 8275TIP3   OH246315   0.570   4.792  15.281  0.1816 -0.4823  0.1306
 8275TIP3    H146316   0.573   4.733  15.356  1.2103 -0.3037  0.2310
 8275TIP3    H246317   0.555   4.878  15.319  0.3947 -0.4344  0.1032
 8276TIP3   OH246318   3.234   4.051   2.501  0.3998 -1.0163  0.3055
 8276TIP3    H146319   3.207   3.982   2.441 -2.1523 -2.1637  2.6478
 8276TIP3    H246320   3.276   4.005   2.574  0.2873  0.0337  1.0487
 8277TIP3   OH246321   5.161   5.260  13.473  0.0840  0.5865 -0.3517
 8277TIP3    H146322   5.155   5.171  13.508 -0.3100  0.0402 -1.7842
 8277TIP3    H246323   5.150   5.250  13.378  1.0821  2.0464 -0.6471
 8278TIP3   OH246324   5.006   4.881  11.398 -0.0308 -0.2420  0.1901
 8278TIP3    H146325   4.982   4.955  11.342 -0.0037 -0.3272  0.0647
 8278TIP3    H246326   4.972   4.904  11.484 -0.8015 -0.4890 -0.0432
 8279TIP3   OH246327   2.351   5.434   3.779  0.0440  0.4145  0.4932
 8279TIP3    H146328   2.402   5.369   3.827  1.1092  1.3616  0.6699
 8279TIP3    H246329   2.299   5.478   3.847  0.2373  0.5690  0.5415
 8280TIP3   OH246330   4.219   0.665   2.779  0.1873  0.2380 -0.1108
 8280TIP3    H146331   4.264   0.701   2.703 -0.5958  1.0613 -0.1927
 8280TIP3    H246332   4.137   0.631   2.744  0.4867 -0.7472  0.1274
 8281TIP3   OH246333   6.428   2.774  11.338  0.1729 -0.1308 -0.0219
 8281TIP3    H146334   6.363   2.844  11.345  0.2697  0.0897 -1.2424
 8281TIP3    H246335   6.470   2.789  11.254  0.8654 -1.0918  0.1487
 8282TIP3   OH246336   1.997   2.527  16.487 -0.0632  0.0838 -0.2289
 8282TIP3    H146337   2.002   2.587  16.562  0.8322 -0.2518 -0.0157
 8282TIP3    H246338   1.916   2.478  16.502 -0.7606  1.1560 -0.3536
 8283TIP3   OH246339   3.949   6.055   5.076  0.7263  0.7490 -0.4873
 8283TIP3    H146340   4.010   6.032   5.146  0.2359  0.3499 -0.1971
 8283TIP3    H246341   3.980   6.141   5.045  2.2465 -0.0541 -1.2396
 8284TIP3   OH246342   4.780   5.239  10.924 -0.3055 -0.1442 -0.4468
 8284TIP3    H146343   4.776   5.163  10.866  1.0502 -1.9877  1.7884
 8284TIP3    H246344   4.739   5.210  11.006  0.7105  1.3549  0.6349
 8285TIP3   OH246345   1.373   2.654   0.803 -0.0108  0.0210  0.1881
 8285TIP3    H146346   1.292   2.702   0.788  0.7359  1.1325 -0.3918
 8285TIP3    H246347   1.436   2.721   0.830  0.3067 -1.0538  2.2188
 8286TIP3   OH246348   3.712   1.890  17.141 -0.8463  0.0522  0.2090
 8286TIP3    H146349   3.714   1.821  17.207 -0.9411 -1.1373 -1.0134
 8286TIP3    H246350   3.748   1.967  17.185 -1.1745 -0.6482  1.7223
 8287TIP3   OH246351   1.325   6.786  10.757  0.8658  0.3234  0.2990
 8287TIP3    H146352   1.275   6.737  10.823  1.1730  0.2634  0.4900
 8287TIP3    H246353   1.308   6.740  10.675 -1.0051  1.5042  0.0172
 8288TIP3   OH246354   4.903   4.691  13.143 -0.1938  0.2961  0.4754
 8288TIP3    H146355   4.818   4.679  13.184 -0.0446  1.1533  1.0525
 8288TIP3    H246356   4.883   4.703  13.050 -0.8979  2.5575  0.8781
 8289TIP3   OH246357   0.733   5.052  11.665 -0.5577  0.1143 -0.2653
 8289TIP3    H146358   0.779   5.004  11.596  0.5110 -0.8334  1.0608
 8289TIP3    H246359   0.640   5.042  11.643 -0.3663 -2.5492 -0.0723
 8290TIP3   OH246360   2.416   4.743  16.271  0.5120  0.3816  0.3746
 8290TIP3    H146361   2.458   4.697  16.199  0.0627  0.7422 -0.1207
 8290TIP3    H246362   2.428   4.686  16.347  1.2709  0.1546  0.0846
 8291TIP3   OH246363   5.926   0.048  12.031  0.4540  0.6370  0.9689
 8291TIP3    H146364   5.954   0.133  12.065 -0.8104  1.2001  0.6332
 8291TIP3    H246365   5.861   0.069  11.964 -0.3175 -0.6166  1.3070
 8292TIP3   OH246366   5.979   0.695   1.888  1.0219  0.0150 -0.0743
 8292TIP3    H146367   5.911   0.666   1.826  1.8106 -3.1775  0.4377
 8292TIP3    H246368   5.929   0.735   1.960 -0.2292 -0.5336 -0.6061
 8293TIP3   OH246369   1.476   0.480   3.586 -0.8050 -0.1354  0.3271
 8293TIP3    H146370   1.473   0.537   3.663 -0.3928 -0.7322  0.7909
 8293TIP3    H246371   1.569   0.464   3.571 -0.9394 -1.5155  0.8390
 8294TIP3   OH246372   5.378   4.049  11.857  0.1044 -0.1584 -0.2909
 8294TIP3    H146373   5.402   4.068  11.948  0.5110  0.8867 -0.6167
 8294TIP3    H246374   5.288   4.080  11.849 -0.0329 -0.5198 -0.1672
 8295TIP3   OH246375   0.941   4.615  16.638  0.2787  0.0233 -0.4208
 8295TIP3    H146376   0.887   4.537  16.627  0.7805 -0.2635 -0.8994
 8295TIP3    H246377   0.886   4.687  16.607 -0.3587 -0.0814  0.4707
 8296TIP3   OH246378   3.796   3.772   1.720  0.2792 -0.1227  0.1484
 8296TIP3    H146379   3.735   3.830   1.767  0.8254 -0.2909  1.0716
 8296TIP3    H246380   3.821   3.823   1.643  1.4791  1.2718  1.4229
 8297TIP3   OH246381   3.010   1.385  12.123  0.5505 -0.0321  0.0881
 8297TIP3    H146382   3.043   1.329  12.194 -0.7889 -1.0526 -0.1016
 8297TIP3    H246383   2.964   1.456  12.169  0.1806 -0.3806  0.2592
 8298TIP3   OH246384   6.521   2.605  13.987  0.2022  0.0500  0.0487
 8298TIP3    H146385   6.528   2.534  14.051  2.1021 -0.4848 -0.6906
 8298TIP3    H246386   6.573   2.676  14.024 -0.6790  0.6146  0.2085
 8299TIP3   OH246387   3.470   3.410   4.245 -0.1076 -0.1596  0.5939
 8299TIP3    H146388   3.479   3.505   4.254 -0.6522  0.0314 -0.7726
 8299TIP3    H246389   3.550   3.375   4.285  0.6551  0.9222  0.0477
 8300TIP3   OH246390   5.267   5.008   3.736  0.1463 -0.0286 -0.3088
 8300TIP3    H146391   5.198   4.946   3.713  0.0053 -0.1871  0.5173
 8300TIP3    H246392   5.340   4.953   3.762 -0.0947  0.1526  0.7606
 8301TIP3   OH246393   5.705   5.069  15.520 -0.6389 -0.4385  0.0917
 8301TIP3    H146394   5.794   5.095  15.497 -1.0051  0.2751 -0.5589
 8301TIP3    H246395   5.700   4.977  15.497 -0.1698 -0.3968 -0.1831
 8302TIP3   OH246396   3.873   6.648   4.220 -0.4590  0.2194 -0.0560
 8302TIP3    H146397   3.947   6.675   4.166 -1.0705  0.9610 -0.5439
 8302TIP3    H246398   3.857   6.557   4.197  1.4637 -0.4966  1.3933
 8303TIP3   OH246399   4.807   6.163   1.788  0.3370 -0.4881 -0.6239
 8303TIP3    H146400   4.898   6.132   1.784  0.6801  0.4053  0.0103
 8303TIP3    H246401   4.796   6.216   1.709  1.6202  2.6355  1.1664
 8304TIP3   OH246402   1.529   5.616  14.773  0.0685 -0.2557  0.1005
 8304TIP3    H146403   1.606   5.581  14.818  0.1685  0.4702  0.4972
 8304TIP3    H246404   1.458   5.609  14.836  0.5528  2.2692  0.9974
 8305TIP3   OH246405   1.038   0.095   6.568  0.2703  0.1820 -0.0310
 8305TIP3    H146406   1.129   0.077   6.543  0.0237 -0.7989 -0.2600
 8305TIP3    H246407   0.986   0.056   6.498 -0.3351  0.6488  0.1569
 8306TIP3   OH246408   2.176   2.603   4.875  0.4638  0.3158 -0.0566
 8306TIP3    H146409   2.222   2.525   4.903  0.6229  1.0028  1.6267
 8306TIP3    H246410   2.158   2.651   4.956 -1.8691  0.7858 -0.8303
 8307TIP3   OH246411   1.282   5.646  15.601 -0.0725  0.1881 -0.0666
 8307TIP3    H146412   1.242   5.622  15.684  1.2107 -1.6678  0.0445
 8307TIP3    H246413   1.344   5.575  15.582  1.7123  1.9704 -1.1981
 8308TIP3   OH246414   6.000   6.161  13.346 -0.6038 -0.4924  0.1643
 8308TIP3    H146415   6.047   6.108  13.410 -1.0131  2.3290  2.8774
 8308TIP3    H246416   5.908   6.136  13.357 -0.3860 -2.2269 -1.5470
 8309TIP3   OH246417   3.055   4.592  12.008  0.1127 -0.0519  0.1820
 8309TIP3    H146418   3.100   4.523  12.057  1.0142  0.3609 -0.0558
 8309TIP3    H246419   3.011   4.547  11.936 -1.1905 -0.6621  1.3406
 8310TIP3   OH246420   6.296   2.364   2.357  0.1596  0.2639  0.4639
 8310TIP3    H146421   6.343   2.284   2.336 -0.5642 -0.5535  1.8525
 8310TIP3    H246422   6.359   2.419   2.403  0.4758  0.2382  0.0600
 8311TIP3   OH246423   3.141   4.704   4.503  0.1893  0.3128  0.2237
 8311TIP3    H146424   3.191   4.762   4.561 -0.3073  0.3441  0.6257
 8311TIP3    H246425   3.163   4.616   4.533  1.2344  0.2778 -0.6288
 8312TIP3   OH246426   2.096   0.106   2.703  0.7088 -0.6435 -0.0043
 8312TIP3    H146427   2.076   0.199   2.712  2.8660 -0.0939 -0.4782
 8312TIP3    H246428   2.063   0.082   2.616 -1.5368 -0.8074  0.8793
 8313TIP3   OH246429   1.420   4.406   0.291  0.3236 -0.3396  0.1503
 8313TIP3    H146430   1.358   4.335   0.309  0.7927 -0.6529  0.5426
 8313TIP3    H246431   1.497   4.385   0.344  0.1449  0.9052  0.9139
 8314TIP3   OH246432   2.067   1.180  14.197 -0.3698 -0.2571  0.7524
 8314TIP3    H146433   2.128   1.135  14.255  1.7629 -0.6259 -1.7040
 8314TIP3    H246434   2.102   1.269  14.188 -0.7616 -0.1518  0.1627
 8315TIP3   OH246435   0.188   6.212  12.139 -0.4307  0.2364 -0.4200
 8315TIP3    H146436   0.104   6.165  12.141 -1.5423  2.1476 -0.9266
 8315TIP3    H246437   0.166   6.301  12.168  1.4785  0.7006 -0.3384
 8316TIP3   OH246438   1.092   3.276  11.109  0.2752  0.0851  0.1080
 8316TIP3    H146439   1.014   3.253  11.057  0.5038 -1.3560  0.4047
 8316TIP3    H246440   1.073   3.364  11.141 -0.3731  0.5502 -1.4748
 8317TIP3   OH246441   3.532   0.928   0.146 -0.3475  0.2324  0.1044
 8317TIP3    H146442   3.569   1.015   0.133 -0.9623  0.5688  0.5541
 8317TIP3    H246443   3.606   0.874   0.173  0.2112  0.3980 -1.0520
 8318TIP3   OH246444   5.824   3.083   0.259 -0.0498 -0.2925 -0.0503
 8318TIP3    H146445   5.812   3.011   0.198 -1.1855  0.2209 -0.4562
 8318TIP3    H246446   5.885   3.142   0.216  0.2559 -0.6236 -0.0681
 8319TIP3   OH246447   5.777   0.322  13.656 -0.5694 -0.3882  0.5780
 8319TIP3    H146448   5.780   0.412  13.688  0.9423 -0.4183  0.5146
 8319TIP3    H246449   5.848   0.317  13.592 -0.0624 -1.8948  1.2542
 8320TIP3   OH246450   2.049   1.360   0.328 -0.7939 -0.0240  0.2462
 8320TIP3    H146451   1.963   1.332   0.357 -1.1800  0.3306 -0.5301
 8320TIP3    H246452   2.034   1.443   0.282 -0.2709 -0.7383 -1.2653
 8321TIP3   OH246453   2.595   3.454   4.146 -0.2500 -0.3644  0.1550
 8321TIP3    H146454   2.592   3.526   4.210 -1.1922 -0.8143  0.6330
 8321TIP3    H246455   2.641   3.491   4.071 -0.5281  0.6814  0.4856
 8322TIP3   OH246456   2.190   2.561   3.195 -0.0117 -0.2914 -0.0977
 8322TIP3    H146457   2.184   2.546   3.100  0.6401 -1.9906  0.1146
 8322TIP3    H246458   2.105   2.597   3.219 -0.0148  0.6250 -1.4046
 8323TIP3   OH246459   5.392   0.721   1.243  0.3504 -0.4106 -0.1235
 8323TIP3    H146460   5.424   0.650   1.187 -0.1996 -0.4512 -0.3912
 8323TIP3    H246461   5.369   0.791   1.182  1.4105  0.2114  0.1789
 8324TIP3   OH246462   5.611   4.161   3.841  0.1670 -0.1287  0.8837
 8324TIP3    H146463   5.673   4.145   3.912  1.7556  2.1269  0.0942
 8324TIP3    H246464   5.529   4.184   3.885  0.1580 -2.0974  1.9443
 8325TIP3   OH246465   2.997   5.122  12.048  0.2595  0.5918 -0.2838
 8325TIP3    H146466   3.025   5.097  12.136 -2.2217 -2.0276 -0.1771
 8325TIP3    H246467   3.060   5.080  11.990  0.1233 -0.2185  0.1422
 8326TIP3   OH246468   2.946   4.730  14.327 -0.5159 -0.1991  0.4073
 8326TIP3    H146469   2.993   4.799  14.374 -0.2277 -1.0673  1.4180
 8326TIP3    H246470   2.924   4.769  14.243  2.1536  0.1594 -0.1527
 8327TIP3   OH246471   0.877   4.048   0.608  0.4808  0.2730 -0.0724
 8327TIP3    H146472   0.948   4.069   0.547  0.8560 -0.3974  0.1268
 8327TIP3    H246473   0.914   3.979   0.664 -0.8281 -1.1568 -0.9282
 8328TIP3   OH246474   5.450   2.975   5.976  0.4905  0.5395 -0.2054
 8328TIP3    H146475   5.419   2.974   5.885  0.5756  0.6467 -0.2356
 8328TIP3    H246476   5.373   3.001   6.027 -0.1414 -1.6007 -0.0216
 8329TIP3   OH246477   4.125   2.104  14.668  0.3705  0.1414 -0.2756
 8329TIP3    H146478   4.136   2.034  14.733 -0.6089 -1.4682 -1.7983
 8329TIP3    H246479   4.214   2.130  14.645  0.7249  0.3907  1.3501
 8330TIP3   OH246480   6.406   0.477  15.333 -0.0999 -0.1477  0.3666
 8330TIP3    H146481   6.436   0.403  15.385 -1.9062 -1.3238 -0.2252
 8330TIP3    H246482   6.317   0.453  15.306 -1.0408  2.5668  0.8538
 8331TIP3   OH246483   5.759   1.100  11.353  0.8225 -0.1903 -0.0972
 8331TIP3    H146484   5.811   1.111  11.433  0.2830 -0.2124  0.2616
 8331TIP3    H246485   5.673   1.135  11.376  0.5979 -0.4182 -0.5966
 8332TIP3   OH246486   6.622   4.761   5.142  0.1856  0.2493  0.1852
 8332TIP3    H146487   6.603   4.805   5.225 -1.6648 -0.8408  0.3717
 8332TIP3    H246488   6.576   4.814   5.076 -1.5150 -0.9902  0.3351
 8333TIP3   OH246489   3.669   1.785   2.891 -0.2087 -0.0476  0.7276
 8333TIP3    H146490   3.720   1.725   2.838 -1.5170 -1.4461  1.0195
 8333TIP3    H246491   3.726   1.807   2.965  0.8630  0.3513 -0.2065
 8334TIP3   OH246492   0.124   2.923   0.948 -0.0569  0.2711 -0.0466
 8334TIP3    H146493   0.186   2.907   1.020  0.0048  1.8566  0.2621
 8334TIP3    H246494   0.075   3.000   0.975 -1.2687 -0.1796 -0.9092
 8335TIP3   OH246495   4.765   2.949   6.222 -0.1763  0.3051 -0.1790
 8335TIP3    H146496   4.725   2.866   6.197 -0.2154  0.1641  0.3520
 8335TIP3    H246497   4.830   2.926   6.289  1.1304  0.4733 -1.3698
 8336TIP3   OH246498   5.420   6.102   5.103  0.0049 -0.2558 -0.1235
 8336TIP3    H146499   5.389   6.102   5.194  1.2266  0.9747  0.2990
 8336TIP3    H246500   5.340   6.089   5.051 -0.5557 -2.1681  1.1589
 8337TIP3   OH246501   4.637   1.692  13.753  0.0702 -0.7199 -0.1870
 8337TIP3    H146502   4.555   1.649  13.775 -0.3078 -1.0554 -2.1911
 8337TIP3    H246503   4.615   1.752  13.682  1.5085 -0.6632 -0.6009
 8338TIP3   OH246504   2.622   5.779  16.893  0.1259  0.1427  0.1284
 8338TIP3    H146505   2.649   5.871  16.892  0.1249  0.1532  0.6718
 8338TIP3    H246506   2.538   5.778  16.846  0.0728  0.4421  0.2154
 8339TIP3   OH246507   6.174   0.742   5.540 -0.2677  0.2913  0.0408
 8339TIP3    H146508   6.249   0.741   5.600 -2.3929  2.0289  2.7999
 8339TIP3    H246509   6.156   0.835   5.525 -1.0628 -0.1171 -1.6825
 8340TIP3   OH246510   2.440   1.324  13.284 -0.2690  0.2053 -0.0730
 8340TIP3    H146511   2.389   1.254  13.326 -2.3665  1.5805 -0.2774
 8340TIP3    H246512   2.405   1.405  13.322 -0.3079  1.3346 -2.4732
 8341TIP3   OH246513   2.440   4.048  12.637 -0.3898  0.4252 -0.5471
 8341TIP3    H146514   2.379   3.991  12.684 -0.6321  2.5662  1.8069
 8341TIP3    H246515   2.519   4.048  12.691  0.5473  0.2911 -1.8824
 8342TIP3   OH246516   1.286   0.331  14.336  0.1401 -0.0039 -0.5091
 8342TIP3    H146517   1.202   0.301  14.372 -0.9685  1.4111 -1.8772
 8342TIP3    H246518   1.268   0.418  14.301  2.3249  0.5409 -0.3455
 8343TIP3   OH246519   0.965   3.103  16.245 -0.3424 -0.2759  0.2157
 8343TIP3    H146520   0.896   3.062  16.296 -1.6633  1.9821  0.3264
 8343TIP3    H246521   0.921   3.173  16.196  1.5666  0.1160 -1.0229
 8344TIP3   OH246522   6.741   5.113   0.127  0.5897  0.0198 -0.1398
 8344TIP3    H146523   6.763   5.068   0.209  2.3479  0.0824 -0.5605
 8344TIP3    H246524   6.756   5.206   0.146 -0.6548  0.2140 -0.0312
 8345TIP3   OH246525   5.077   0.042  13.670 -0.3841 -0.0878 -0.2036
 8345TIP3    H146526   5.001   0.095  13.647  0.2385  0.3024 -1.3865
 8345TIP3    H246527   5.143   0.065  13.606  0.5792 -0.7917  0.5169
 8346TIP3   OH246528   1.346   1.118  12.478  0.0156  0.4087 -0.1514
 8346TIP3    H146529   1.384   1.111  12.566  0.1095  1.3719 -0.1121
 8346TIP3    H246530   1.377   1.039  12.433 -0.6076 -0.4474  0.8954
 8347TIP3   OH246531   2.265   4.474   2.381 -0.5407  0.1023 -0.1754
 8347TIP3    H146532   2.249   4.417   2.456 -1.6743 -0.8245 -1.0922
 8347TIP3    H246533   2.328   4.425   2.328 -3.2801 -1.4569 -2.1374
 8348TIP3   OH246534   4.285   3.020   6.117  0.3085 -0.6719  0.2790
 8348TIP3    H146535   4.228   2.956   6.160  1.0690 -1.8486 -0.4430
 8348TIP3    H246536   4.372   3.001   6.150  0.5395  0.0430  0.1015
 8349TIP3   OH246537   5.304   2.745   0.736  0.6395  0.0428  0.6498
 8349TIP3    H146538   5.236   2.690   0.776 -1.1103  1.9888  0.4256
 8349TIP3    H246539   5.259   2.826   0.713  3.0448  1.3520  0.4156
 8350TIP3   OH246540   4.182   0.618  13.733 -0.2855  0.1232  0.1513
 8350TIP3    H146541   4.217   0.569  13.659  1.0785  0.7032  0.3885
 8350TIP3    H246542   4.175   0.554  13.804 -0.3956 -0.1554 -0.1096
 8351TIP3   OH246543   5.754   4.417   0.808 -0.7680 -0.1231 -0.0854
 8351TIP3    H146544   5.767   4.348   0.743  3.4440 -2.3272  2.8412
 8351TIP3    H246545   5.809   4.489   0.777  0.8927 -1.0123  0.6922
 8352TIP3   OH246546   4.879   5.914   1.590 -0.2203 -0.5005 -0.5218
 8352TIP3    H146547   4.912   5.976   1.656 -0.8216  0.3941 -1.0527
 8352TIP3    H246548   4.951   5.852   1.577  1.0952  1.1809 -1.3654
 8353TIP3   OH246549   5.223   2.864  15.612 -0.0771  0.4493 -0.3268
 8353TIP3    H146550   5.239   2.957  15.631 -0.0156 -0.1173  2.6451
 8353TIP3    H246551   5.302   2.836  15.567  0.0118  1.7881 -1.0373
 8354TIP3   OH246552   3.501   1.290  15.646 -0.0320 -0.1299 -0.0279
 8354TIP3    H146553   3.501   1.265  15.739 -0.4258  1.3794  0.3903
 8354TIP3    H246554   3.418   1.256  15.613 -0.5946  0.6646  0.5516
 8355TIP3   OH246555   3.745   5.736  16.665  0.0368 -0.3720 -0.5010
 8355TIP3    H146556   3.823   5.748  16.719 -1.5037 -0.8823  1.9078
 8355TIP3    H246557   3.740   5.641  16.651 -0.8617 -0.4718  0.4571
 8356TIP3   OH246558   4.560   6.222  14.131  0.4493 -0.2578  0.2222
 8356TIP3    H146559   4.530   6.189  14.216 -1.0536 -0.7220 -0.4642
 8356TIP3    H246560   4.525   6.311  14.126 -0.6789 -0.7378 -0.5108
 8357TIP3   OH246561   3.663   1.176  15.407  0.2165  0.4436  0.1932
 8357TIP3    H146562   3.619   1.150  15.326 -0.4072  0.4617  0.5217
 8357TIP3    H246563   3.631   1.264  15.425  0.4254  0.4757  0.4091
 8358TIP3   OH246564   0.620   2.706   1.557 -0.1119 -0.1975 -0.0027
 8358TIP3    H146565   0.602   2.743   1.470  1.1585 -0.0544 -0.2206
 8358TIP3    H246566   0.698   2.652   1.544 -1.1004 -1.7981  0.6396
 8359TIP3   OH246567   2.371   4.322   6.465 -0.3999 -0.2652 -0.5917
 8359TIP3    H146568   2.276   4.324   6.482 -0.8810 -0.1983 -3.1115
 8359TIP3    H246569   2.378   4.283   6.378  1.9925 -1.4449  0.0958
 8360TIP3   OH246570   0.992   4.764   2.238 -0.1777  0.0577 -0.3190
 8360TIP3    H146571   1.069   4.784   2.184  0.7946 -2.1423  0.1652
 8360TIP3    H246572   0.940   4.844   2.237  2.3634  1.7706 -0.2595
 8361TIP3   OH246573   1.942   4.772  16.103 -0.4707 -0.1904 -0.1893
 8361TIP3    H146574   1.987   4.750  16.184  0.6540  0.1615 -0.7170
 8361TIP3    H246575   1.951   4.694  16.048 -0.1769  0.0202 -0.4413
 8362TIP3   OH246576   0.576   2.212   5.734  0.3019  0.1860 -0.0150
 8362TIP3    H146577   0.579   2.294   5.684 -0.7664 -0.3160 -0.9194
 8362TIP3    H246578   0.491   2.214   5.778  1.1052  0.4885  1.6018
 8363TIP3   OH246579   5.712   4.644   6.566  0.3950 -0.5174  0.1003
 8363TIP3    H146580   5.679   4.706   6.632  2.7942  0.5599  0.3260
 8363TIP3    H246581   5.686   4.683   6.482  0.4289 -0.0601  0.3004
 8364TIP3   OH246582   0.912   5.163   0.868  0.1842 -0.8221  0.9477
 8364TIP3    H146583   0.910   5.067   0.876  0.0461 -0.7829  1.3698
 8364TIP3    H246584   0.883   5.180   0.779  0.1543 -1.1717  0.8898
 8365TIP3   OH246585   3.129   0.822  13.783  0.0967  0.1737  0.3765
 8365TIP3    H146586   3.039   0.804  13.809 -0.2761  3.0369  1.2701
 8365TIP3    H246587   3.128   0.816  13.688 -0.8380 -0.6039  0.4217
 8366TIP3   OH246588   5.824   3.132  15.166  0.6568 -0.2016  0.5143
 8366TIP3    H146589   5.740   3.143  15.122  0.7607 -2.0124 -0.1934
 8366TIP3    H246590   5.888   3.170  15.105  0.6507 -1.4554 -0.3002
 8367TIP3   OH246591   4.364   0.001   6.392 -0.3948 -0.3522  0.3443
 8367TIP3    H146592   4.415   0.056   6.332 -1.1316  0.2834  0.3019
 8367TIP3    H246593   4.303   0.061   6.434  2.2144 -0.1852  4.1291
 8368TIP3   OH246594   3.879   0.185  13.789 -0.3330  0.6026 -0.1821
 8368TIP3    H146595   3.852   0.262  13.739 -2.0761  1.2093  1.6448
 8368TIP3    H246596   3.829   0.190  13.870  0.8928 -1.4902  0.7443
 8369TIP3   OH246597   3.087   5.601   4.530  0.4287  0.0025 -0.1803
 8369TIP3    H146598   3.051   5.562   4.451 -2.1372  0.3254  0.7849
 8369TIP3    H246599   3.077   5.695   4.518  1.0619  0.1077  0.0684
 8370TIP3   OH246600   2.133   1.719   0.930 -0.2589  0.0334  0.2420
 8370TIP3    H146601   2.186   1.728   0.850 -1.5450 -0.0411 -0.6397
 8370TIP3    H246602   2.102   1.628   0.928 -1.8459  0.5617 -0.1900
 8371TIP3   OH246603   6.311   1.832  13.755 -0.5731 -0.4575 -0.2100
 8371TIP3    H146604   6.221   1.817  13.725 -0.9242  1.0126  0.0819
 8371TIP3    H246605   6.364   1.826  13.675 -1.0643 -0.2028 -0.5589
 8372TIP3   OH246606   3.780   2.015  15.022 -0.2274  0.5517 -0.5178
 8372TIP3    H146607   3.806   2.101  14.989 -0.8427  1.5762  1.5639
 8372TIP3    H246608   3.691   2.029  15.056 -0.3020 -0.8817 -0.1166
 8373TIP3   OH246609   1.252   3.052  11.096  0.4168  0.4425 -0.0271
 8373TIP3    H146610   1.190   3.121  11.074  0.5426  0.0345 -1.7181
 8373TIP3    H246611   1.234   3.033  11.189 -0.4380  1.8777  0.1240
 8374TIP3   OH246612   6.011   3.028   2.377  0.1286  0.6248 -0.3339
 8374TIP3    H146613   5.926   3.063   2.350 -1.3877 -2.7525 -0.1736
 8374TIP3    H246614   6.058   3.015   2.295 -0.1651  0.9325 -0.5531
 8375TIP3   OH246615   6.035   5.088   5.884 -0.3747  0.0593 -0.3884
 8375TIP3    H146616   6.000   5.156   5.942 -1.1071 -0.6270 -0.0012
 8375TIP3    H246617   6.040   5.010   5.939 -0.6131 -0.4804 -1.1194
 8376TIP3   OH246618   1.223   5.724  13.697 -0.6420  0.1867 -0.1083
 8376TIP3    H146619   1.165   5.719  13.621 -0.7119 -0.4502 -0.0158
 8376TIP3    H246620   1.196   5.803  13.743  0.4391  1.4460 -1.5934
 8377TIP3   OH246621   4.271   0.005  12.685  0.1712  0.4522  0.3779
 8377TIP3    H146622   4.289   0.061  12.609 -3.1086 -0.4903 -1.1724
 8377TIP3    H246623   4.216   0.058  12.742 -0.7524 -0.2452  0.1516
 8378TIP3   OH246624   5.589   0.089   0.154 -0.7248 -0.1305 -0.2137
 8378TIP3    H146625   5.599   0.183   0.140 -0.1395  0.0791  1.4918
 8378TIP3    H246626   5.662   0.066   0.212 -0.9558 -1.6081 -0.4904
 8379TIP3   OH246627   4.356   1.928   1.405 -0.0971 -0.0266 -0.9285
 8379TIP3    H146628   4.270   1.942   1.366 -0.5894  0.5569  0.3091
 8379TIP3    H246629   4.372   2.007   1.456  0.9035 -0.3934 -0.6609
 8380TIP3   OH246630   4.117   5.198   5.436  0.2113  0.5571 -0.1655
 8380TIP3    H146631   4.160   5.269   5.483 -1.1692  0.7875  0.7647
 8380TIP3    H246632   4.157   5.118   5.473  0.6969  0.7989 -0.1597
 8381TIP3   OH246633   1.845   6.522  13.582 -0.0444  0.6084  0.0908
 8381TIP3    H146634   1.892   6.463  13.642 -0.1496  1.2054  0.7681
 8381TIP3    H246635   1.877   6.498  13.495  0.3393 -0.0601  0.4127
 8382TIP3   OH246636   6.593   1.697  12.004 -0.3102  0.0259  0.6086
 8382TIP3    H146637   6.674   1.733  11.967 -0.1082 -0.2385  0.7921
 8382TIP3    H246638   6.527   1.764  11.985 -0.4578 -0.6426 -1.2645
 8383TIP3   OH246639   2.940   0.492   4.622  0.1453  0.5321 -0.4079
 8383TIP3    H146640   2.879   0.557   4.587  2.0631  2.1509 -0.8221
 8383TIP3    H246641   2.913   0.409   4.582 -0.9124  1.4536 -1.6336
 8384TIP3   OH246642   3.820   2.988   4.595 -0.0752  0.3560  0.0127
 8384TIP3    H146643   3.883   2.936   4.645  0.3149  0.3678 -0.4681
 8384TIP3    H246644   3.771   2.923   4.544  1.2997  0.5542 -1.6014
 8385TIP3   OH246645   2.649   4.484   1.583  0.6115  0.6970 -0.4073
 8385TIP3    H146646   2.658   4.475   1.677  1.5389 -0.6149 -0.5973
 8385TIP3    H246647   2.668   4.575   1.564 -2.5613  1.7323  0.9822
 8386TIP3   OH246648   4.421   3.984  16.223  0.3312 -0.2835 -0.7924
 8386TIP3    H146649   4.512   3.992  16.254 -0.0543  0.6242  0.1203
 8386TIP3    H246650   4.388   3.907  16.269 -0.0938  0.7871  0.7568
 8387TIP3   OH246651   3.515   5.699  11.363  0.0240 -0.2982 -0.2665
 8387TIP3    H146652   3.422   5.677  11.365 -0.2675  0.6580 -2.4424
 8387TIP3    H246653   3.552   5.641  11.297  0.4582  1.2106 -1.3675
 8388TIP3   OH246654   5.409   4.019   4.133 -0.0814 -0.6846  0.3236
 8388TIP3    H146655   5.360   3.972   4.201 -1.4773  1.2971  0.7424
 8388TIP3    H246656   5.492   4.042   4.174 -0.8946  0.4562  1.3802
 8389TIP3   OH246657   1.705   6.398  14.347  0.1274  0.5817  0.4483
 8389TIP3    H146658   1.664   6.340  14.411  1.2658 -1.3463 -0.5182
 8389TIP3    H246659   1.785   6.428  14.389 -1.2850  2.8129  1.5928
 8390TIP3   OH246660   3.773   1.883  14.179 -0.1417  0.1287 -0.4601
 8390TIP3    H146661   3.731   1.912  14.098 -0.5368  0.2772 -0.2027
 8390TIP3    H246662   3.863   1.916  14.172 -0.6191  1.4890 -0.1252
 8391TIP3   OH246663   3.500   1.298  14.255 -0.6274 -0.2803  0.0746
 8391TIP3    H146664   3.452   1.316  14.335  0.4842 -1.7212  1.0984
 8391TIP3    H246665   3.555   1.223  14.276  0.9695  0.3926 -1.5149
 8392TIP3   OH246666   0.561   3.390   0.161  0.2834  0.2002 -0.3239
 8392TIP3    H146667   0.478   3.431   0.189  0.5855  0.4339  0.2380
 8392TIP3    H246668   0.560   3.399   0.066  0.0614  0.9902 -0.2573
 8393TIP3   OH246669   6.778   1.510   6.326 -0.4573 -0.1362  0.3981
 8393TIP3    H146670   6.858   1.458   6.313 -0.4376 -0.3072  1.2091
 8393TIP3    H246671   6.724   1.456   6.383 -0.4724  0.7097  1.1780
 8394TIP3   OH246672   3.761   2.232  13.028  0.4468  0.3446 -0.1534
 8394TIP3    H146673   3.693   2.168  13.005  0.0554  0.4831  0.5838
 8394TIP3    H246674   3.780   2.213  13.120  1.5846  0.1534 -0.4284
 8395TIP3   OH246675   6.237   5.207  16.342  0.3718 -0.4834  0.1272
 8395TIP3    H146676   6.162   5.195  16.401  0.3201  0.1537  0.1900
 8395TIP3    H246677   6.295   5.134  16.363  0.0556 -0.6246  0.5208
 8396TIP3   OH246678   5.366   4.359   2.920  0.0153  0.8417 -0.0466
 8396TIP3    H146679   5.347   4.265   2.916 -0.9294  1.0895 -2.6315
 8396TIP3    H246680   5.461   4.365   2.907  0.2348  0.2035  1.2022
 8397TIP3   OH246681   1.250   0.713  13.378  0.2302 -0.2535 -0.8390
 8397TIP3    H146682   1.256   0.799  13.421  0.4764  0.7024 -2.7451
 8397TIP3    H246683   1.252   0.733  13.284 -1.3527 -2.2276 -1.3190
 8398TIP3   OH246684   6.553   0.542   1.603  0.7254  0.2804  0.9227
 8398TIP3    H146685   6.501   0.619   1.579 -2.0686 -1.4725  1.0722
 8398TIP3    H246686   6.607   0.524   1.527  0.6783  1.7950  0.5164
 8399TIP3   OH246687   0.568   5.798   5.093 -0.6574  0.3991  0.4833
 8399TIP3    H146688   0.483   5.763   5.118 -1.3931  1.1223 -0.9363
 8399TIP3    H246689   0.571   5.885   5.133 -2.7450  2.4589 -3.4960
 8400TIP3   OH246690   4.725   3.952   5.846 -0.4882 -0.4840 -0.2740
 8400TIP3    H146691   4.722   3.964   5.941 -1.3891 -1.1325 -0.2126
 8400TIP3    H246692   4.818   3.939   5.827 -0.2782 -0.1456  0.4967
 8401TIP3   OH246693   2.753   1.247   0.083 -0.2062  0.2329 -0.5208
 8401TIP3    H146694   2.686   1.230   0.149 -1.3044  0.6934 -1.4922
 8401TIP3    H246695   2.739   1.178   0.017 -0.7054  1.2035 -1.4548
 8402TIP3   OH246696   0.030   0.979  16.508  0.1960 -0.1571 -0.0060
 8402TIP3    H146697   0.125   0.988  16.515  0.4469 -1.6855 -1.2416
 8402TIP3    H246698   0.012   0.890  16.540 -0.5794 -0.6240 -1.6778
 8403TIP3   OH246699   6.547   4.686   3.356  0.3039  0.0296 -0.1400
 8403TIP3    H146700   6.515   4.739   3.429 -0.5749 -0.1173 -0.4199
 8403TIP3    H246701   6.594   4.748   3.300 -0.3678  0.4400 -0.2518
 8404TIP3   OH246702   5.480   0.641  13.511  0.0962  0.0418  0.4016
 8404TIP3    H146703   5.532   0.654  13.591  2.4752 -0.3995 -1.0065
 8404TIP3    H246704   5.470   0.546  13.505  2.5628 -0.1577 -1.3751
 8405TIP3   OH246705   2.128   4.778  15.290  0.3239 -0.1810 -0.2006
 8405TIP3    H146706   2.068   4.824  15.349  1.1929  2.4726 -1.3079
 8405TIP3    H246707   2.119   4.824  15.207  2.8122 -0.6431 -0.7661
 8406TIP3   OH246708   3.775   1.336   1.511 -0.1207 -0.3841  0.3158
 8406TIP3    H146709   3.860   1.292   1.518 -0.4989 -2.0043 -4.0128
 8406TIP3    H246710   3.796   1.424   1.482  0.1531 -0.1518  1.1838
 8407TIP3   OH246711   4.666   1.876   1.578 -0.1710 -0.7952 -0.7369
 8407TIP3    H146712   4.604   1.807   1.601 -0.0713 -0.5035  0.4811
 8407TIP3    H246713   4.627   1.956   1.614 -0.2685 -0.2173 -2.1029
 8408TIP3   OH246714   2.564   0.002  15.543  0.2681 -0.3691  0.2924
 8408TIP3    H146715   2.624   0.061  15.588 -0.7983 -0.8771  2.4567
 8408TIP3    H246716   2.513   0.058  15.485  1.6376  0.3055 -0.2654
 8409TIP3   OH246717   3.660   0.068   1.975 -0.0499  0.0850 -0.1225
 8409TIP3    H146718   3.675   0.157   1.943 -0.0150  0.0388 -0.2354
 8409TIP3    H246719   3.720   0.058   2.048  1.4467 -0.5674 -1.4177
 8410TIP3   OH246720   5.435   3.820  14.184  0.6584  0.1837  0.0354
 8410TIP3    H146721   5.424   3.875  14.106  0.7287  1.7603  1.1087
 8410TIP3    H246722   5.518   3.775  14.169  1.0769  1.0876 -0.4420
 8411TIP3   OH246723   4.300   0.304  16.922  0.5939  0.1753  0.1314
 8411TIP3    H146724   4.327   0.220  16.885 -3.3568 -1.9257  1.6224
 8411TIP3    H246725   4.358   0.318  16.997  2.3897 -0.3245 -1.1397
 8412TIP3   OH246726   0.498   4.845  16.461 -0.2561  0.1077  0.6570
 8412TIP3    H146727   0.456   4.774  16.511 -0.2698  0.9487  1.8577
 8412TIP3    H246728   0.472   4.925  16.507  1.3769  0.7498  0.4924
 8413TIP3   OH246729   6.568   1.777  11.599 -0.3177  0.1031 -0.1357
 8413TIP3    H146730   6.493   1.827  11.568  0.1804 -0.0683 -1.6499
 8413TIP3    H246731   6.643   1.818  11.556  0.3373 -0.4917  0.4268
 8414TIP3   OH246732   4.587   4.113  17.250 -0.4135 -0.4883  0.2521
 8414TIP3    H146733   4.577   4.021  17.275  1.7315 -0.1471  2.6247
 8414TIP3    H246734   4.535   4.161  17.316  2.4010  0.2349  2.0214
 8415TIP3   OH246735   5.191   4.487  12.243 -0.4080 -0.1718 -0.7095
 8415TIP3    H146736   5.097   4.492  12.229 -0.6815 -0.4220  0.8635
 8415TIP3    H246737   5.229   4.483  12.156 -1.9424 -1.5967 -1.3313
 8416TIP3   OH246738   1.051   0.707   1.794 -0.1789  0.3261 -0.1248
 8416TIP3    H146739   1.061   0.694   1.699 -1.8067 -0.0868 -0.2449
 8416TIP3    H246740   1.098   0.633   1.833  2.0740  1.4701 -0.5378
 8417TIP3   OH246741   5.067   4.953  11.067 -0.1239  0.9707 -0.7224
 8417TIP3    H146742   5.132   5.005  11.020  0.6183  0.5459 -0.1869
 8417TIP3    H246743   4.994   5.013  11.082  0.3888  1.6240 -0.8135
 8418TIP3   OH246744   5.560   4.649  11.952  0.3376  0.1866 -0.0256
 8418TIP3    H146745   5.576   4.671  11.860 -0.7350  0.0599 -0.2488
 8418TIP3    H246746   5.466   4.633  11.957  0.6018 -1.2528  0.7918
 8419TIP3   OH246747   1.991   5.223   5.618 -0.4308 -0.6541 -0.2575
 8419TIP3    H146748   1.946   5.212   5.535 -2.4211  2.6247  0.2965
 8419TIP3    H246749   1.946   5.296   5.660 -0.6615 -3.3584  4.5391
 8420TIP3   OH246750   6.051   2.235   3.383  0.0397 -0.0002 -0.4532
 8420TIP3    H146751   6.022   2.241   3.474 -0.2957  0.7813 -0.6063
 8420TIP3    H246752   6.108   2.159   3.381 -0.3598 -0.3245  0.3026
 8421TIP3   OH246753   3.280   6.300   1.815 -0.4365 -0.4704 -0.2622
 8421TIP3    H146754   3.231   6.278   1.895 -1.7431  0.9947 -0.6213
 8421TIP3    H246755   3.365   6.330   1.847 -1.3709  1.2594  0.6950
 8422TIP3   OH246756   1.547   6.358   0.694 -0.1683  0.0744 -0.2788
 8422TIP3    H146757   1.486   6.285   0.694  0.0265 -0.0955  0.4354
 8422TIP3    H246758   1.559   6.380   0.602  1.6691 -2.3880 -0.6644
 8423TIP3   OH246759   3.483   5.144  13.597  0.3303  0.0161 -0.5603
 8423TIP3    H146760   3.512   5.233  13.617 -1.5950  0.3392  0.9088
 8423TIP3    H246761   3.557   5.088  13.622  0.8237  1.0344  0.2783
 8424TIP3   OH246762   5.106   2.416   5.295 -0.3352  0.1841  0.3770
 8424TIP3    H146763   5.201   2.425   5.284 -0.2288 -0.3213  0.8479
 8424TIP3    H246764   5.092   2.322   5.308 -1.0485  0.0699 -1.0616
 8425TIP3   OH246765   1.767   3.274  14.918  0.2826 -0.1155  0.3520
 8425TIP3    H146766   1.676   3.246  14.916  0.1069  0.4733 -0.0247
 8425TIP3    H246767   1.817   3.193  14.929 -0.1909 -0.6256 -1.0755
 8426TIP3   OH246768   0.939   5.292  10.619  0.0597 -0.1122  0.3391
 8426TIP3    H146769   0.864   5.235  10.605 -0.0148  0.2643 -0.8359
 8426TIP3    H246770   0.979   5.302  10.533  0.3460  1.2267  0.6067
 8427TIP3   OH246771   0.731   5.436  14.714 -0.3157 -0.3087 -0.5025
 8427TIP3    H146772   0.735   5.436  14.619 -0.5129  0.0805 -0.5115
 8427TIP3    H246773   0.693   5.351  14.736  1.3362 -1.1217 -0.6923
 8428TIP3   OH246774   1.703   5.308   2.344 -0.0107  0.0122 -0.3737
 8428TIP3    H146775   1.759   5.301   2.421  0.3689 -0.8709 -0.7271
 8428TIP3    H246776   1.707   5.401   2.319  1.1243 -0.0137 -0.2857
 8429TIP3   OH246777   2.687   6.165   2.365 -0.3260  0.0210  0.6583
 8429TIP3    H146778   2.687   6.221   2.287  1.4913 -0.1006  0.5557
 8429TIP3    H246779   2.647   6.084   2.336 -0.5209  0.3160  0.0911
 8430TIP3   OH246780   4.560   3.590   2.899  0.3146 -0.4903 -0.5421
 8430TIP3    H146781   4.517   3.524   2.845  0.6475  0.6745 -2.2933
 8430TIP3    H246782   4.634   3.545   2.939  0.0216 -1.4013 -1.0224
 8431TIP3   OH246783   1.981   2.920  13.065  0.8074 -0.5830 -0.5873
 8431TIP3    H146784   1.941   2.850  13.014 -1.0842  1.1287 -1.5228
 8431TIP3    H246785   1.938   2.916  13.150  1.5466 -1.2648 -0.2281
 8432TIP3   OH246786   0.152   4.903  16.965  0.3655 -0.0894 -0.1102
 8432TIP3    H146787   0.094   4.850  16.909  0.2899  0.0230 -0.1360
 8432TIP3    H246788   0.236   4.901  16.921  0.3879 -0.2663 -0.0616
 8433TIP3   OH246789   1.167   5.024   0.456  0.1408  0.6763 -0.6885
 8433TIP3    H146790   1.170   5.056   0.546  0.3413 -1.1821  0.0006
 8433TIP3    H246791   1.200   4.934   0.462  0.2170  0.5575 -2.6320
 8434TIP3   OH246792   0.735   1.797  12.486  0.0786 -0.1877  0.2473
 8434TIP3    H146793   0.683   1.718  12.471  0.0767 -0.1741  0.1812
 8434TIP3    H246794   0.825   1.766  12.489  0.0688 -0.2093  0.3464
 8435TIP3   OH246795   4.632   5.883   4.334 -0.0856 -0.2418  0.2072
 8435TIP3    H146796   4.598   5.920   4.252 -0.3384 -0.1991  0.3328
 8435TIP3    H246797   4.717   5.925   4.345 -0.4008  0.3579  0.3862
 8436TIP3   OH246798   2.965   1.322  14.358 -0.8148  0.3263 -0.5531
 8436TIP3    H146799   2.897   1.380  14.392 -0.5621  0.6481 -0.6030
 8436TIP3    H246800   2.941   1.235  14.392 -1.0443  0.5032 -0.2627
 8437TIP3   OH246801   1.142   3.928   3.436 -0.1482  0.1149  0.2889
 8437TIP3    H146802   1.176   3.963   3.353 -0.4394  0.5129  0.3340
 8437TIP3    H246803   1.071   3.870   3.410  0.2872 -0.3863  0.2174
 8438TIP3   OH246804   5.928   0.373  16.229 -0.0693 -0.1834  0.6308
 8438TIP3    H146805   5.992   0.304  16.212 -1.4938 -0.8516 -2.4021
 8438TIP3    H246806   5.900   0.359  16.320  2.5373 -1.1191  1.3198
 8439TIP3   OH246807   2.036   1.044   3.271  0.3792 -0.0258  0.1044
 8439TIP3    H146808   1.948   1.016   3.299  0.4411 -0.8791 -0.5245
 8439TIP3    H246809   2.053   1.124   3.321 -0.5898 -0.0821  0.5365
 8440TIP3   OH246810   2.067   5.657   1.474 -0.3569  0.5843 -0.7499
 8440TIP3    H146811   2.135   5.659   1.407 -0.7203 -0.9258 -1.1848
 8440TIP3    H246812   1.989   5.624   1.428 -0.4635 -1.0008  0.5262
 8441TIP3   OH246813   6.102   1.069   4.346 -0.0582 -0.0179 -0.1823
 8441TIP3    H146814   6.152   1.040   4.423 -1.0937  0.2437  0.6066
 8441TIP3    H246815   6.051   0.992   4.320 -0.2354  0.0987 -0.1801
 8442TIP3   OH246816   6.138   6.246   2.158 -0.8938 -0.0102 -0.7472
 8442TIP3    H146817   6.212   6.184   2.155 -1.0116 -0.2303  0.5729
 8442TIP3    H246818   6.167   6.320   2.105 -0.3054 -0.7220 -1.4395
 8443TIP3   OH246819   3.664   2.274   5.205  0.4325  0.0196 -0.1831
 8443TIP3    H146820   3.591   2.325   5.170  1.5641  1.5535 -0.3926
 8443TIP3    H246821   3.665   2.295   5.299 -0.2175 -1.0647  0.0756
 8444TIP3   OH246822   2.578   5.309  12.428 -0.1376 -0.4724  0.1637
 8444TIP3    H146823   2.641   5.290  12.498  2.9279 -1.9906 -2.8766
 8444TIP3    H246824   2.593   5.401  12.406  1.1128 -0.8558 -0.6166
 8445TIP3   OH246825   6.535   3.125  15.430  0.7031  0.2034  0.3211
 8445TIP3    H146826   6.538   3.204  15.376 -0.5888 -0.5441 -0.8807
 8445TIP3    H246827   6.524   3.158  15.520  2.6455  1.4411  0.1310
 8446TIP3   OH246828   6.636   3.946   1.482  0.3865 -0.7459  0.3918
 8446TIP3    H146829   6.613   3.865   1.436 -1.6571  0.4245 -0.7453
 8446TIP3    H246830   6.697   3.990   1.423 -2.6584  1.0118 -1.5635
 8447TIP3   OH246831   6.355   2.728  16.643 -0.3600 -0.2651 -0.9215
 8447TIP3    H146832   6.432   2.704  16.592  1.0013 -1.0115  1.4604
 8447TIP3    H246833   6.319   2.644  16.673 -0.2774  0.2378  0.6052
 8448TIP3   OH246834   6.606   5.041   0.573  0.7839  0.5491  0.7646
 8448TIP3    H146835   6.620   5.136   0.570  0.4431  0.7366  3.4916
 8448TIP3    H246836   6.566   5.026   0.659  1.2233 -2.1208  0.5322
 8449TIP3   OH246837   2.415   5.398   2.150  0.4969  0.3727  0.3166
 8449TIP3    H146838   2.510   5.390   2.139  0.4621 -1.0299  0.8621
 8449TIP3    H246839   2.389   5.316   2.193 -1.0342  0.5094 -0.3166
 8450TIP3   OH246840   2.960   0.241  12.385 -0.6344 -0.5865  0.0867
 8450TIP3    H146841   2.915   0.165  12.349 -1.4095  0.5594 -1.4480
 8450TIP3    H246842   3.030   0.259  12.323 -2.2337  1.6553 -1.1580
 8451TIP3   OH246843   2.109   0.137   1.008 -0.1891  0.1201  0.2050
 8451TIP3    H146844   2.065   0.053   1.023  1.4393 -0.8112 -0.0746
 8451TIP3    H246845   2.164   0.149   1.086 -2.4038  2.2688  1.5121
 8452TIP3   OH246846   3.874   1.898  12.505 -0.1070 -0.5741 -0.3530
 8452TIP3    H146847   3.799   1.957  12.492  0.0029 -0.3429  0.0330
 8452TIP3    H246848   3.950   1.955  12.494 -0.0075 -0.2725  1.6256
 8453TIP3   OH246849   3.779   2.209  17.082 -0.3210  0.3420  0.0189
 8453TIP3    H146850   3.684   2.200  17.079 -0.6485  3.3408 -0.8895
 8453TIP3    H246851   3.796   2.254  17.165  0.0313  2.0786 -0.9650
 8454TIP3   OH246852   2.848   1.380  12.541  0.0392 -0.0531  0.2240
 8454TIP3    H146853   2.910   1.429  12.597  0.3395 -2.1932  1.8292
 8454TIP3    H246854   2.904   1.331  12.481 -0.1919 -0.0091 -0.0253
 8455TIP3   OH246855   1.095   5.344   5.568  0.0773  0.4295 -0.0617
 8455TIP3    H146856   1.177   5.295   5.568  0.2628  0.6200  2.8634
 8455TIP3    H246857   1.091   5.385   5.482  1.8946 -1.4669 -1.0947
 8456TIP3   OH246858   2.216   6.624  14.910  0.7083 -0.4431  0.1409
 8456TIP3    H146859   2.218   6.629  14.814 -0.6711  0.2763  0.1317
 8456TIP3    H246860   2.228   6.715  14.939  3.3498 -0.9602  0.7113
 8457TIP3   OH246861   5.742   6.313   1.498  0.0799  1.1773 -0.3613
 8457TIP3    H146862   5.658   6.334   1.457 -1.1481  0.1143  1.5654
 8457TIP3    H246863   5.794   6.275   1.428 -2.1269 -0.9985 -0.8649
 8458TIP3   OH246864   4.141   0.648   1.348 -0.0117  0.4271  0.2289
 8458TIP3    H146865   4.194   0.676   1.422 -0.7993 -1.5215  1.5710
 8458TIP3    H246866   4.051   0.665   1.374 -0.1299  4.0420 -2.1831
 8459TIP3   OH246867   4.940   6.151  11.029 -0.2631 -0.1095 -0.1896
 8459TIP3    H146868   5.019   6.110  10.993 -1.1903 -1.2903 -0.8859
 8459TIP3    H246869   4.922   6.223  10.970 -1.6617 -1.9174 -2.0094
 8460TIP3   OH246870   5.404   5.871  12.574  0.2693 -0.5868  0.0372
 8460TIP3    H146871   5.448   5.803  12.625  1.0151  2.0294  3.0787
 8460TIP3    H246872   5.475   5.916  12.528  0.2459  0.5219  1.0605
 8461TIP3   OH246873   1.208   1.004   3.426  0.1346  0.2512  0.0284
 8461TIP3    H146874   1.282   0.943   3.420  0.0073  0.1187 -0.2184
 8461TIP3    H246875   1.236   1.079   3.374  0.7962  0.9276  1.3509
 8462TIP3   OH246876   0.558   0.171  13.614 -0.2946 -0.3661  0.1460
 8462TIP3    H146877   0.477   0.119  13.616 -1.5682  1.5024 -0.6245
 8462TIP3    H246878   0.603   0.144  13.535  0.4779 -2.3347  1.2391
 8463TIP3   OH246879   4.495   5.079   4.750 -0.0268 -0.0535  0.5183
 8463TIP3    H146880   4.543   5.018   4.694 -2.1728 -2.1925  0.9551
 8463TIP3    H246881   4.456   5.141   4.689  0.1507 -0.5603 -0.1170
 8464TIP3   OH246882   1.643   1.785   5.637 -0.2652 -0.1829 -0.5370
 8464TIP3    H146883   1.639   1.701   5.591  0.5985 -0.7663  0.4364
 8464TIP3    H246884   1.729   1.786   5.679  0.1193  1.6127 -1.3225
 8465TIP3   OH246885   3.415   3.199   4.654  0.2898 -0.1893 -0.2791
 8465TIP3    H146886   3.366   3.130   4.700 -1.5212  1.5351  0.4366
 8465TIP3    H246887   3.455   3.251   4.724 -1.0809  1.4435 -0.6774
 8466TIP3   OH246888   0.308   4.082   3.492  0.2427 -0.2924  0.3710
 8466TIP3    H146889   0.404   4.088   3.495  0.1098  1.8542  1.6543
 8466TIP3    H246890   0.282   4.078   3.584 -0.9550  0.4494  0.0803
 8467TIP3   OH246891   2.815   3.683   4.066  0.4993 -0.2195  0.3278
 8467TIP3    H146892   2.870   3.655   3.993  1.7827 -1.4902  1.7668
 8467TIP3    H246893   2.861   3.654   4.144 -0.8888  1.0757  1.6677
 8468TIP3   OH246894   6.060   0.447   1.969 -0.0825 -0.3010 -0.0438
 8468TIP3    H146895   5.967   0.423   1.969 -0.3541  0.6252 -2.1575
 8468TIP3    H246896   6.062   0.534   1.929  1.9687 -1.5895 -2.9332
 8469TIP3   OH246897   2.229   6.695  17.123  0.1305  0.5156  0.0001
 8469TIP3    H146898   2.237   6.660  17.035 -0.9268  1.5916 -0.5396
 8469TIP3    H246899   2.238   6.790  17.113  0.9076  0.5824  1.1664
 8470TIP3   OH246900   2.552   3.501   1.526  0.0936  0.0560  0.0470
 8470TIP3    H146901   2.558   3.442   1.451 -0.3518  0.3772 -0.2404
 8470TIP3    H246902   2.471   3.549   1.513  0.4525  0.7370  0.2737
 8471TIP3   OH246903   5.831   6.519  15.043 -0.4958 -0.2798 -0.2976
 8471TIP3    H146904   5.838   6.589  14.978  1.4097 -0.0120  0.1620
 8471TIP3    H246905   5.796   6.444  14.994  0.2133  0.1410 -1.4548
 8472TIP3   OH246906   5.475   4.708  13.973 -0.0599 -0.3048  0.1756
 8472TIP3    H146907   5.439   4.646  14.036  0.5211 -0.6225  0.1913
 8472TIP3    H246908   5.498   4.785  14.026 -0.8051 -0.0524  0.1509
 8473TIP3   OH246909   4.118   5.458   4.189 -0.3763  0.6349  0.8775
 8473TIP3    H146910   4.070   5.489   4.266 -0.2638 -0.5462  1.4341
 8473TIP3    H246911   4.053   5.453   4.120 -0.4028  2.0714  0.7804
 8474TIP3   OH246912   0.858   4.142  15.132 -0.1458 -0.1716 -0.0727
 8474TIP3    H146913   0.925   4.209  15.121 -1.0666  0.7612 -0.0895
 8474TIP3    H246914   0.881   4.097  15.213  0.9148 -0.3487 -0.4679
 8475TIP3   OH246915   4.134   0.419   0.343 -0.3090 -0.4672  0.3781
 8475TIP3    H146916   4.222   0.452   0.325 -0.9179  1.5184  1.0046
 8475TIP3    H246917   4.116   0.444   0.433 -1.8478 -0.0905 -0.0152
 8476TIP3   OH246918   0.979   2.104   2.314  0.1190  0.1956 -0.4530
 8476TIP3    H146919   1.052   2.054   2.276  0.1554 -0.7101  0.7816
 8476TIP3    H246920   0.902   2.076   2.264  0.7865  2.1135 -2.6267
 8477TIP3   OH246921   3.885   4.463  11.982  0.2669  0.5411  0.8566
 8477TIP3    H146922   3.883   4.454  11.887 -0.7925  0.2112  0.9069
 8477TIP3    H246923   3.823   4.533  12.002 -0.7805 -0.5309  1.4219
 8478TIP3   OH246924   3.975   3.009   6.031 -0.0854  0.0728  0.6301
 8478TIP3    H146925   3.915   3.018   6.105 -0.7901  3.0853 -0.1929
 8478TIP3    H246926   4.062   3.006   6.070 -0.3607  2.8063  1.6080
 8479TIP3   OH246927   6.191   1.996  12.575 -0.3130  0.1665 -0.2624
 8479TIP3    H146928   6.121   2.023  12.634  0.2680 -0.0853  0.5575
 8479TIP3    H246929   6.207   2.073  12.520  0.3911  1.0629  1.1458
 8480TIP3   OH246930   0.931   0.882  11.494 -0.2053  0.6579  0.2437
 8480TIP3    H146931   0.850   0.835  11.474 -1.2763  1.7085  1.9612
 8480TIP3    H246932   0.979   0.823  11.552  0.7892 -0.4200 -1.6158
 8481TIP3   OH246933   6.039   6.679  12.325 -0.2047 -0.1245  0.5415
 8481TIP3    H146934   6.055   6.653  12.416  1.3582 -0.7876  0.0850
 8481TIP3    H246935   6.121   6.661  12.280 -0.5872  1.3154 -0.7663
 8482TIP3   OH246936   5.359   1.450   0.087 -0.3370 -0.0060  0.2881
 8482TIP3    H146937   5.334   1.541   0.072 -1.0347 -0.0167  1.3829
 8482TIP3    H246938   5.377   1.445   0.181  0.3704 -0.8408  0.1168
 8483TIP3   OH246939   3.842   5.796   1.989 -0.2531 -0.0712  0.1774
 8483TIP3    H146940   3.932   5.799   2.021 -0.3878 -0.2708  0.5852
 8483TIP3    H246941   3.793   5.755   2.061 -0.6901  0.1642  0.0130
 8484TIP3   OH246942   5.241   5.573   4.974  0.2783  0.0237 -0.1796
 8484TIP3    H146943   5.298   5.527   5.035 -0.8778 -1.3713 -0.1163
 8484TIP3    H246944   5.202   5.504   4.921 -0.3841  1.0526 -1.0519
 8485TIP3   OH246945   1.996   3.156  14.797  0.0155  0.4280 -0.0802
 8485TIP3    H146946   1.924   3.116  14.750  2.2510 -2.2302 -1.3271
 8485TIP3    H246947   2.057   3.186  14.729  0.7834  1.3298  0.9740
 8486TIP3   OH246948   4.794   0.454  10.487  0.3556  0.4766  0.0691
 8486TIP3    H146949   4.743   0.535  10.477  0.9627  0.7814 -0.6374
 8486TIP3    H246950   4.728   0.386  10.500 -0.1058  1.2571  1.9775
 8487TIP3   OH246951   0.645   6.415  12.223 -0.0714  0.3801 -0.1540
 8487TIP3    H146952   0.601   6.480  12.168  2.6129 -0.4847 -3.4808
 8487TIP3    H246953   0.615   6.331  12.189  1.6735 -0.1692 -0.3501
 8488TIP3   OH246954   3.931   1.108   3.733  0.0591  0.3291  0.1433
 8488TIP3    H146955   3.881   1.151   3.802 -1.1618  0.9914 -1.1295
 8488TIP3    H246956   3.964   1.029   3.774 -1.7699  0.0312  1.1164
 8489TIP3   OH246957   1.002   5.753   1.340  0.4631 -0.0237  0.6565
 8489TIP3    H146958   1.033   5.664   1.355 -0.7642 -0.6487 -0.4231
 8489TIP3    H246959   0.909   5.750   1.359  0.7006  1.4415  2.2244
 8490TIP3   OH246960   5.986   1.106   3.005  0.4512 -0.2083  0.5546
 8490TIP3    H146961   6.027   1.184   3.043 -0.5452  0.5025  0.1972
 8490TIP3    H246962   5.912   1.087   3.062  0.3332 -0.5293  0.2953
 8491TIP3   OH246963   5.949   3.933  15.948  0.0732 -0.5161 -0.1386
 8491TIP3    H146964   5.954   3.850  15.996 -1.8070 -0.2799  0.5115
 8491TIP3    H246965   5.955   4.000  16.016 -0.4694 -0.1622 -0.4358
 8492TIP3   OH246966   5.494   3.131  12.115  0.3249  0.0540 -0.1661
 8492TIP3    H146967   5.548   3.052  12.124  0.5478  0.4865  2.8053
 8492TIP3    H246968   5.524   3.171  12.033 -0.8773 -3.7218 -2.5815
 8493TIP3   OH246969   1.037   2.666  11.901 -0.3625 -0.0976 -0.3939
 8493TIP3    H146970   1.121   2.679  11.945 -1.0251 -1.8658  1.4522
 8493TIP3    H246971   1.016   2.752  11.864  1.5462  0.7277  0.3860
 8494TIP3   OH246972   6.745   5.659  16.127  0.0031  0.0232  0.4642
 8494TIP3    H146973   6.837   5.676  16.106 -0.1722 -0.7266 -1.0016
 8494TIP3    H246974   6.741   5.565  16.145 -0.8703 -0.4337 -1.8669
 8495TIP3   OH246975   5.960   5.517  14.456  0.1613 -0.2092 -0.1708
 8495TIP3    H146976   5.922   5.546  14.374  0.6492  0.2495 -0.2364
 8495TIP3    H246977   5.925   5.577  14.522  1.9530  1.1771 -0.4519
 8496TIP3   OH246978   3.545   3.497   0.263 -0.2680 -0.8509  0.2732
 8496TIP3    H146979   3.536   3.566   0.197 -2.2996  0.0623  1.4440
 8496TIP3    H246980   3.633   3.509   0.299 -0.5393  1.0685  0.3610
 8497TIP3   OH246981   3.982   0.867   2.240 -0.3896 -0.0544  0.3386
 8497TIP3    H146982   4.003   0.835   2.328 -1.6177  0.3215  0.7807
 8497TIP3    H246983   3.979   0.962   2.250  1.6239  0.1252 -0.6038
 8498TIP3   OH246984   4.760   4.896  11.908 -0.4844 -0.2193 -0.2969
 8498TIP3    H146985   4.716   4.886  11.992  1.0452  0.1071  0.5601
 8498TIP3    H246986   4.774   4.990  11.900 -0.7814 -0.2324 -1.0070
 8499TIP3   OH246987   3.191   4.127   3.627  0.9242  0.1536 -0.1454
 8499TIP3    H146988   3.272   4.156   3.668  0.1262 -0.0239  1.5933
 8499TIP3    H246989   3.121   4.167   3.679 -0.1082 -0.6009 -0.9196
 8500TIP3   OH246990   0.649   3.638  14.304  0.2211 -0.5025  0.5845
 8500TIP3    H146991   0.598   3.579  14.360 -2.3924  1.2908  0.2055
 8500TIP3    H246992   0.669   3.713  14.361 -1.3293  0.7409 -0.4736
 8501TIP3   OH246993   5.756   2.761   2.107 -0.0054  0.3484 -0.3616
 8501TIP3    H146994   5.800   2.781   2.189  0.0334  0.5819 -0.4400
 8501TIP3    H246995   5.663   2.758   2.129  0.1181 -1.1326  0.0095
 8502TIP3   OH246996   5.038   1.975  14.449 -0.2936  0.2943 -0.1300
 8502TIP3    H146997   5.091   1.896  14.439  0.6216  0.7423  1.0332
 8502TIP3    H246998   5.074   2.037  14.386  0.1057  0.3536  0.1541
 8503TIP3   OH246999   2.071   1.884   4.143 -0.1140 -0.4157  0.4430
 8503TIP3    H147000   2.043   1.859   4.231 -0.8940 -2.7184 -0.4237
 8503TIP3    H247001   2.078   1.980   4.146 -2.4091 -0.2717  2.3167
 8504TIP3   OH247002   5.021   2.437  16.648  0.0724 -0.7149  0.5944
 8504TIP3    H147003   5.075   2.383  16.591  0.2060  0.6932 -0.6685
 8504TIP3    H247004   5.081   2.504  16.682 -0.5147 -0.1273  0.4894
 8505TIP3   OH247005   2.585   1.755   6.399 -0.6085  0.5598 -0.0609
 8505TIP3    H147006   2.605   1.685   6.462  2.1834  1.1508 -0.2416
 8505TIP3    H247007   2.664   1.763   6.346 -1.5795  2.6092 -1.2527
 8506TIP3   OH247008   2.540   2.954   5.507  0.4826 -0.3303  0.2471
 8506TIP3    H147009   2.565   2.904   5.430  0.9981 -2.5483  1.7941
 8506TIP3    H247010   2.613   3.014   5.523 -0.5981  1.7363 -2.2239
 8507TIP3   OH247011   2.393   0.590   1.719 -0.4095 -0.8538  0.2747
 8507TIP3    H147012   2.477   0.599   1.674 -0.9518 -1.0362 -0.7899
 8507TIP3    H247013   2.341   0.664   1.686 -1.3627 -1.9278 -0.6406
 8508TIP3   OH247014   1.948   6.237   4.462 -0.2565  0.8124  0.2842
 8508TIP3    H147015   2.030   6.274   4.496  0.6050  0.4317 -1.3366
 8508TIP3    H247016   1.892   6.229   4.540  0.2719  3.5233  1.0059
 8509TIP3   OH247017   2.561   0.364  12.197  0.3264  0.3151 -0.1369
 8509TIP3    H147018   2.540   0.298  12.263 -1.2190  0.8834 -0.0529
 8509TIP3    H247019   2.630   0.324  12.144 -1.0791 -1.6506 -0.5226
 8510TIP3   OH247020   1.362   5.090  16.871  0.0203  0.3897  0.1504
 8510TIP3    H147021   1.390   5.009  16.828 -0.1178 -0.4339  1.5799
 8510TIP3    H247022   1.440   5.145  16.870  0.3404 -0.0606 -0.1344
 8511TIP3   OH247023   4.552   6.693  10.580  0.0200  0.1991 -0.1955
 8511TIP3    H147024   4.461   6.667  10.565  0.2323 -0.9282  0.4157
 8511TIP3    H247025   4.547   6.755  10.652 -0.0390 -1.8453  1.6345
 8512TIP3   OH247026   3.499   1.398  15.325  0.2471 -0.3856 -0.5712
 8512TIP3    H147027   3.458   1.459  15.386  3.1033 -0.7473  1.8525
 8512TIP3    H247028   3.566   1.451  15.281 -1.5917 -0.2098 -3.2171
 8513TIP3   OH247029   4.631   3.972   4.226  0.4001  0.1791  0.1611
 8513TIP3    H147030   4.676   3.994   4.144  0.1295  1.5675  0.3760
 8513TIP3    H247031   4.676   4.024   4.292 -0.7561  0.6934  0.5567
 8514TIP3   OH247032   0.758   4.439   3.750  0.5525  0.0135 -0.0259
 8514TIP3    H147033   0.672   4.480   3.742  0.1321 -0.8777 -0.0448
 8514TIP3    H247034   0.798   4.484   3.825 -0.0570  0.1963  0.1931
 8515TIP3   OH247035   1.172   0.275   4.642 -0.4407 -0.0853 -0.5957
 8515TIP3    H147036   1.157   0.331   4.718 -0.6600 -3.2315  1.7854
 8515TIP3    H247037   1.094   0.285   4.587 -1.0498  0.8980  0.4540
 8516TIP3   OH247038   1.502   4.380  12.452  0.0717  0.4812 -0.4018
 8516TIP3    H147039   1.569   4.356  12.387 -0.4844  0.0907 -0.8369
 8516TIP3    H247040   1.483   4.472  12.434  1.0314  0.8116  0.2131
 8517TIP3   OH247041   4.218   1.474   5.514  0.2122 -0.0128 -0.4139
 8517TIP3    H147042   4.190   1.477   5.423 -4.1855 -0.1577  0.8079
 8517TIP3    H247043   4.198   1.384   5.542  0.5286  0.3332  0.9720
 8518TIP3   OH247044   6.380   5.660  11.798  0.1022 -0.0339  0.3161
 8518TIP3    H147045   6.291   5.644  11.830 -0.8633  2.1553 -1.1256
 8518TIP3    H247046   6.380   5.624  11.709  1.2215 -1.5964  0.9277
 8519TIP3   OH247047   1.848   1.706   2.638  0.4979  0.6881 -0.5592
 8519TIP3    H147048   1.935   1.668   2.635  0.7651  1.2118  0.3190
 8519TIP3    H247049   1.859   1.795   2.604  0.1803  0.5210 -1.0981
 8520TIP3   OH247050   0.515   2.301   2.014  0.4751  0.0495 -0.1960
 8520TIP3    H147051   0.447   2.361   1.984  0.5035  0.3146  0.2655
 8520TIP3    H247052   0.468   2.222   2.038  0.1028  0.9034  1.9476
 8521TIP3   OH247053   5.373   2.025  11.672 -0.1083  0.0739  0.0163
 8521TIP3    H147054   5.310   2.007  11.743 -0.2019  3.0555  0.7717
 8521TIP3    H247055   5.357   2.117  11.649  2.8200  0.3873 -0.9564
 8522TIP3   OH247056   0.592   5.009  15.958 -0.3425 -0.5925  0.2440
 8522TIP3    H147057   0.598   5.104  15.955  0.1107 -0.6430 -1.1414
 8522TIP3    H247058   0.576   4.988  16.050 -0.7716  0.8350  0.5064
 8523TIP3   OH247059   2.642   0.899   4.292  0.4832  0.0233 -0.1730
 8523TIP3    H147060   2.576   0.926   4.229  0.7267 -2.2381 -1.4649
 8523TIP3    H247061   2.592   0.858   4.363  0.4228 -0.8595 -0.7172
 8524TIP3   OH247062   4.158   4.025   2.423  0.1062  0.2313  0.6129
 8524TIP3    H147063   4.163   4.038   2.517  0.4377 -0.9664  0.7777
 8524TIP3    H247064   4.249   4.029   2.394  0.2558 -1.6913  0.6991
 8525TIP3   OH247065   3.665   5.288  15.086 -0.9845  0.3771  0.3040
 8525TIP3    H147066   3.616   5.207  15.068 -1.3817  0.2926  1.7229
 8525TIP3    H247067   3.687   5.282  15.179  1.0465  0.7921 -0.1321
 8526TIP3   OH247068   6.181   6.100   4.977 -0.1082  0.5682 -0.3844
 8526TIP3    H147069   6.162   6.156   4.901 -0.5006 -0.9762 -1.4497
 8526TIP3    H247070   6.276   6.093   4.978 -0.0620  1.1613 -0.3076
 8527TIP3   OH247071   2.311   5.861  13.298 -0.2512 -0.4647  0.3605
 8527TIP3    H147072   2.326   5.891  13.209  0.5623 -1.5937  0.1060
 8527TIP3    H247073   2.223   5.892  13.320 -0.1315  0.5379 -0.5229
 8528TIP3   OH247074   3.488   0.168   6.518  0.5760  0.0890 -0.8413
 8528TIP3    H147075   3.563   0.121   6.553 -0.4144 -1.9714 -1.4177
 8528TIP3    H247076   3.522   0.214   6.442  1.6146  0.5043 -0.1292
 8529TIP3   OH247077   6.354   3.936  16.776  0.1720  0.3368  0.1722
 8529TIP3    H147078   6.331   3.853  16.734 -1.5239 -0.3140  2.2689
 8529TIP3    H247079   6.434   3.916  16.825  0.2166  0.1442  0.0182
 8530TIP3   OH247080   3.458   4.284   4.027  0.2201  0.5340 -0.3493
 8530TIP3    H147081   3.368   4.306   4.052  0.1737  0.0209 -0.0502
 8530TIP3    H247082   3.505   4.276   4.111 -0.0157 -1.5368 -0.3905
 8531TIP3   OH247083   2.722   0.399  11.707 -0.6692  0.1486 -0.6810
 8531TIP3    H147084   2.794   0.401  11.643  0.5985 -0.7300  0.6834
 8531TIP3    H247085   2.752   0.457  11.777 -2.2652  1.4801 -1.0729
 8532TIP3   OH247086   2.184   4.986  11.974  0.1508  0.2187  0.5000
 8532TIP3    H147087   2.253   5.002  12.038 -0.0121  0.2891  0.6603
 8532TIP3    H247088   2.199   4.897  11.943  1.4854  0.9163 -0.9091
 8533TIP3   OH247089   3.411   3.542   3.291 -0.1536  0.4743 -0.2092
 8533TIP3    H147090   3.329   3.571   3.331  0.2066  0.4306  0.5800
 8533TIP3    H247091   3.405   3.447   3.289  0.3593  0.4139  0.9092
 8534TIP3   OH247092   2.596   6.326  16.675  0.3853 -0.6147 -0.8811
 8534TIP3    H147093   2.602   6.355  16.584 -0.6846  0.3410 -0.6719
 8534TIP3    H247094   2.510   6.285  16.681 -0.1705  0.6264  0.0260
 8535TIP3   OH247095   3.715   1.300  14.506 -0.2495  0.3507  0.2455
 8535TIP3    H147096   3.775   1.280  14.434  1.2609  0.3724  1.4741
 8535TIP3    H247097   3.692   1.392  14.494  0.5460  0.5422  0.1943
 8536TIP3   OH247098   2.857   0.330  14.729  0.0952  0.2556  0.0753
 8536TIP3    H147099   2.937   0.306  14.777  0.8536 -0.6162 -1.6100
 8536TIP3    H247100   2.860   0.278  14.649 -3.3978 -1.6486  1.0857
 8537TIP3   OH247101   0.900   2.127  14.913 -0.3756  0.4776  0.3754
 8537TIP3    H147102   0.831   2.094  14.854  0.5480  0.5333 -0.7591
 8537TIP3    H247103   0.856   2.193  14.966 -1.1937  0.5485 -0.3747
 8538TIP3   OH247104   5.664   6.218  14.119 -0.0139 -0.4331 -0.6418
 8538TIP3    H147105   5.609   6.269  14.179  0.8284  0.1382 -0.3576
 8538TIP3    H247106   5.602   6.183  14.055 -0.8387 -0.5096  0.1780
 8539TIP3   OH247107   0.484   4.512   0.633 -0.2104  0.1427 -0.2350
 8539TIP3    H147108   0.519   4.510   0.722 -0.5289  2.1976 -0.0200
 8539TIP3    H247109   0.539   4.453   0.583  1.7862  1.1578  0.7207
 8540TIP3   OH247110   0.222   1.838  15.590  0.0862 -0.8379 -0.0985
 8540TIP3    H147111   0.167   1.899  15.640  0.0462 -1.1445  0.2326
 8540TIP3    H247112   0.172   1.819  15.511 -0.5481 -1.5869  0.4847
 8541TIP3   OH247113   4.241   6.277  16.212  0.0351 -0.2173 -0.2200
 8541TIP3    H147114   4.217   6.367  16.189 -1.5716 -0.4682  0.4341
 8541TIP3    H247115   4.168   6.224  16.182 -0.4043 -0.9621  2.0581
 8542TIP3   OH247116   2.059   2.074  13.265 -0.0484 -0.1740 -0.5021
 8542TIP3    H147117   2.070   2.112  13.178  0.4375 -0.2811 -0.4855
 8542TIP3    H247118   1.993   2.005  13.253  0.4390 -0.5771 -0.9047
 8543TIP3   OH247119   1.804   3.613   3.336  0.5835 -0.2733 -0.0610
 8543TIP3    H147120   1.715   3.642   3.318  1.1717  1.1553 -0.7104
 8543TIP3    H247121   1.820   3.545   3.270  1.3922  2.3150 -2.6412
 8544TIP3   OH247122   5.422   4.591   4.903  0.5401  0.2067 -0.4672
 8544TIP3    H147123   5.376   4.670   4.875 -0.4686 -0.3422 -0.3781
 8544TIP3    H247124   5.443   4.546   4.821  0.3020  0.1104 -0.4748
 8545TIP3   OH247125   0.134   2.525   3.980  0.2478  0.3058 -0.6187
 8545TIP3    H147126   0.067   2.465   3.947 -0.5945  0.9368 -0.0842
 8545TIP3    H247127   0.110   2.539   4.072  1.5792 -0.0902 -0.2034
 8546TIP3   OH247128   3.102   3.315  13.894 -0.3978  0.1567  0.5288
 8546TIP3    H147129   3.170   3.311  13.961  0.2223 -1.2575 -0.1545
 8546TIP3    H247130   3.150   3.324  13.811 -0.9490 -1.9471 -0.0617
 8547TIP3   OH247131   2.257   6.487  15.634 -0.6409 -0.2047 -0.1855
 8547TIP3    H147132   2.200   6.521  15.566  0.1821 -0.1969 -0.8859
 8547TIP3    H247133   2.315   6.426  15.588 -2.1679 -2.6562  1.0529
 8548TIP3   OH247134   5.071   2.296   1.377  0.2016  0.7511 -0.4036
 8548TIP3    H147135   5.118   2.328   1.300  0.5543  0.5806 -0.2580
 8548TIP3    H247136   5.062   2.202   1.361  0.7345  0.6303  0.0130
 8549TIP3   OH247137   1.258   6.192  16.548 -0.1001  0.0492  0.0438
 8549TIP3    H147138   1.306   6.153  16.620  2.4015  0.6770 -1.2299
 8549TIP3    H247139   1.213   6.267  16.587 -1.2851 -1.3899  1.5394
 8550TIP3   OH247140   3.070   0.524  13.643 -0.1445 -0.2329  0.2972
 8550TIP3    H147141   3.090   0.554  13.731 -1.4611 -1.7228  1.1383
 8550TIP3    H247142   3.056   0.430  13.653  2.1296 -0.8496 -1.9444
 8551TIP3   OH247143   1.166   5.829  15.925 -0.1449 -0.0939  0.3796
 8551TIP3    H147144   1.173   5.734  15.918  0.1069  0.0650 -1.6841
 8551TIP3    H247145   1.122   5.856  15.845 -1.9788  1.3632  1.8196
 8552TIP3   OH247146   0.659   1.484  12.264 -0.5084 -0.1212  0.1650
 8552TIP3    H147147   0.666   1.482  12.360 -2.6532  2.4676  0.4487
 8552TIP3    H247148   0.620   1.569  12.245  1.2666  0.0554 -3.1375
 8553TIP3   OH247149   1.297   1.225  15.783 -0.7934 -0.5061 -0.8792
 8553TIP3    H147150   1.207   1.194  15.793 -1.6477  1.9454 -0.5676
 8553TIP3    H247151   1.298   1.267  15.697 -0.4678  1.0741 -0.1233
 8554TIP3   OH247152   3.650   1.018  13.078 -0.7110  0.2866  0.0980
 8554TIP3    H147153   3.579   0.996  13.138 -1.7555 -1.3950 -1.6938
 8554TIP3    H247154   3.730   0.995  13.126 -1.3981  1.1656  1.7083
 8555TIP3   OH247155   5.021   1.072   6.380  0.2267 -0.6412  0.2531
 8555TIP3    H147156   4.962   1.023   6.322 -0.0904  0.7365 -0.5954
 8555TIP3    H247157   5.105   1.072   6.335 -0.2241  1.1383 -0.6127
 8556TIP3   OH247158   1.885   0.656   3.337 -0.0658  0.2199  0.0948
 8556TIP3    H147159   1.828   0.670   3.261 -1.3936  0.0115  1.0359
 8556TIP3    H247160   1.949   0.591   3.308  0.8659  1.8392 -1.5780
 8557TIP3   OH247161   3.009   1.299   0.057  0.4066  0.0323 -0.2169
 8557TIP3    H147162   2.918   1.306   0.086 -0.0552  0.5482 -1.7547
 8557TIP3    H247163   3.041   1.219   0.099 -0.1176  0.9487  2.0020
 8558TIP3   OH247164   5.930   2.228   5.271 -0.5372  0.4552  0.1798
 8558TIP3    H147165   5.948   2.224   5.177  0.2810  2.4405  0.2228
 8558TIP3    H247166   5.899   2.141   5.294  0.6265 -0.4643 -1.6699
 8559TIP3   OH247167   1.048   6.724  14.750  0.3505  0.7195  0.3384
 8559TIP3    H147168   0.979   6.680  14.800  1.0942 -1.5201 -0.5477
 8559TIP3    H247169   1.125   6.667  14.760  0.9920  1.1481 -1.9067
 8560TIP3   OH247170   2.776   0.350  16.927 -0.8983  0.2642  0.1794
 8560TIP3    H147171   2.822   0.428  16.958  0.5772 -0.8118  0.7710
 8560TIP3    H247172   2.725   0.320  17.002 -0.7372  0.1343  0.2371
 8561TIP3   OH247173   2.992   6.573  13.583  0.0695  0.4748  0.1360
 8561TIP3    H147174   3.077   6.528  13.581 -0.3326 -0.2462 -1.1376
 8561TIP3    H247175   2.928   6.503  13.568 -0.6189  1.3262 -0.9523
 8562TIP3   OH247176   4.664   2.054   4.394  0.2367 -0.7115  0.0808
 8562TIP3    H147177   4.751   2.079   4.362  1.2224 -2.7847  1.1062
 8562TIP3    H247178   4.607   2.125   4.363  2.3012  0.7783 -0.4411
 8563TIP3   OH247179   5.744   2.454   2.872  0.2540 -0.4210 -0.8074
 8563TIP3    H147180   5.741   2.426   2.963  0.8276  2.3809  0.1019
 8563TIP3    H247181   5.662   2.502   2.859  2.1324  3.0356 -0.4234
 8564TIP3   OH247182   0.668   3.243  15.572 -0.3460  0.1920  0.1061
 8564TIP3    H147183   0.658   3.174  15.638 -0.5130  1.9794  1.9847
 8564TIP3    H247184   0.758   3.274  15.584  0.4153 -1.0669 -2.1273
 8565TIP3   OH247185   2.132   1.827  13.733 -0.5373  0.1316  0.5115
 8565TIP3    H147186   2.073   1.780  13.792 -0.0553  0.8236  1.5506
 8565TIP3    H247187   2.101   1.918  13.735 -2.2828 -0.3197 -2.4974
 8566TIP3   OH247188   6.485   2.067  15.621 -0.1329 -0.7948  0.6425
 8566TIP3    H147189   6.483   2.073  15.717 -0.6806 -0.8550  0.6353
 8566TIP3    H247190   6.460   2.154  15.591 -0.4582 -0.9144  0.5562
 8567TIP3   OH247191   6.665   3.703   6.517  0.0804 -0.1518  0.6949
 8567TIP3    H147192   6.758   3.724   6.523 -0.1876  0.8682  1.5070
 8567TIP3    H247193   6.621   3.788   6.524 -0.8038 -0.2707 -2.5342
 8568TIP3   OH247194   0.786   2.349  15.020 -0.2791  0.4075 -0.7011
 8568TIP3    H147195   0.698   2.386  15.024 -0.3788  0.4698 -2.6945
 8568TIP3    H247196   0.819   2.353  15.110 -1.0058  3.5493 -0.5263
 8569TIP3   OH247197   1.036   3.625   4.899  0.6035 -0.1946 -0.2429
 8569TIP3    H147198   1.123   3.616   4.938  0.2505  0.4161  0.7192
 8569TIP3    H247199   1.032   3.717   4.873 -0.3103  0.1744  1.1241
 8570TIP3   OH247200   1.687   3.316   0.660 -0.5556  0.1906 -0.1739
 8570TIP3    H147201   1.764   3.268   0.690  0.5125  2.0955  0.2411
 8570TIP3    H247202   1.702   3.329   0.566 -0.6487  0.0670 -0.2060
 8571TIP3   OH247203   0.961   0.906   3.341  0.1459 -0.0214 -0.2411
 8571TIP3    H147204   0.982   0.923   3.250 -1.0412  3.8390  0.0875
 8571TIP3    H247205   1.034   0.942   3.391  0.4143 -1.3724  0.3621
 8572TIP3   OH247206   5.443   3.843  13.699 -0.4035 -0.0736 -0.1892
 8572TIP3    H147207   5.501   3.779  13.658  0.5037 -0.4034  1.5567
 8572TIP3    H247208   5.413   3.800  13.779 -0.2570  1.4356  0.6973
 8573TIP3   OH247209   4.870   4.808  13.799 -0.4009 -0.0202  0.2656
 8573TIP3    H147210   4.924   4.885  13.781  0.9617 -1.2552 -1.0797
 8573TIP3    H247211   4.896   4.781  13.887  0.5218 -0.0832 -0.0230
 8574TIP3   OH247212   1.106   5.447   0.828  0.0691  0.2873 -0.1984
 8574TIP3    H147213   1.153   5.506   0.770  0.0823  1.9165  1.4527
 8574TIP3    H247214   1.023   5.430   0.783 -1.1742  3.8779  0.6322
 8575TIP3   OH247215   5.839   0.861   0.210 -0.1389  0.2800 -0.1966
 8575TIP3    H147216   5.837   0.895   0.300 -0.6912  0.0396 -0.1169
 8575TIP3    H247217   5.844   0.766   0.221 -1.7174  0.1568 -0.4130
 8576TIP3   OH247218   4.870   6.587  12.375 -0.6409 -0.6335  0.3496
 8576TIP3    H147219   4.905   6.565  12.289 -0.0371 -0.2131  0.4862
 8576TIP3    H247220   4.869   6.504  12.423  0.7973 -0.5356  0.5650
 8577TIP3   OH247221   1.671   1.643  15.694  0.3987  0.3583 -0.2474
 8577TIP3    H147222   1.766   1.637  15.683  0.1857 -0.7922 -1.5523
 8577TIP3    H247223   1.635   1.637  15.605 -0.9317 -0.1656  0.3026
 8578TIP3   OH247224   3.847   1.250   5.954  0.2447 -0.0208  0.3059
 8578TIP3    H147225   3.917   1.201   5.910  1.7907  1.7601  0.7626
 8578TIP3    H247226   3.825   1.196   6.029  1.4023 -0.4117  0.3778
 8579TIP3   OH247227   3.480   1.387  16.539 -0.1632 -0.4712  0.2019
 8579TIP3    H147228   3.481   1.466  16.483  0.4663 -1.6625 -1.5135
 8579TIP3    H247229   3.409   1.334  16.503 -0.1687 -0.9807  0.9612
 8580TIP3   OH247230   4.424   4.698   1.958 -0.6412  0.6441  0.9336
 8580TIP3    H147231   4.492   4.761   1.978 -0.3411  0.4592  0.5048
 8580TIP3    H247232   4.425   4.637   2.032  0.1309  0.2441  0.6025
 8581TIP3   OH247233   1.055   3.782   1.337  0.4391  0.1943  1.0946
 8581TIP3    H147234   1.116   3.734   1.393  0.8821  1.0101  1.3108
 8581TIP3    H247235   1.110   3.841   1.286 -0.3094  2.5743  2.9007
 8582TIP3   OH247236   2.836   5.883   2.704 -0.0342  0.2877 -0.5368
 8582TIP3    H147237   2.785   5.825   2.761 -0.1291 -0.6530 -1.5652
 8582TIP3    H247238   2.927   5.855   2.717  0.1132  1.1593  0.3778
 8583TIP3   OH247239   5.582   2.005  12.132  0.0223  0.4186 -0.7800
 8583TIP3    H147240   5.602   2.067  12.201 -2.5955  3.1874 -2.3515
 8583TIP3    H247241   5.624   2.041  12.054  0.7398 -1.2617 -1.1980
 8584TIP3   OH247242   4.138   1.483   5.262  0.7055 -0.0606 -0.3660
 8584TIP3    H147243   4.070   1.533   5.218  0.9434 -0.3831 -1.1179
 8584TIP3    H247244   4.114   1.391   5.247  1.0889 -0.1736 -0.3036
 8585TIP3   OH247245   0.321   2.555   0.967  0.6410 -0.6340  0.6463
 8585TIP3    H147246   0.282   2.498   1.033  0.3205 -0.8205  0.2963
 8585TIP3    H247247   0.402   2.585   1.007  0.0111 -0.0265  1.4957
 8586TIP3   OH247248   4.182   4.271   6.119  0.5574 -0.0386 -0.0369
 8586TIP3    H147249   4.257   4.328   6.101  1.0096 -1.3662 -2.6175
 8586TIP3    H247250   4.204   4.228   6.202  3.1261 -1.1291 -1.2333
 8587TIP3   OH247251   1.464   0.951  13.747 -0.0720  0.7240 -0.2068
 8587TIP3    H147252   1.460   1.001  13.666 -1.2574 -1.8088 -1.7752
 8587TIP3    H247253   1.461   0.860  13.719  0.5198 -0.2191  2.6443
 8588TIP3   OH247254   0.202   2.224  11.847 -0.0016 -0.4281  0.0752
 8588TIP3    H147255   0.240   2.237  11.934 -0.9804 -0.2668  0.4836
 8588TIP3    H247256   0.266   2.261  11.787 -0.3917  1.5830  0.8759
 8589TIP3   OH247257   3.541   1.064   6.532  0.1533  0.2864 -0.1358
 8589TIP3    H147258   3.615   1.121   6.510 -0.8677  1.9965  0.7703
 8589TIP3    H247259   3.463   1.117   6.514 -0.8440 -1.0269  0.1906
 8590TIP3   OH247260   3.019   3.410   4.933 -0.3949 -0.4320 -0.1497
 8590TIP3    H147261   2.962   3.409   4.856 -0.7982  0.1553  0.1405
 8590TIP3    H247262   3.072   3.489   4.924 -1.1355  0.1667  0.6752
 8591TIP3   OH247263   2.322   0.639  11.783 -0.1346 -0.2527  0.6666
 8591TIP3    H147264   2.232   0.635  11.815 -0.3377  2.7449  0.5746
 8591TIP3    H247265   2.321   0.585  11.703 -2.2491  1.0104 -0.2123
 8592TIP3   OH247266   3.387   0.493  15.166  0.3954 -0.4071 -0.2800
 8592TIP3    H147267   3.302   0.477  15.207 -0.1214  0.0123 -1.1624
 8592TIP3    H247268   3.367   0.499  15.072  1.3587 -0.0195 -0.4636
 8593TIP3   OH247269   5.459   5.500   4.413 -0.0848  0.5600  0.1465
 8593TIP3    H147270   5.429   5.451   4.336  0.9989 -2.3674  1.4769
 8593TIP3    H247271   5.382   5.549   4.441 -1.7260 -1.5794 -0.4229
 8594TIP3   OH247272   5.155   6.575  10.580 -0.1996 -0.1960 -0.0422
 8594TIP3    H147273   5.140   6.480  10.577 -0.0311 -0.3838  3.0656
 8594TIP3    H247274   5.237   6.584  10.629 -0.9034  1.5871  0.8430
 8595TIP3   OH247275   2.977   3.579   3.860 -0.4964 -0.0752  0.0982
 8595TIP3    H147276   3.027   3.506   3.823 -2.1156  0.1534 -2.6662
 8595TIP3    H247277   2.932   3.618   3.785 -2.5276  1.5289  2.0813
 8596TIP3   OH247278   2.341   0.098   3.642  0.8202  0.0543 -0.0026
 8596TIP3    H147279   2.381   0.127   3.560  1.0168 -0.8393 -0.2285
 8596TIP3    H247280   2.411   0.050   3.688  0.4280 -0.2882  0.2447
 8597TIP3   OH247281   5.052   0.133  11.168 -0.3689  0.0334 -0.0976
 8597TIP3    H147282   5.018   0.054  11.210  0.7821  0.2732  1.3156
 8597TIP3    H247283   5.020   0.205  11.223 -0.9107  0.5236 -1.0389
 8598TIP3   OH247284   3.846   2.272  14.677  0.3265 -0.0023  0.0979
 8598TIP3    H147285   3.900   2.291  14.754 -0.0839 -0.1128  0.4101
 8598TIP3    H247286   3.898   2.210  14.626  0.3463 -0.3739  0.5692
 8599TIP3   OH247287   6.008   6.177  15.414  0.1229  0.7599 -0.0012
 8599TIP3    H147288   6.065   6.234  15.362  1.2035  1.3472  1.7660
 8599TIP3    H247289   6.004   6.219  15.500 -0.8590 -0.6693  0.6774
 8600TIP3   OH247290   2.111   1.944  15.833 -0.3849  0.3501 -0.0774
 8600TIP3    H147291   2.109   1.917  15.742  1.8578 -1.2750  0.3149
 8600TIP3    H247292   2.058   1.878  15.879 -1.3129  1.0323 -0.1389
 8601TIP3   OH247293   6.063   6.008  11.578  0.0640  1.0151  0.0684
 8601TIP3    H147294   6.029   6.085  11.533 -2.2859  0.2738  0.4975
 8601TIP3    H247295   6.104   6.043  11.657 -1.1713  1.8008  0.3677
 8602TIP3   OH247296   1.824   0.154  11.894  0.1677  0.9044 -0.3475
 8602TIP3    H147297   1.848   0.072  11.851  0.9695  1.8588 -1.7902
 8602TIP3    H247298   1.897   0.174  11.952 -0.1365  0.4931  0.1858
 8603TIP3   OH247299   1.297   3.682   5.353 -0.1245  0.1629 -0.1060
 8603TIP3    H147300   1.260   3.599   5.324  0.7643 -0.7462  1.3167
 8603TIP3    H247301   1.257   3.698   5.439  0.9539  0.3719  0.3634
 8604TIP3   OH247302   5.362   3.471  11.746 -0.6055 -0.3134 -0.8567
 8604TIP3    H147303   5.388   3.470  11.838 -2.0868 -0.6437 -0.4338
 8604TIP3    H247304   5.273   3.504  11.746 -0.5940 -0.2462 -2.1842
 8605TIP3   OH247305   0.989   2.862   5.275  0.4617 -0.3783 -0.2693
 8605TIP3    H147306   0.934   2.936   5.251  1.4550  0.5732  0.3406
 8605TIP3    H247307   1.009   2.819   5.192 -1.0732 -0.6552 -0.5069
 8606TIP3   OH247308   4.809   2.239   2.243  0.2769  0.1266  0.0797
 8606TIP3    H147309   4.778   2.318   2.288  2.2367  1.2351 -0.4748
 8606TIP3    H247310   4.903   2.251   2.236  0.1928 -0.7438 -2.9639
 8607TIP3   OH247311   6.352   4.810   0.000  0.2849 -0.4161 -0.1054
 8607TIP3    H147312   6.389   4.783  -0.084 -0.1841 -1.6548  0.0682
 8607TIP3    H247313   6.425   4.802   0.062  0.4072 -0.3252 -0.2364
 8608TIP3   OH247314   0.434   4.156   4.771 -0.3634 -0.5617 -0.2338
 8608TIP3    H147315   0.515   4.161   4.821  0.2810 -1.1399 -1.2183
 8608TIP3    H247316   0.443   4.079   4.716 -0.9099  0.2521 -1.5133
 8609TIP3   OH247317   4.790   6.098   6.046  0.0383  0.1500  0.3045
 8609TIP3    H147318   4.816   6.136   6.129 -0.2838 -0.6506  0.7858
 8609TIP3    H247319   4.733   6.163   6.006  1.2561  1.0936  0.1058
 8610TIP3   OH247320   4.910   5.726  14.319 -0.4097  0.1309 -0.2310
 8610TIP3    H147321   4.928   5.772  14.402  1.9931 -2.9800  1.0881
 8610TIP3    H247322   4.935   5.789  14.251  1.8044  1.1878  1.4806
 8611TIP3   OH247323   0.258   3.568   1.123  0.6363  0.1276  0.0533
 8611TIP3    H147324   0.173   3.595   1.089  0.9544 -0.1095 -0.9484
 8611TIP3    H247325   0.253   3.472   1.126  1.2065  0.0582 -0.9331
 8612TIP3   OH247326   0.241   3.111  13.871  0.2059  0.1176  0.3159
 8612TIP3    H147327   0.155   3.083  13.841 -0.4921  1.4069  1.0815
 8612TIP3    H247328   0.300   3.093  13.797 -0.9684  0.5493 -0.7374
 8613TIP3   OH247329   1.338   3.703   0.998  0.7720  0.4689  0.0349
 8613TIP3    H147330   1.286   3.622   0.997  1.7025 -0.1476  0.8193
 8613TIP3    H247331   1.346   3.725   1.091  2.3827  0.2455 -0.0378
 8614TIP3   OH247332   1.187   2.790   6.717  0.6177  0.1096  0.1187
 8614TIP3    H147333   1.140   2.708   6.702  0.0604  0.3889  0.3076
 8614TIP3    H247334   1.267   2.782   6.666  0.8720 -0.8202  0.6736
 8615TIP3   OH247335   6.115   6.488   2.019 -0.5381 -0.2805 -0.2792
 8615TIP3    H147336   6.168   6.567   2.012 -1.3798  0.3162  0.0051
 8615TIP3    H247337   6.065   6.486   1.938  1.1779 -1.7849 -1.3408
 8616TIP3   OH247338   4.459   0.014   4.041  0.4470  0.6198  0.2192
 8616TIP3    H147339   4.375   0.060   4.037  0.3796  0.5783  1.0770
 8616TIP3    H247340   4.525   0.083   4.048  0.3319  0.5963  1.7140
 8617TIP3   OH247341   4.634   5.856   4.977  0.0720 -0.3353 -0.4039
 8617TIP3    H147342   4.578   5.891   5.045 -0.1450  0.1097 -0.8118
 8617TIP3    H247343   4.713   5.911   4.980  0.5828 -1.0806  0.3025
 8618TIP3   OH247344   3.448   1.565   4.780 -0.5667  0.3253 -0.9910
 8618TIP3    H147345   3.515   1.497   4.784 -0.6047  0.3128 -0.4601
 8618TIP3    H247346   3.373   1.522   4.740 -0.3587  0.2540 -1.3062
 8619TIP3   OH247347   1.392   1.367   5.720 -0.5320  0.0467  0.8222
 8619TIP3    H147348   1.481   1.386   5.749  0.4643 -0.6397 -1.7045
 8619TIP3    H247349   1.389   1.396   5.629 -2.3869 -1.4672  0.3626
 8620TIP3   OH247350   6.606   3.885   3.178 -0.0937 -0.3480  0.9119
 8620TIP3    H147351   6.593   3.947   3.106 -3.9626 -2.1700 -0.1006
 8620TIP3    H247352   6.671   3.823   3.145 -0.7520 -0.3274 -0.4438
 8621TIP3   OH247353   1.899   3.748   1.014  0.2490 -0.5803  0.2595
 8621TIP3    H147354   1.843   3.821   0.986  2.7957  0.7855 -1.4741
 8621TIP3    H247355   1.957   3.787   1.079  0.4587 -1.5092  0.6297
 8622TIP3   OH247356   2.282   6.799  12.794  0.0180  0.1636 -0.2121
 8622TIP3    H147357   2.351   6.863  12.811  0.5103 -0.6378  0.7990
 8622TIP3    H247358   2.267   6.756  12.878 -1.8167  0.4227 -0.3724
 8623TIP3   OH247359   3.894   1.479   3.642  0.0780 -0.9088 -0.1125
 8623TIP3    H147360   3.837   1.407   3.668  0.3256 -1.2008 -0.3747
 8623TIP3    H247361   3.850   1.518   3.567 -0.1660 -0.6497  0.1641
 8624TIP3   OH247362   2.950   4.960   1.014 -0.4764  0.3124  0.1218
 8624TIP3    H147363   2.971   5.053   1.001 -0.6870  0.4543  0.8009
 8624TIP3    H247364   3.022   4.927   1.067  0.3055 -0.2381 -1.2551
 8625TIP3   OH247365   3.849   4.934   2.482  0.2000 -0.1453 -0.7014
 8625TIP3    H147366   3.828   5.027   2.487 -0.9114 -0.3211 -1.9113
 8625TIP3    H247367   3.902   4.925   2.403 -0.9573 -0.7747 -1.4050
 8626TIP3   OH247368   4.445   5.892  14.564 -0.4770  0.7952 -0.1591
 8626TIP3    H147369   4.479   5.806  14.537  2.7424  1.9705 -0.0433
 8626TIP3    H247370   4.390   5.919  14.491  0.8709 -0.0798 -1.5471
 8627TIP3   OH247371   5.400   6.121  16.193 -0.0494  0.6226  0.4738
 8627TIP3    H147372   5.405   6.190  16.127  0.8957 -0.4870 -0.6091
 8627TIP3    H247373   5.315   6.079  16.178 -1.4907  2.7251  2.3411
 8628TIP3   OH247374   4.219   5.132  15.015 -0.3547  0.1591 -0.0394
 8628TIP3    H147375   4.287   5.110  14.951 -2.3852 -0.4607 -2.0630
 8628TIP3    H247376   4.137   5.118  14.968 -2.0837 -4.1822  3.8139
 8629TIP3   OH247377   6.695   4.225   0.607  0.1192  0.3102  0.6214
 8629TIP3    H147378   6.765   4.252   0.667 -0.7409  0.2660  1.6482
 8629TIP3    H247379   6.741   4.176   0.538  0.9760 -0.6253  1.8297
 8630TIP3   OH247380   1.023   0.028   2.139  0.3132 -0.1987 -0.1014
 8630TIP3    H147381   1.025   0.003   2.047  0.6435  0.4209 -0.2627
 8630TIP3    H247382   1.087  -0.029   2.181 -0.1355 -0.7687 -0.1779
 8631TIP3   OH247383   3.101   4.914  17.053 -0.1665 -0.4127  0.1382
 8631TIP3    H147384   3.072   4.826  17.077  1.0995 -0.4957  1.3929
 8631TIP3    H247385   3.028   4.950  17.002 -1.0707 -1.8458  0.4009
 8632TIP3   OH247386   3.179   1.625  11.438 -0.1168  0.6678 -0.2941
 8632TIP3    H147387   3.237   1.663  11.373 -1.1978  0.0850 -1.6138
 8632TIP3    H247388   3.091   1.637  11.402 -0.5977 -1.4307  0.1067
 8633TIP3   OH247389   2.590   1.855  15.051  0.1376  0.3396 -0.0501
 8633TIP3    H147390   2.545   1.781  15.090 -0.0796  0.7962  0.5761
 8633TIP3    H247391   2.525   1.925  15.048  0.9524  1.1933  1.4349
 8634TIP3   OH247392   1.086   2.941  11.327 -0.3291  0.3030  0.0446
 8634TIP3    H147393   1.020   2.944  11.258 -0.3176  0.3422  0.0354
 8634TIP3    H247394   1.145   2.870  11.301 -1.0057 -0.4798  0.6284
 8635TIP3   OH247395   0.411   6.482  11.175  0.4876 -0.0646  0.0970
 8635TIP3    H147396   0.456   6.556  11.134  0.7769 -0.9697 -1.2392
 8635TIP3    H247397   0.337   6.522  11.222  0.5587  1.0602 -0.7252
 8636TIP3   OH247398   4.096   6.737   4.065  0.7644  0.3854  0.0878
 8636TIP3    H147399   4.159   6.808   4.053  2.6151 -1.1507  0.4773
 8636TIP3    H247400   4.098   6.690   3.981  0.6944 -0.0922  0.3545
 8637TIP3   OH247401   3.198   2.132   4.749 -0.0392  0.0779  0.5623
 8637TIP3    H147402   3.178   2.085   4.830  0.0539 -1.7374 -0.4410
 8637TIP3    H247403   3.252   2.205   4.777  1.6274 -1.6273  1.9446
 8638TIP3   OH247404   0.324   4.978   0.665 -0.5902  0.4550  0.2372
 8638TIP3    H147405   0.347   4.963   0.574  0.0550 -0.4440  0.5387
 8638TIP3    H247406   0.358   4.901   0.711  0.0975  1.4365  1.3987
 8639TIP3   OH247407   3.670   3.466   1.231 -0.0381  0.2358  0.7386
 8639TIP3    H147408   3.716   3.520   1.166 -0.0688 -0.4381  0.1470
 8639TIP3    H247409   3.582   3.456   1.194  0.1032 -0.5908  0.6259
 8640TIP3   OH247410   1.856   1.478  12.444  0.1572 -0.3088  0.1505
 8640TIP3    H147411   1.850   1.559  12.394 -2.1479 -0.7880 -0.4310
 8640TIP3    H247412   1.780   1.479  12.502  0.4725 -1.7390  0.6304
 8641TIP3   OH247413   3.313   6.069   3.299  0.2355 -0.6940  0.2421
 8641TIP3    H147414   3.328   5.975   3.301 -1.7791 -1.0197  2.0944
 8641TIP3    H247415   3.313   6.096   3.391 -0.6295  0.8611 -0.1816
 8642TIP3   OH247416   1.081   0.747   2.113  0.0947  0.3796 -1.0152
 8642TIP3    H147417   1.175   0.732   2.108  0.4815  1.6882  1.4738
 8642TIP3    H247418   1.055   0.770   2.024  2.2767  0.7615 -1.5694
 8643TIP3   OH247419   2.852   5.223   4.963  0.3172  0.0760  0.2281
 8643TIP3    H147420   2.926   5.167   4.939  1.5958  0.9436  1.9749
 8643TIP3    H247421   2.775   5.167   4.954  1.2288 -0.9499 -1.2849
 8644TIP3   OH247422   6.287   2.750   3.275  0.7817 -0.0688  0.7220
 8644TIP3    H147423   6.220   2.807   3.312 -1.2957 -0.5351 -2.2049
 8644TIP3    H247424   6.252   2.661   3.288  0.9992 -0.3333 -0.4300
 8645TIP3   OH247425   3.040   5.174   0.873  0.3128  0.2909 -0.4504
 8645TIP3    H147426   3.030   5.158   0.779  1.7418  1.6333 -0.8346
 8645TIP3    H247427   3.134   5.179   0.887  0.0699  1.6070  0.8009
 8646TIP3   OH247428   1.582   1.044   5.198 -0.2070  0.0264  0.2497
 8646TIP3    H147429   1.619   1.036   5.110 -0.6150 -0.5746  0.1254
 8646TIP3    H247430   1.652   1.016   5.257 -0.9347 -2.5883 -0.0642
 8647TIP3   OH247431   4.516   2.484   1.571  0.4136 -0.3517 -0.2864
 8647TIP3    H147432   4.474   2.435   1.641  0.2225 -0.6070 -0.5805
 8647TIP3    H247433   4.606   2.495   1.600  0.3871 -0.6386 -0.0955
 8648TIP3   OH247434   0.835   3.159  13.573 -0.1125  0.0460  0.2887
 8648TIP3    H147435   0.767   3.224  13.593 -0.7633 -0.3682 -0.5103
 8648TIP3    H247436   0.795   3.104  13.506  1.0734 -0.1402 -0.2677
 8649TIP3   OH247437   0.996   5.812  12.142  0.0678  0.2255 -0.0200
 8649TIP3    H147438   0.923   5.771  12.096 -0.9629  0.4656  1.3688
 8649TIP3    H247439   1.074   5.785  12.093 -1.0123  0.6456 -1.9912
 8650TIP3   OH247440   2.592   0.346  11.146 -0.1963  0.0865  0.0526
 8650TIP3    H147441   2.657   0.340  11.076 -0.0196  1.4316  0.0882
 8650TIP3    H247442   2.638   0.317  11.224  0.1256  0.3062 -0.0570
 8651TIP3   OH247443   6.385   0.446   5.157  1.1293  0.3018  0.3713
 8651TIP3    H147444   6.304   0.396   5.168  0.8581  0.2992 -1.5457
 8651TIP3    H247445   6.362   0.535   5.186 -0.4168  1.0139 -2.8768
 8652TIP3   OH247446   6.573   4.218  14.903  0.1406  0.7119 -0.0062
 8652TIP3    H147447   6.517   4.203  14.827 -0.6206  1.0736  0.4782
 8652TIP3    H247448   6.603   4.308  14.894  1.0129  0.3708 -0.5043
 8653TIP3   OH247449   6.085   2.522   4.696 -0.2452 -0.0968  0.1980
 8653TIP3    H147450   6.121   2.596   4.647 -0.3980  0.4619  0.9382
 8653TIP3    H247451   6.146   2.450   4.677  0.9198  0.6813  0.9398
 8654TIP3   OH247452   4.449   5.552  13.115 -0.8098 -0.0158 -0.3405
 8654TIP3    H147453   4.464   5.472  13.165 -0.1764  1.4426  1.9326
 8654TIP3    H247454   4.378   5.596  13.162 -1.3847  0.6020 -1.7591
 8655TIP3   OH247455   6.682   6.712  15.363  0.0248  0.0279  0.6004
 8655TIP3    H147456   6.708   6.657  15.289  0.7734  0.8776  0.2264
 8655TIP3    H247457   6.677   6.652  15.437  0.9829 -0.5113  0.2318
 8656TIP3   OH247458   6.618   1.693   0.648  0.7261 -0.1789  0.0489
 8656TIP3    H147459   6.619   1.645   0.731 -0.4037 -0.9979 -0.3986
 8656TIP3    H247460   6.556   1.765   0.663  0.8096 -0.1074  0.0448
 8657TIP3   OH247461   2.812   5.907   5.384 -0.0761 -0.2016  0.8438
 8657TIP3    H147462   2.773   5.822   5.362 -2.4717  1.3690 -1.2923
 8657TIP3    H247463   2.890   5.912   5.330 -1.5684  0.1716 -1.3756
 8658TIP3   OH247464   4.659   5.441  11.225  0.5712 -0.3691 -0.3076
 8658TIP3    H147465   4.688   5.371  11.284  0.2266 -1.7159 -1.6889
 8658TIP3    H247466   4.736   5.497  11.215 -0.1654  1.4846  3.6055
 8659TIP3   OH247467   1.004   4.172  12.958 -0.2967  0.4321 -0.3332
 8659TIP3    H147468   1.057   4.192  13.035 -1.4792  0.4108  0.4990
 8659TIP3    H247469   0.985   4.257  12.919  0.4338  0.4316 -0.6836
 8660TIP3   OH247470   1.113   3.803  15.460 -0.1152 -0.1433  0.1072
 8660TIP3    H147471   1.206   3.788  15.473 -0.6858 -2.5538  1.9671
 8660TIP3    H247472   1.088   3.864  15.528 -0.1184 -0.4865  0.4165
 8661TIP3   OH247473   2.449   6.135  16.380  0.2670  0.6175  0.0384
 8661TIP3    H147474   2.464   6.107  16.290  1.4689 -1.7067  0.9378
 8661TIP3    H247475   2.376   6.197  16.373 -1.1578 -1.1980 -2.2740
 8662TIP3   OH247476   6.142   0.573   6.281  0.3572 -0.3984  0.1976
 8662TIP3    H147477   6.235   0.596   6.288 -0.1306  1.6813  0.2942
 8662TIP3    H247478   6.117   0.549   6.370  0.5302  0.1505  0.3972
 8663TIP3   OH247479   3.103   6.047   4.750  0.3890 -0.0804  0.1558
 8663TIP3    H147480   3.086   5.976   4.688 -2.6780  0.6003  0.1212
 8663TIP3    H247481   3.125   6.122   4.695  1.5134 -0.4674  0.0819
 8664TIP3   OH247482   4.565   2.441   0.646 -0.8483 -0.2335  0.6299
 8664TIP3    H147483   4.491   2.445   0.706  0.8265  0.9954  2.7338
 8664TIP3    H247484   4.559   2.356   0.603 -3.4497 -0.1266  0.7501
 8665TIP3   OH247485   3.489   2.770  13.170 -0.2044 -0.4140 -0.0668
 8665TIP3    H147486   3.437   2.755  13.249 -0.8755 -0.7548 -0.5660
 8665TIP3    H247487   3.580   2.767  13.200 -0.4058 -2.0499  0.4432
 8666TIP3   OH247488   1.349   3.644   3.904  0.2683  0.1784  0.3011
 8666TIP3    H147489   1.254   3.647   3.915  0.3439  0.1381  0.9531
 8666TIP3    H247490   1.384   3.647   3.993  0.9318  2.1107 -0.0123
 8667TIP3   OH247491   0.400   5.782  12.488  0.2400 -0.7600 -0.3862
 8667TIP3    H147492   0.482   5.818  12.522  1.1584 -2.3028 -0.9361
 8667TIP3    H247493   0.374   5.716  12.551 -2.0045  1.4814  1.1772
 8668TIP3   OH247494   2.921   1.723   1.022  0.9277 -0.0592 -0.2629
 8668TIP3    H147495   2.926   1.628   1.028 -2.1643 -0.3490 -1.4624
 8668TIP3    H247496   2.880   1.751   1.104  0.2033  0.0632 -0.6601
 8669TIP3   OH247497   1.895   5.878  14.573  0.3511  0.1707  0.1191
 8669TIP3    H147498   1.903   5.911  14.484 -0.7411 -0.2515 -0.1534
 8669TIP3    H247499   1.801   5.860  14.583  0.8248 -2.2790  0.4486
 8670TIP3   OH247500   0.857   3.860   5.839 -0.5270  0.4397 -0.4865
 8670TIP3    H147501   0.799   3.927   5.873  0.1831  0.1828  1.2673
 8670TIP3    H247502   0.801   3.784   5.824 -0.7022  0.2683  0.9703
 8671TIP3   OH247503   3.636   3.783  17.199 -0.0988  0.0173 -0.0881
 8671TIP3    H147504   3.572   3.800  17.130  1.2253  0.9035 -1.1113
 8671TIP3    H247505   3.688   3.863  17.204 -0.6770  0.2941  2.4972
 8672TIP3   OH247506   4.346   2.397   3.215  0.2466 -0.5183 -0.3108
 8672TIP3    H147507   4.290   2.435   3.283  0.2679 -0.4127 -0.3518
 8672TIP3    H247508   4.316   2.438   3.134  2.0888  1.5083 -0.0153
 8673TIP3   OH247509   5.133   4.078  14.196  0.2071  0.3709 -0.2255
 8673TIP3    H147510   5.082   4.045  14.270 -0.0040  1.0715 -0.0449
 8673TIP3    H247511   5.068   4.119  14.139  0.2910 -0.7251 -1.1140
 8674TIP3   OH247512   0.189   0.955  16.839  0.3405  0.5289 -0.1195
 8674TIP3    H147513   0.110   0.936  16.890  0.5333  1.8625  0.7046
 8674TIP3    H247514   0.229   0.870  16.823 -2.0183 -0.3190 -1.8121
 8675TIP3   OH247515   5.417   3.513  15.755 -0.6454 -0.2550 -0.5455
 8675TIP3    H147516   5.357   3.454  15.800 -0.3088 -1.2501 -1.3827
 8675TIP3    H247517   5.471   3.456  15.700  0.0810  0.7701 -0.9191
 8676TIP3   OH247518   5.550   1.936   0.764  0.3635  0.4708  0.2277
 8676TIP3    H147519   5.620   1.990   0.728  1.5464 -0.4165  1.1620
 8676TIP3    H247520   5.593   1.853   0.787 -1.3112 -0.6680 -0.6665
 8677TIP3   OH247521   1.020   2.916  12.729 -0.2980  0.4303  0.6409
 8677TIP3    H147522   1.003   2.921  12.635  2.8912 -0.5988 -0.0440
 8677TIP3    H247523   0.933   2.917  12.769 -1.7218  0.5438 -2.3190
 8678TIP3   OH247524   5.057   3.886   3.459  0.0562 -0.4444 -0.3876
 8678TIP3    H147525   5.047   3.858   3.369 -0.5930 -1.6814  0.0559
 8678TIP3    H247526   4.967   3.890   3.493  0.4296 -2.7203  0.9985
 8679TIP3   OH247527   2.320   6.736  15.296  0.1340 -0.7178 -0.2352
 8679TIP3    H147528   2.263   6.702  15.364 -0.6762  0.1873 -0.4449
 8679TIP3    H247529   2.290   6.826  15.283  3.0650  0.5624  1.2790
 8680TIP3   OH247530   3.865   4.940  11.875 -0.3196 -0.1381  0.1564
 8680TIP3    H147531   3.920   4.878  11.828 -0.3914  0.0913 -0.2287
 8680TIP3    H247532   3.926   5.007  11.906 -0.1883 -0.5834  0.8811
 8681TIP3   OH247533   0.340   3.432  15.707  0.4483  0.0340  0.2206
 8681TIP3    H147534   0.343   3.377  15.629  2.2327  1.2573 -0.5916
 8681TIP3    H247535   0.263   3.487  15.695  0.5388 -0.0010 -0.5254
 8682TIP3   OH247536   0.035   2.545   5.973  0.2819  0.1605  0.3205
 8682TIP3    H147537  -0.009   2.610   5.918  0.5596 -0.4025 -0.5906
 8682TIP3    H247538   0.116   2.589   6.000  0.9045 -0.1030 -1.0378
 8683TIP3   OH247539   3.205   6.335   3.642  0.0819  0.2885 -0.2580
 8683TIP3    H147540   3.116   6.367   3.633  0.0273  0.1816 -0.1004
 8683TIP3    H247541   3.259   6.399   3.595 -0.0111  0.6803  0.1706
 8684TIP3   OH247542   5.100   5.977  15.609  0.5828  0.1579 -0.5381
 8684TIP3    H147543   5.049   5.896  15.607  2.0658 -0.7724 -1.9930
 8684TIP3    H247544   5.129   5.985  15.700 -0.2656 -0.4929 -0.2060
 8685TIP3   OH247545   4.806   6.120  16.425 -0.0529  0.3231  0.3884
 8685TIP3    H147546   4.754   6.089  16.350  0.5080  0.0391  0.1149
 8685TIP3    H247547   4.852   6.197  16.392  1.5786 -0.8377 -0.1009
 8686TIP3   OH247548   3.125   6.664   5.923 -0.1149  0.2228 -0.1801
 8686TIP3    H147549   3.180   6.589   5.903  0.7044  1.2909 -1.9979
 8686TIP3    H247550   3.129   6.672   6.019  0.7773 -1.2736 -0.0825
 8687TIP3   OH247551   2.676   6.811  16.273  0.0775  0.0314 -0.0948
 8687TIP3    H147552   2.587   6.786  16.297  0.1000  0.3378  0.3093
 8687TIP3    H247553   2.700   6.749  16.204 -0.2837 -0.3339  0.1044
 8688TIP3   OH247554   4.636   3.990  17.002  0.0755  0.2794  0.3910
 8688TIP3    H147555   4.678   3.935  17.068 -0.5911 -1.4264 -0.5969
 8688TIP3    H247556   4.610   4.069  17.050  2.7768  0.6076  1.3936
 8689TIP3   OH247557   0.134   1.019  14.232 -0.1575  0.3947 -0.1050
 8689TIP3    H147558   0.048   0.981  14.248 -0.2594  0.3709 -0.6793
 8689TIP3    H247559   0.137   1.097  14.288  0.2633 -0.7353  1.4745
 8690TIP3   OH247560   5.903   1.933  16.745  0.1952  0.2970  0.3723
 8690TIP3    H147561   5.845   1.943  16.820 -0.0818  1.6950 -0.0067
 8690TIP3    H247562   5.933   2.022  16.725  0.7469 -0.1258 -0.7886
 8691TIP3   OH247563   0.026   0.050  16.284 -0.3367  0.0932 -0.6493
 8691TIP3    H147564  -0.018   0.091  16.358 -0.8891  3.0684 -2.5387
 8691TIP3    H247565   0.120   0.066  16.300 -0.3811 -0.2750 -0.0184
 8692TIP3   OH247566   1.506   1.349   4.003  0.2861 -0.7716  0.1882
 8692TIP3    H147567   1.589   1.359   3.956 -0.6796  0.5383 -1.2919
 8692TIP3    H247568   1.464   1.274   3.960  0.7568 -1.5447  1.0535
 8693TIP3   OH247569   2.215   2.781   2.071 -0.1068  0.6512 -0.0368
 8693TIP3    H147570   2.140   2.748   2.121 -0.2786 -0.9733 -1.3057
 8693TIP3    H247571   2.176   2.816   1.991  0.4681 -0.0608 -0.6337
 8694TIP3   OH247572   6.204   1.290  16.074 -0.7296  0.3411 -0.5996
 8694TIP3    H147573   6.234   1.374  16.108  0.4364  0.9371 -3.0114
 8694TIP3    H247574   6.236   1.225  16.137  3.9825  1.1454 -1.9853
 8695TIP3   OH247575   2.391   1.486   6.386  0.1140  0.6164 -0.6501
 8695TIP3    H147576   2.387   1.407   6.332  0.3765 -0.6224  1.1196
 8695TIP3    H247577   2.308   1.488   6.433  1.2115 -0.1261  1.3718
 8696TIP3   OH247578   1.195   4.162  11.215 -0.0758 -0.1677  0.2522
 8696TIP3    H147579   1.168   4.182  11.126 -0.9108 -0.9198  0.3308
 8696TIP3    H247580   1.114   4.137  11.260  0.3285  0.2593  1.2305
 8697TIP3   OH247581   4.641   0.376  12.230  0.0223 -0.4810 -0.0558
 8697TIP3    H147582   4.554   0.350  12.201  0.1589 -0.7870 -0.1982
 8697TIP3    H247583   4.701   0.323  12.176  0.3131  0.3718 -0.5883
 8698TIP3   OH247584   3.421   4.024  13.175  0.3695  0.0903  0.0746
 8698TIP3    H147585   3.370   3.943  13.176 -1.6386  1.3183  0.1934
 8698TIP3    H247586   3.423   4.051  13.083 -0.2896  0.7079  0.2382
 8699TIP3   OH247587   4.900   0.102   2.556 -0.1962  0.0925 -0.4591
 8699TIP3    H147588   4.979   0.152   2.534 -1.1873  1.3922 -1.1057
 8699TIP3    H247589   4.865   0.147   2.633 -0.8772  0.1642 -0.8070
 8700TIP3   OH247590   3.799   3.215  16.370 -0.1728  0.5674  0.4221
 8700TIP3    H147591   3.716   3.195  16.413  0.0685  1.6298  1.4216
 8700TIP3    H247592   3.785   3.193  16.278 -2.0467  2.1385  0.3054
 8701TIP3   OH247593   6.174   5.152  16.790  0.7411  0.2822 -0.0943
 8701TIP3    H147594   6.091   5.163  16.837 -1.2177 -3.0057 -2.5599
 8701TIP3    H247595   6.241   5.159  16.858 -1.5362  2.6517  2.0308
 8702TIP3   OH247596   0.781   0.056  13.896 -0.1139 -0.2983  0.1098
 8702TIP3    H147597   0.802   0.119  13.828  1.7750  0.1119  1.0323
 8702TIP3    H247598   0.691   0.077  13.921  0.2075  1.5003 -0.1609
 8703TIP3   OH247599   2.805   5.179  17.244 -0.5295 -0.1537  0.9972
 8703TIP3    H147600   2.794   5.084  17.243 -1.0517 -0.0888  0.5038
 8703TIP3    H247601   2.835   5.201  17.156  0.6126  0.0250  1.4196
 8704TIP3   OH247602   1.299   3.338  14.840  0.4514 -0.2342 -0.0505
 8704TIP3    H147603   1.210   3.366  14.866 -0.0370 -0.5881 -1.3087
 8704TIP3    H247604   1.331   3.410  14.786  1.0358 -0.0085  0.5823
 8705TIP3   OH247605   0.195   3.285  16.891 -0.1095 -0.0899  0.0820
 8705TIP3    H147606   0.150   3.322  16.967  1.8035  0.6785  0.8738
 8705TIP3    H247607   0.149   3.322  16.816 -0.5442  1.0124  0.8804
 8706TIP3   OH247608   5.149   3.471   0.812  0.3074 -0.1095 -0.0576
 8706TIP3    H147609   5.148   3.434   0.724  1.4218 -0.7302  0.1806
 8706TIP3    H247610   5.181   3.561   0.800  0.6596 -0.2619 -0.2603
 8707TIP3   OH247611   6.020   3.585   2.830  0.2281  0.0046 -0.3698
 8707TIP3    H147612   6.054   3.575   2.919 -1.9106 -2.0619  0.2691
 8707TIP3    H247613   5.929   3.557   2.836 -0.0907  0.3217 -3.1258
 8708TIP3   OH247614   0.962   6.122  14.886 -0.2301  0.0620  0.0299
 8708TIP3    H147615   0.911   6.081  14.816 -0.0562 -0.5666  0.2739
 8708TIP3    H247616   0.912   6.106  14.966  0.1613 -0.2369  0.2188
 8709TIP3   OH247617   1.651   0.261   0.938 -0.1792  0.2343  0.5087
 8709TIP3    H147618   1.737   0.302   0.934  0.1629 -0.3186  2.0913
 8709TIP3    H247619   1.650   0.201   0.863  1.2351 -0.5322  1.0736
 8710TIP3   OH247620   2.097   0.838   1.265  0.4373  0.2950  0.3109
 8710TIP3    H147621   2.069   0.927   1.288 -0.4689 -0.3854  1.8834
 8710TIP3    H247622   2.164   0.851   1.198 -0.5164  2.1190 -0.3113
 8711TIP3   OH247623   2.857   5.149   4.666 -0.0610  0.2795 -0.2297
 8711TIP3    H147624   2.891   5.060   4.672 -0.2664  0.2133  0.0093
 8711TIP3    H247625   2.926   5.200   4.624 -0.4886 -0.2822 -1.6310
 8712TIP3   OH247626   0.510   5.178   4.444  0.0069 -0.4336 -0.1532
 8712TIP3    H147627   0.583   5.188   4.383 -0.2908 -0.2254 -0.4723
 8712TIP3    H247628   0.511   5.258   4.496  0.8091 -0.9906  0.7094
 8713TIP3   OH247629   4.534   1.664  16.105 -0.2588 -0.2788  0.1444
 8713TIP3    H147630   4.469   1.692  16.168  1.9431  3.8712  0.7503
 8713TIP3    H247631   4.491   1.674  16.020 -2.4618 -3.7250  0.7580
 8714TIP3   OH247632   0.524   4.684   2.008 -0.3965 -0.0229 -0.1096
 8714TIP3    H147633   0.481   4.601   2.027  0.0211  0.0286  1.1004
 8714TIP3    H247634   0.605   4.682   2.058 -1.0929  1.7261  1.1623
 8715TIP3   OH247635   3.042   3.405   4.170  0.6119 -0.4567  0.2105
 8715TIP3    H147636   3.066   3.433   4.082 -0.6769 -0.3454 -0.1098
 8715TIP3    H247637   3.051   3.309   4.168  1.3513 -0.3915  0.2028
 8716TIP3   OH247638   4.436   4.149  14.276  0.0470  0.1629 -0.0898
 8716TIP3    H147639   4.354   4.098  14.277 -0.9795  1.7982  0.7356
 8716TIP3    H247640   4.421   4.217  14.210  0.5539  0.7872  0.4387
 8717TIP3   OH247641   4.002   3.743  11.439 -0.5807  0.7033  0.5277
 8717TIP3    H147642   4.076   3.697  11.401 -0.6348  1.0986 -0.0661
 8717TIP3    H247643   3.930   3.680  11.436 -0.2726  0.3253  1.0922
 8718TIP3   OH247644   5.641   0.521  12.254 -0.3248 -0.3451  0.3069
 8718TIP3    H147645   5.563   0.558  12.212 -0.2121  0.6219  0.9288
 8718TIP3    H247646   5.705   0.513  12.183 -0.6516 -0.1850 -0.0107
 8719TIP3   OH247647   5.391   5.971   2.242 -0.0078 -0.1644 -0.4429
 8719TIP3    H147648   5.382   6.064   2.263 -1.7999 -0.5590  0.6720
 8719TIP3    H247649   5.314   5.951   2.189 -0.0189 -1.1965 -0.0460
 8720TIP3   OH247650   6.076   6.398  14.415  0.1652  0.0163  0.0936
 8720TIP3    H147651   6.002   6.358  14.461 -0.6049  0.9438 -0.3211
 8720TIP3    H247652   6.153   6.361  14.458 -0.5306 -1.3329  0.2074
 8721TIP3   OH247653   1.847   3.716  14.865 -0.2378  0.3186 -0.9974
 8721TIP3    H147654   1.766   3.667  14.876  0.8453 -1.1425  0.6915
 8721TIP3    H247655   1.915   3.649  14.854  1.1604  1.4458  0.4854
 8722TIP3   OH247656   5.404   5.170   0.208  0.5565  0.3052 -0.1447
 8722TIP3    H147657   5.433   5.259   0.188  1.1944  0.0233 -0.5069
 8722TIP3    H247658   5.481   5.128   0.248  0.0070  0.1613  0.7734
 8723TIP3   OH247659   3.977   3.991  16.369 -0.0908 -0.1185 -0.4465
 8723TIP3    H147660   4.022   3.917  16.327 -0.2973 -0.2976 -0.3540
 8723TIP3    H247661   3.902   4.009  16.313 -0.1493 -0.1052 -0.3638
 8724TIP3   OH247662   5.446   5.291   3.110 -0.6111 -0.2291  0.2881
 8724TIP3    H147663   5.516   5.296   3.045 -0.4075  0.0479  0.5253
 8724TIP3    H247664   5.369   5.263   3.061 -0.1864 -1.1489  0.1410
 8725TIP3   OH247665   1.902   3.876  13.948  0.1011  0.2959  0.1015
 8725TIP3    H147666   1.898   3.926  13.866 -1.7247  0.7476  0.4362
 8725TIP3    H247667   1.862   3.792  13.926  1.7526 -0.4668 -0.0573
 8726TIP3   OH247668   6.289   4.288   6.072  0.0959  0.0448 -0.4893
 8726TIP3    H147669   6.229   4.354   6.037  1.9111  2.9112  1.5849
 8726TIP3    H247670   6.242   4.250   6.146 -0.9831 -1.0812 -1.7278
 8727TIP3   OH247671   4.312   4.830  13.837  0.5348  0.1774  0.1745
 8727TIP3    H147672   4.297   4.785  13.920  0.2706  0.2682  0.1774
 8727TIP3    H247673   4.405   4.819  13.820  0.4288 -0.5515  0.0679
 8728TIP3   OH247674   4.794   5.934  16.990 -0.5096  0.3824 -0.1553
 8728TIP3    H147675   4.787   5.993  16.915 -1.4125  0.0297 -0.3543
 8728TIP3    H247676   4.844   5.859  16.957  1.4520  1.4266  0.3519
 8729TIP3   OH247677   5.202   4.822   5.408  0.0931 -0.6483  0.4594
 8729TIP3    H147678   5.141   4.778   5.350  1.6645  0.3246 -2.0043
 8729TIP3    H247679   5.147   4.865   5.473 -1.7129 -1.6851 -0.3533
 8730TIP3   OH247680   0.249   4.105  10.416 -0.6534 -0.0981 -0.1476
 8730TIP3    H147681   0.173   4.144  10.460 -1.4690 -2.2826  0.4154
 8730TIP3    H247682   0.296   4.060  10.486  0.5137  0.1880 -0.7286
 8731TIP3   OH247683   5.714   5.608   4.289 -0.5604  0.8495  0.4051
 8731TIP3    H147684   5.656   5.682   4.305 -1.5080  0.0040  0.9536
 8731TIP3    H247685   5.744   5.582   4.375  1.4646  1.9104  0.0476
 8732TIP3   OH247686   4.094   0.639  17.255  0.9881 -0.5702 -0.0548
 8732TIP3    H147687   4.101   0.668  17.164  1.0058 -0.1651  0.0738
 8732TIP3    H247688   4.052   0.553  17.250  1.0458 -0.5744 -0.4513
 8733TIP3   OH247689   4.437   0.876  15.586 -0.6597 -0.1483  0.5023
 8733TIP3    H147690   4.513   0.922  15.622 -0.2627 -1.2935  1.1513
 8733TIP3    H247691   4.464   0.852  15.497 -0.1567 -0.7999  0.8290
 8734TIP3   OH247692   5.644   3.981   3.350 -0.0609 -0.1768  0.5141
 8734TIP3    H147693   5.557   3.999   3.386  0.1461  1.5567  0.1983
 8734TIP3    H247694   5.630   3.969   3.256 -0.1942 -1.7086  0.7192
 8735TIP3   OH247695   6.293   6.604   3.260 -0.0546  0.1143  0.2524
 8735TIP3    H147696   6.252   6.681   3.221  0.2838  0.9376  1.4671
 8735TIP3    H247697   6.232   6.532   3.244  0.1811  0.3786 -1.9482
 8736TIP3   OH247698   6.467   5.296   1.836  0.4934 -0.5229  0.0980
 8736TIP3    H147699   6.375   5.277   1.852  0.3136  0.0345 -0.2475
 8736TIP3    H247700   6.484   5.377   1.883  0.6346 -0.2703 -0.3824
 8737TIP3   OH247701   2.271   2.846  14.653 -0.3476 -0.6201  0.2676
 8737TIP3    H147702   2.188   2.819  14.616 -1.5120  0.3755  2.0722
 8737TIP3    H247703   2.249   2.882  14.739  2.0935 -1.6402  1.3862
 8738TIP3   OH247704   0.133   3.118   1.399 -0.9415 -0.4092  0.2911
 8738TIP3    H147705   0.137   3.086   1.489  0.0921 -0.8387  0.1001
 8738TIP3    H247706   0.044   3.097   1.370 -1.3054 -0.1918  1.2377
 8739TIP3   OH247707   4.293   1.555  14.511  0.3587 -0.5797 -0.2850
 8739TIP3    H147708   4.212   1.505  14.502  0.0164 -0.2662  0.9111
 8739TIP3    H247709   4.354   1.494  14.552  0.3210 -0.4047  0.0314
 8740TIP3   OH247710   2.700   1.844   5.171 -0.0917  0.0956  0.2085
 8740TIP3    H147711   2.674   1.847   5.079 -0.2947  3.3472  0.3322
 8740TIP3    H247712   2.785   1.799   5.170  0.3825  0.9852 -1.7129
 8741TIP3   OH247713   5.418   4.108   2.615  0.1030  0.0760 -0.0690
 8741TIP3    H147714   5.424   4.203   2.618 -0.4252  0.1150 -0.1242
 8741TIP3    H247715   5.435   4.085   2.524 -0.8605  0.2068 -0.2912
 8742TIP3   OH247716   3.648   3.038  12.546 -0.2379  0.1659  0.2550
 8742TIP3    H147717   3.653   3.004  12.636 -0.9304  0.2582  0.3347
 8742TIP3    H247718   3.739   3.046  12.518 -0.0160  0.1676  0.9631
 8743TIP3   OH247719   3.998   4.355   2.779  0.1329 -0.4540 -0.3396
 8743TIP3    H147720   3.932   4.334   2.714  0.6330  1.0138 -1.3465
 8743TIP3    H247721   4.020   4.271   2.820  0.2723 -1.4746 -2.4833
 8744TIP3   OH247722   2.997   3.176  16.227 -0.1931 -0.4305  0.4313
 8744TIP3    H147723   2.998   3.245  16.160 -2.0181 -1.6349 -0.8975
 8744TIP3    H247724   2.922   3.197  16.283 -1.1415 -1.6253 -0.3485
 8745TIP3   OH247725   4.305   5.810   4.919  0.2848  0.4325 -0.0357
 8745TIP3    H147726   4.360   5.757   4.976  0.5254  0.3172 -0.3667
 8745TIP3    H247727   4.305   5.897   4.959  1.1422  0.5691 -0.3052
 8746TIP3   OH247728   0.708   1.347   3.092  0.2445  0.1716  0.3734
 8746TIP3    H147729   0.799   1.377   3.092  0.0691  0.7106  0.2645
 8746TIP3    H247730   0.714   1.251   3.089  0.7990  0.2255 -0.2438
 8747TIP3   OH247731   0.459   1.459   3.171 -0.0898 -0.2719  0.1072
 8747TIP3    H147732   0.385   1.440   3.113 -0.1944  1.0583 -0.2135
 8747TIP3    H247733   0.529   1.404   3.139 -0.2599  0.1887 -1.0753
 8748TIP3   OH247734   2.611   6.363  13.252  0.6361  0.1526 -0.2436
 8748TIP3    H147735   2.618   6.281  13.300  0.4762  0.1932 -0.1528
 8748TIP3    H247736   2.692   6.368  13.201  0.8198  0.1292  0.0465
 8749TIP3   OH247737   4.426   2.179   0.171  0.1514  0.2516 -0.1993
 8749TIP3    H147738   4.477   2.127   0.109  0.2409  0.4068 -0.2579
 8749TIP3    H247739   4.466   2.266   0.166 -1.5157  0.9608 -1.8772
 8750TIP3   OH247740   6.289   0.016  17.229  0.3459  0.5089  0.4618
 8750TIP3    H147741   6.224   0.013  17.159  2.4595 -2.6957 -1.5056
 8750TIP3    H247742   6.361   0.068  17.193  0.0308  1.7369  1.5749
 8751TIP3   OH247743   0.751   2.651  15.140 -0.2269  0.6476  0.1971
 8751TIP3    H147744   0.810   2.577  15.154  1.2947  1.8768  0.3943
 8751TIP3    H247745   0.700   2.657  15.221  0.0677  0.1939  0.4161
 8752TIP3   OH247746   5.999   5.630   4.467 -0.4764 -0.9934  0.1425
 8752TIP3    H147747   5.911   5.653   4.497 -1.1561  0.2251 -2.6335
 8752TIP3    H247748   6.053   5.707   4.486 -0.9400 -0.1622 -1.7726
 8753TIP3   OH247749   0.426   4.040  12.989 -0.2024  0.1613  0.1777
 8753TIP3    H147750   0.474   4.098  12.931 -0.3287  0.2358  0.1487
 8753TIP3    H247751   0.438   4.078  13.076  0.9091 -0.5587  0.3519
 8754TIP3   OH247752   6.642   5.438  12.002  0.2630 -0.4419  0.2624
 8754TIP3    H147753   6.580   5.493  12.049  3.3690  1.6758  2.0574
 8754TIP3    H247754   6.605   5.350  12.007 -2.5391  0.7481  1.2993
 8755TIP3   OH247755   1.335   1.328   2.285  0.0792 -0.1006  0.6337
 8755TIP3    H147756   1.242   1.321   2.261  0.4107  0.3066 -0.8646
 8755TIP3    H247757   1.340   1.408   2.337 -0.2513  0.4192 -0.1285
 8756TIP3   OH247758   1.131   4.280  16.554  0.0871 -0.0420 -0.5859
 8756TIP3    H147759   1.113   4.234  16.472  0.7328  0.9184 -1.2612
 8756TIP3    H247760   1.044   4.309  16.584 -0.0810  0.1163 -1.2182
 8757TIP3   OH247761   6.758   5.260  14.179  0.1367  0.3863  0.2663
 8757TIP3    H147762   6.664   5.260  14.163  0.1600  0.4588  0.1392
 8757TIP3    H247763   6.780   5.351  14.199  0.4829  0.6675 -1.3943
 8758TIP3   OH247764   0.692   3.550   4.163 -0.3176 -0.3177 -0.0758
 8758TIP3    H147765   0.637   3.608   4.216  0.7051  0.6373 -0.0369
 8758TIP3    H247766   0.685   3.584   4.074  0.2645 -0.1500 -0.0587
 8759TIP3   OH247767   4.136   1.509  13.343 -0.0188  0.2956 -0.2229
 8759TIP3    H147768   4.231   1.520  13.345  0.1888 -1.2236 -0.5325
 8759TIP3    H247769   4.117   1.483  13.253 -0.7542  0.7991 -0.2139
 8760TIP3   OH247770   5.934   5.211  15.431 -0.0537 -0.3021  0.5626
 8760TIP3    H147771   5.861   5.241  15.377 -1.7303 -0.2833  2.7752
 8760TIP3    H247772   5.989   5.160  15.371 -1.7971 -0.1863 -1.1830
 8761TIP3   OH247773   3.152   3.458  12.677  0.5856  0.5383 -0.7585
 8761TIP3    H147774   3.157   3.503  12.761 -1.0562 -0.7944  0.0846
 8761TIP3    H247775   3.199   3.376  12.691  1.3048  0.8159 -1.5005
 8762TIP3   OH247776   0.207   6.047   2.669 -0.1275 -0.0110  0.0579
 8762TIP3    H147777   0.250   6.111   2.613 -0.9235 -0.1313 -0.7052
 8762TIP3    H247778   0.253   5.965   2.651 -0.1118  0.0347 -0.1165
 8763TIP3   OH247779   2.473   3.876   3.474 -0.2279 -0.3104 -0.6114
 8763TIP3    H147780   2.386   3.856   3.509 -0.2351  0.6043 -0.0901
 8763TIP3    H247781   2.534   3.838   3.538 -0.2412  0.6300 -0.0451
 8764TIP3   OH247782   1.678   0.833  12.995  0.1556 -0.9146  0.4254
 8764TIP3    H147783   1.700   0.794  13.080  1.7006  0.1889  0.5554
 8764TIP3    H247784   1.632   0.915  13.017  2.5186  0.4940  0.2565
 8765TIP3   OH247785   6.007   1.428  11.910 -0.1564 -0.1611  0.3007
 8765TIP3    H147786   5.957   1.496  11.864 -0.3353  0.1100  0.8903
 8765TIP3    H247787   6.080   1.475  11.949  1.5036 -0.8146 -1.9305
 8766TIP3   OH247788   4.546   3.380   4.492 -0.7494 -0.1725 -0.3810
 8766TIP3    H147789   4.634   3.376   4.529 -1.0568 -0.7086  0.3046
 8766TIP3    H247790   4.512   3.291   4.500 -1.8995  0.3367  0.7565
 8767TIP3   OH247791   1.522   6.382  17.087  0.1936 -0.1183 -0.5992
 8767TIP3    H147792   1.609   6.424  17.089 -0.4753  1.2174  0.7751
 8767TIP3    H247793   1.463   6.447  17.124 -0.9065 -2.2509  1.4732
 8768TIP3   OH247794   5.500   4.109  15.646 -0.1478 -0.0441  0.4057
 8768TIP3    H147795   5.494   4.204  15.652 -0.0852 -0.0074 -0.0855
 8768TIP3    H247796   5.579   4.087  15.696 -0.0247  0.1838  0.3119
 8769TIP3   OH247797   1.231   6.445   2.671 -0.8440  0.1204 -0.3160
 8769TIP3    H147798   1.280   6.372   2.709 -0.1445 -0.3386 -2.0925
 8769TIP3    H247799   1.140   6.418   2.675 -0.8246  0.2412  1.3813
 8770TIP3   OH247800   3.868   6.140   2.062  0.0398  0.6420  0.3533
 8770TIP3    H147801   3.834   6.157   1.974 -0.9409  0.0133  0.6025
 8770TIP3    H247802   3.913   6.056   2.054  0.2516  0.7549  0.3691
 8771TIP3   OH247803   6.153   5.345   1.384  0.3354  0.1205 -0.0795
 8771TIP3    H147804   6.176   5.331   1.292 -0.5047  0.0512 -0.2787
 8771TIP3    H247805   6.128   5.259   1.416  2.6355 -0.2685  0.7936
 8772TIP3   OH247806   6.739   3.784   0.020 -0.4750 -0.4839 -0.2202
 8772TIP3    H147807   6.773   3.872   0.002  0.0727 -0.5828  0.2998
 8772TIP3    H247808   6.698   3.757  -0.062 -1.0819  0.4550 -0.2262
 8773TIP3   OH247809   5.751   6.264  17.291 -0.3827 -0.7748 -0.2676
 8773TIP3    H147810   5.833   6.308  17.315 -1.4554  1.1187  0.0860
 8773TIP3    H247811   5.773   6.211  17.215  1.7907 -2.4400  1.4618
 8774TIP3   OH247812   6.386   5.486   0.821 -0.2033 -0.0973  0.0803
 8774TIP3    H147813   6.296   5.494   0.790 -0.1717  0.7324  0.2062
 8774TIP3    H247814   6.378   5.468   0.915 -0.2748 -1.7397 -0.2218
 8775TIP3   OH247815   4.712   1.855   6.112  0.4436  0.5187 -0.0013
 8775TIP3    H147816   4.634   1.892   6.069 -0.2661 -1.2683 -0.2976
 8775TIP3    H247817   4.736   1.920   6.178 -1.3313  1.0842  0.1114
 8776TIP3   OH247818   4.571   2.747  16.083  0.4336 -0.0051 -0.1498
 8776TIP3    H147819   4.560   2.709  16.170 -3.3325  0.6638 -0.2905
 8776TIP3    H247820   4.569   2.672  16.024  0.1439 -0.1938  0.1036
 8777TIP3   OH247821   3.790   0.950   3.558 -0.2591  0.4345 -0.1873
 8777TIP3    H147822   3.833   1.015   3.612 -1.0763  0.5461  0.3315
 8777TIP3    H247823   3.852   0.933   3.486  0.5709  0.7042  0.4618
 8778TIP3   OH247824   5.629   3.376  13.625 -0.1457  0.1550 -0.0629
 8778TIP3    H147825   5.637   3.302  13.565 -0.5239  1.8049 -2.2026
 8778TIP3    H247826   5.610   3.336  13.710 -1.4605 -2.1527 -1.3872
 8779TIP3   OH247827   0.147   1.407   3.480  0.0685  0.8623  0.5461
 8779TIP3    H147828   0.084   1.432   3.412  2.2517  0.2326 -1.8274
 8779TIP3    H247829   0.123   1.317   3.503  1.2374 -0.1046 -1.8027
 8780TIP3   OH247830   0.423   2.590   3.083 -0.0223  0.4569 -0.1021
 8780TIP3    H147831   0.398   2.612   2.994  1.4274 -0.3398 -0.7254
 8780TIP3    H247832   0.341   2.588   3.132 -0.8549  0.5733 -1.4945
 8781TIP3   OH247833   6.352   2.797  16.176 -0.1472 -0.6388  0.2126
 8781TIP3    H147834   6.286   2.729  16.188 -1.6830  0.4638 -1.6390
 8781TIP3    H247835   6.409   2.763  16.106 -0.6701 -0.2201 -0.4236
 8782TIP3   OH247836   5.646   3.661  13.617  0.4191 -0.6196  0.8659
 8782TIP3    H147837   5.722   3.695  13.571  0.1290 -0.6510  0.3656
 8782TIP3    H247838   5.645   3.568  13.596  2.0583 -1.2523  3.4134
 8783TIP3   OH247839   2.374   6.138  12.076 -0.1313 -0.3486 -0.3293
 8783TIP3    H147840   2.391   6.044  12.078 -0.6572 -0.4271  1.3499
 8783TIP3    H247841   2.369   6.164  12.168  1.5147  1.6078 -0.7572
 8784TIP3   OH247842   6.572   1.560  16.123 -0.0746 -0.0488  0.2404
 8784TIP3    H147843   6.580   1.612  16.202 -2.7060  1.7930 -0.6463
 8784TIP3    H247844   6.590   1.621  16.052  1.1813 -1.4165 -0.6358
 8785TIP3   OH247845   2.032   0.132   5.890 -0.1023 -0.0218  0.3599
 8785TIP3    H147846   2.048   0.142   5.984  1.7390 -3.0539  0.4341
 8785TIP3    H247847   1.985   0.048   5.883  0.5352 -0.2509 -1.4829
 8786TIP3   OH247848   2.976   5.683  16.213 -0.5607 -0.3432 -0.4167
 8786TIP3    H147849   3.004   5.638  16.133 -0.0639 -0.7175 -0.0309
 8786TIP3    H247850   2.880   5.687  16.205 -0.5406 -0.6804 -0.8689
 8787TIP3   OH247851   6.152   3.098  13.953  0.4179 -0.0749  0.1330
 8787TIP3    H147852   6.203   3.142  13.885  1.5846 -0.7864  0.5342
 8787TIP3    H247853   6.176   3.006  13.946 -1.8144 -0.6420 -0.5369
 8788TIP3   OH247854   4.890   4.528  13.682 -0.1987 -0.2563  0.7504
 8788TIP3    H147855   4.884   4.610  13.731 -0.5136 -0.3936  0.9472
 8788TIP3    H247856   4.907   4.555  13.591 -0.2810  0.0273  0.8186
 8789TIP3   OH247857   1.372   5.831  16.492  0.6224  0.1297  0.0568
 8789TIP3    H147858   1.445   5.796  16.544 -0.2668  0.4498  1.5463
 8789TIP3    H247859   1.309   5.759  16.489 -0.1041  0.7175  0.9560
 8790TIP3   OH247860   5.597   0.863  14.012  0.3241 -0.1550  0.4203
 8790TIP3    H147861   5.595   0.888  14.104 -0.9501 -0.4727  0.4831
 8790TIP3    H247862   5.517   0.811  14.000  2.3985 -3.4192  0.1021
 8791TIP3   OH247863   2.711   5.669   2.537 -0.3015 -0.4336  0.1823
 8791TIP3    H147864   2.698   5.741   2.598  1.1620  0.2577 -0.2916
 8791TIP3    H247865   2.771   5.704   2.470 -0.0901 -1.8697 -0.4154
 8792TIP3   OH247866   5.347   3.053   2.334  0.1143 -0.4502 -0.4813
 8792TIP3    H147867   5.374   3.067   2.244  0.8935  0.9928 -0.0348
 8792TIP3    H247868   5.318   2.962   2.337  0.8435 -0.7324 -1.9948
 8793TIP3   OH247869   0.382   3.025   4.988 -0.0840  0.3381  0.0293
 8793TIP3    H147870   0.302   3.077   4.984 -1.0463 -1.1160  0.1863
 8793TIP3    H247871   0.448   3.085   5.024 -0.8650  1.8194 -0.9759
 8794TIP3   OH247872   3.722   3.651  14.714  0.3614  0.4114  0.2018
 8794TIP3    H147873   3.791   3.630  14.651  1.7181  1.7593  1.2064
 8794TIP3    H247874   3.762   3.632  14.799  0.3044  3.3619  0.9253
 8795TIP3   OH247875   1.582   1.341   2.413 -0.4158 -0.1931  0.2549
 8795TIP3    H147876   1.510   1.312   2.357 -0.9835  0.7559  0.4676
 8795TIP3    H247877   1.556   1.316   2.501 -0.2842 -0.2462  0.2781
 8796TIP3   OH247878   0.378   5.819  15.790  0.0829 -0.6553 -0.4494
 8796TIP3    H147879   0.420   5.746  15.835  1.9251  0.4416 -0.3391
 8796TIP3    H247880   0.302   5.840  15.844 -1.0334 -3.0956 -0.9993
 8797TIP3   OH247881   5.601   5.302  14.282 -0.2920 -0.6329  0.6705
 8797TIP3    H147882   5.557   5.242  14.343 -2.1788  0.2106  0.1872
 8797TIP3    H247883   5.579   5.390  14.314  2.9746 -0.1489  1.7432
 8798TIP3   OH247884   5.208   1.796   1.005 -0.2712  0.1745  0.2488
 8798TIP3    H147885   5.157   1.863   1.049 -2.2382 -1.2970  0.2671
 8798TIP3    H247886   5.220   1.829   0.916 -0.5115  0.9223  0.4919
 8799TIP3   OH247887   1.899   1.876  17.005 -0.2017 -0.0979  0.1633
 8799TIP3    H147888   1.936   1.789  16.992 -0.4687 -0.6241  2.6779
 8799TIP3    H247889   1.957   1.934  16.954  1.1809 -1.4933  0.0960
 8800TIP3   OH247890   1.215   2.673   3.059 -0.3571  0.0019  0.5713
 8800TIP3    H147891   1.233   2.732   3.132  1.3861  0.6673 -0.3572
 8800TIP3    H247892   1.228   2.586   3.095 -1.6862  0.2199  1.6202
 8801TIP3   OH247893   1.425   5.651  10.362  0.3925 -0.1340  0.0772
 8801TIP3    H147894   1.384   5.697  10.435  2.5070  0.8207  0.6897
 8801TIP3    H247895   1.377   5.682  10.285 -1.7740 -1.0632  1.0172
 8802TIP3   OH247896   3.751   2.377  13.784  0.2854  0.8107 -0.0496
 8802TIP3    H147897   3.718   2.467  13.776  0.5581  0.8869 -0.3096
 8802TIP3    H247898   3.822   2.371  13.720 -0.2059  0.1968 -0.5487
 8803TIP3   OH247899   6.151   1.894  12.063  0.3102  0.6280  0.1151
 8803TIP3    H147900   6.236   1.883  12.107 -0.4646  2.4828  2.1507
 8803TIP3    H247901   6.163   1.968  12.005 -0.7539  2.9197  2.7172
 8804TIP3   OH247902   5.678   5.789   5.779 -0.0242  0.0987 -0.2005
 8804TIP3    H147903   5.653   5.805   5.688  0.7925 -1.2175 -0.6714
 8804TIP3    H247904   5.725   5.868   5.806 -2.3754  1.5142 -0.1207
 8805TIP3   OH247905   4.037   0.390   1.537 -0.9622  0.3272 -0.1430
 8805TIP3    H147906   4.000   0.476   1.523  0.2732  0.4731 -2.7679
 8805TIP3    H247907   4.077   0.395   1.624 -2.1065  1.9349  0.3030
 8806TIP3   OH247908   1.908   2.829   1.468  0.6711  0.4740 -0.1355
 8806TIP3    H147909   1.976   2.873   1.416 -0.6140  1.4653 -0.9946
 8806TIP3    H247910   1.851   2.900   1.498  0.0082 -0.3538  0.5929
 8807TIP3   OH247911   0.315   1.766   4.983 -0.6071  0.2389  0.9576
 8807TIP3    H147912   0.373   1.732   4.915 -1.6344 -0.1737  0.2727
 8807TIP3    H247913   0.344   1.856   4.996 -0.5467  0.3857 -0.1868
 8808TIP3   OH247914   2.021   2.074   1.891  0.3446  0.1914  0.0077
 8808TIP3    H147915   2.069   1.992   1.883 -0.6898 -0.4760  0.5294
 8808TIP3    H247916   1.949   2.066   1.828  2.5139  2.3690 -2.8895
 8809TIP3   OH247917   0.837   4.597   6.388  0.0289 -0.2203  0.1894
 8809TIP3    H147918   0.893   4.548   6.448 -0.2681 -1.2901 -0.3938
 8809TIP3    H247919   0.864   4.688   6.399  0.4038 -0.4710  1.4841
 8810TIP3   OH247920   3.876   6.055   1.307 -0.3922  0.3894 -0.3459
 8810TIP3    H147921   3.851   6.043   1.215 -2.4108  0.0496  0.2100
 8810TIP3    H247922   3.857   5.970   1.348  2.5024 -0.1516 -0.0117
 8811TIP3   OH247923   0.900   4.008   1.967 -0.1683  0.2611  0.2433
 8811TIP3    H147924   0.957   4.061   1.910 -1.7287 -0.7801 -2.4105
 8811TIP3    H247925   0.898   3.922   1.925 -0.8955 -0.7285  2.2513
 8812TIP3   OH247926   6.375   1.971  11.586  0.4539  0.7305  0.2064
 8812TIP3    H147927   6.432   2.044  11.611 -2.8446  2.5492  2.9117
 8812TIP3    H247928   6.365   1.979  11.491  1.5969  2.7122  0.2313
 8813TIP3   OH247929   5.828   5.562   5.539  0.0472 -0.3741 -0.1167
 8813TIP3    H147930   5.806   5.546   5.631 -0.9111 -0.9736 -0.4416
 8813TIP3    H247931   5.822   5.476   5.498 -0.3300  0.0299 -0.9120
 8814TIP3   OH247932   6.514   5.009   6.672 -0.3298  0.2901  0.2068
 8814TIP3    H147933   6.456   5.040   6.603  1.1660 -3.3979 -2.8640
 8814TIP3    H247934   6.590   5.068   6.668  0.0964 -0.3686 -1.8633
 8815TIP3   OH247935   0.261   3.909  13.400 -0.1243  0.4818  0.4170
 8815TIP3    H147936   0.278   3.816  13.381  1.2387  0.9322 -0.7054
 8815TIP3    H247937   0.186   3.932  13.345  0.2358  0.3197 -0.1463
 8816TIP3   OH247938   4.881   1.400   6.403 -0.0845  0.1100 -0.8680
 8816TIP3    H147939   4.922   1.330   6.455  1.2566 -0.5827 -2.8129
 8816TIP3    H247940   4.913   1.480   6.444 -2.2145 -0.3494  1.8384
 8817TIP3   OH247941   3.833   6.272   0.515 -0.0022  0.1994 -0.2292
 8817TIP3    H147942   3.798   6.254   0.603  1.6604  2.0112  0.8612
 8817TIP3    H247943   3.802   6.360   0.495  2.2370  1.0617 -0.0681
 8818TIP3   OH247944   5.020   3.613  13.554 -0.4492  0.0652  0.1665
 8818TIP3    H147945   5.051   3.644  13.469 -0.8888  3.2911  1.1187
 8818TIP3    H247946   5.061   3.671  13.617  0.5801 -2.8510  2.2921
 8819TIP3   OH247947   2.387   4.191  14.955  0.3172  0.0610  0.1284
 8819TIP3    H147948   2.353   4.252  15.021  1.6256  0.0746  0.8039
 8819TIP3    H247949   2.331   4.114  14.963 -0.1870  0.4597  0.5447
 8820TIP3   OH247950   6.233   1.685   4.377 -0.1800  0.2265  0.3107
 8820TIP3    H147951   6.268   1.596   4.365  0.4163  0.7516 -1.9414
 8820TIP3    H247952   6.186   1.703   4.296 -1.5833  1.4020  1.3786
 8821TIP3   OH247953   3.386   4.412  16.016 -0.4855 -0.2336  0.4039
 8821TIP3    H147954   3.324   4.485  16.018 -1.0613 -0.7028  0.0458
 8821TIP3    H247955   3.469   4.449  16.044 -0.9157  0.4257  0.8036
 8822TIP3   OH247956   0.243   3.633  11.597 -0.0285  0.5126 -0.3974
 8822TIP3    H147957   0.332   3.616  11.629 -0.0250  0.4668 -0.4315
 8822TIP3    H247958   0.252   3.709  11.540  0.2211 -0.3152 -1.4812
 8823TIP3   OH247959   1.730   5.500  11.663  0.5343  0.2134  0.1129
 8823TIP3    H147960   1.785   5.431  11.700 -0.1687  0.4453  1.6089
 8823TIP3    H247961   1.742   5.491  11.568  1.7638 -0.8712  0.3522
 8824TIP3   OH247962   4.568   4.426  16.605  0.2018 -0.9722  0.1926
 8824TIP3    H147963   4.611   4.421  16.690  1.4280 -0.1833 -0.3622
 8824TIP3    H247964   4.640   4.426  16.542 -0.5898  0.3532 -0.7516
 8825TIP3   OH247965   4.937   2.473   2.419 -0.5971  0.0795  0.5164
 8825TIP3    H147966   4.905   2.518   2.497 -1.2315 -1.2337  1.0358
 8825TIP3    H247967   4.873   2.494   2.351 -1.8563 -1.4205  1.2023
 8826TIP3   OH247968   0.856   1.099   2.604  0.4531 -0.0264 -0.5629
 8826TIP3    H147969   0.946   1.069   2.621  0.3389  0.1530  0.3711
 8826TIP3    H247970   0.842   1.168   2.668 -0.1559  0.3356 -1.0901
 8827TIP3   OH247971   1.716   2.301   3.689 -0.2306 -0.1084 -0.0381
 8827TIP3    H147972   1.713   2.358   3.611  0.2134  1.2768  0.9298
 8827TIP3    H247973   1.805   2.267   3.689 -0.0911  0.2528  0.1112
 8828TIP3   OH247974   4.013   6.286   0.008  0.2026  0.8033  0.6339
 8828TIP3    H147975   3.924   6.285  -0.026  0.1847  1.3537  0.6539
 8828TIP3    H247976   4.004   6.318   0.098  0.3299  0.0670  0.9106
 8829TIP3   OH247977   0.277   0.553   1.535  0.2773 -0.0375 -0.0432
 8829TIP3    H147978   0.194   0.565   1.582  0.2281 -0.1652 -0.0950
 8829TIP3    H247979   0.299   0.640   1.502 -0.3830 -0.1969 -0.9283
 8830TIP3   OH247980   4.040   2.807  14.357 -0.2859  0.0445  0.2817
 8830TIP3    H147981   4.053   2.865  14.282  0.1133 -0.0762  0.2563
 8830TIP3    H247982   3.951   2.826  14.387 -0.8464 -0.7043 -0.9046
 8831TIP3   OH247983   3.447   4.713  11.506  0.1480 -0.2264  0.2350
 8831TIP3    H147984   3.517   4.766  11.545  0.4666  0.1305 -0.8090
 8831TIP3    H247985   3.492   4.656  11.445 -0.6175  1.0039 -1.5168
 8832TIP3   OH247986   2.265   4.552  15.307 -0.4449 -0.6565  0.3131
 8832TIP3    H147987   2.199   4.619  15.291  1.6316  1.5890  0.7428
 8832TIP3    H247988   2.272   4.548  15.403  0.1564 -0.7383  0.2700
 8833TIP3   OH247989   3.127   2.721  17.150  0.6647  0.1495  0.8626
 8833TIP3    H147990   3.155   2.788  17.212 -0.7551  1.4262  0.1612
 8833TIP3    H247991   3.203   2.708  17.093  0.7400  1.6734  0.5818
 8834TIP3   OH247992   5.241   5.307  14.147  0.1243 -0.1969  0.1251
 8834TIP3    H147993   5.172   5.287  14.084  0.6804  2.7666 -1.5507
 8834TIP3    H247994   5.199   5.299  14.233 -1.6117 -0.8949 -0.7658
 8835TIP3   OH247995   5.500   5.509  13.386 -0.0822  0.0615  0.2362
 8835TIP3    H147996   5.465   5.423  13.365  0.0173  0.0593  0.0837
 8835TIP3    H247997   5.572   5.492  13.446  1.8617 -0.1571 -2.1135
 8836TIP3   OH247998   5.896   3.258  12.103  0.1269  0.8716 -0.0003
 8836TIP3    H147999   5.970   3.305  12.142 -1.1352  1.9433  1.1357
 8836TIP3    H248000   5.898   3.283  12.010  0.8921  1.2940  0.1236
 8837TIP3   OH248001   4.227   6.517   0.186 -0.4475  0.4856  0.0421
 8837TIP3    H148002   4.245   6.520   0.092  0.7109  1.2378  0.2775
 8837TIP3    H248003   4.132   6.528   0.193 -0.7199 -1.0179 -1.1002
 8838TIP3   OH248004   6.777   3.531   3.210 -0.0059  0.2026 -0.1210
 8838TIP3    H148005   6.711   3.463   3.202 -0.9348  1.0356  0.3253
 8838TIP3    H248006   6.759   3.591   3.138 -0.9689  1.4567  1.1387
 8839TIP3   OH248007   4.094   4.520   1.327 -0.0316  0.2154  0.3261
 8839TIP3    H148008   4.169   4.554   1.375 -0.6608  0.1718  1.3507
 8839TIP3    H248009   4.058   4.451   1.383  0.4486 -1.2499 -1.1342
 8840TIP3   OH248010   0.898   6.596  14.499  0.1220  0.2803 -0.0784
 8840TIP3    H148011   0.901   6.537  14.574 -0.8003 -1.6621 -1.5249
 8840TIP3    H248012   0.987   6.632  14.494  0.4195 -0.1987  1.4557
 8841TIP3   OH248013   2.661   3.458   3.344  0.4089 -0.0121 -0.4595
 8841TIP3    H148014   2.745   3.485   3.306  1.2942 -0.6868  0.9674
 8841TIP3    H248015   2.610   3.539   3.348  0.4808  0.1703 -2.5592
 8842TIP3   OH248016   0.250   6.284  16.774 -0.2070 -0.4943  0.2847
 8842TIP3    H148017   0.271   6.224  16.703 -1.5057 -0.7520  0.1115
 8842TIP3    H248018   0.212   6.361  16.731  0.3139 -0.0591  0.5943
 8843TIP3   OH248019   0.286   2.640   6.815  0.2583  0.1536 -0.2277
 8843TIP3    H148020   0.351   2.576   6.841  1.0610  1.2037  0.4137
 8843TIP3    H248021   0.323   2.724   6.844 -0.8526  0.8725 -0.8732
 8844TIP3   OH248022   2.468   3.319  11.891  0.1183 -0.5755 -0.0723
 8844TIP3    H148023   2.482   3.292  11.982 -1.2904  0.5209  0.4840
 8844TIP3    H248024   2.392   3.269  11.863  0.3135 -0.6208 -0.5178
 8845TIP3   OH248025   6.544   6.123  13.326 -0.3273 -0.0613  0.0261
 8845TIP3    H148026   6.527   6.159  13.413  0.3695  0.1958  0.0593
 8845TIP3    H248027   6.529   6.029  13.337  0.2538 -0.1027  0.5642
 8846TIP3   OH248028   3.741   3.812  13.051  0.5589  0.2624  0.8153
 8846TIP3    H148029   3.793   3.839  12.976  0.0876  0.2637  0.4833
 8846TIP3    H248030   3.727   3.718  13.038 -0.2222  0.4193  0.4593
 8847TIP3   OH248031   2.428   5.847  15.654  0.1835  0.1701 -0.3618
 8847TIP3    H148032   2.406   5.833  15.746 -0.2697 -1.1535 -0.6602
 8847TIP3    H248033   2.351   5.892  15.618 -0.4787 -1.0687 -0.5323
 8848TIP3   OH248034   3.745   4.744   0.766 -0.6459  0.1224  0.5387
 8848TIP3    H148035   3.721   4.809   0.699 -1.8240 -0.0218  0.8113
 8848TIP3    H248036   3.840   4.751   0.772 -0.7994  2.3019  1.0278
 8849TIP3   OH248037   2.401   6.166  11.701  0.6170  0.2473  0.0134
 8849TIP3    H148038   2.375   6.081  11.738  0.3255  0.1526 -0.4025
 8849TIP3    H248039   2.496   6.158  11.688  0.5807 -0.0387 -0.0805
 8850TIP3   OH248040   5.243   2.190  12.109 -0.5794 -0.4199 -0.4495
 8850TIP3    H148041   5.326   2.216  12.071  1.1244 -2.3473  1.7896
 8850TIP3    H248042   5.212   2.267  12.156  1.4026 -0.5102  1.0669
 8851TIP3   OH248043   6.490   4.613  13.834  0.2038  0.8424  0.1380
 8851TIP3    H148044   6.531   4.676  13.774 -0.5802 -0.3232 -1.6354
 8851TIP3    H248045   6.510   4.527  13.797 -1.3506  0.1540  0.8502
 8852TIP3   OH248046   3.900   6.003  14.610 -0.4173  0.2571 -0.0206
 8852TIP3    H148047   3.947   5.922  14.594  0.3755  0.7211 -0.0436
 8852TIP3    H248048   3.902   6.014  14.705 -0.1111  0.4969 -0.0560
 8853TIP3   OH248049   1.172   4.159   4.600 -0.5011  0.6009  0.1062
 8853TIP3    H148050   1.158   4.099   4.528 -1.5605  1.2367 -0.2269
 8853TIP3    H248051   1.222   4.231   4.562  1.8098 -0.6069  0.7771
 8854TIP3   OH248052   5.482   4.375  14.426  0.1740  0.1066  0.0966
 8854TIP3    H148053   5.512   4.373  14.336  1.0538  0.5062  0.3758
 8854TIP3    H248054   5.555   4.412  14.475 -0.8883  1.4020  0.7520
 8855TIP3   OH248055   2.300   6.588   5.450  0.1046  0.0856 -0.1469
 8855TIP3    H148056   2.271   6.510   5.498  0.2151 -0.6137 -1.2064
 8855TIP3    H248057   2.275   6.661   5.506 -3.0799 -0.5075 -0.6748
 8856TIP3   OH248058   2.830   0.829  17.232  0.1220  0.2096 -0.2930
 8856TIP3    H148059   2.770   0.834  17.157  1.2286  0.9889 -1.1379
 8856TIP3    H248060   2.798   0.755  17.283  0.2132 -1.2353 -2.2918
 8857TIP3   OH248061   4.926   0.132  16.814  0.6346 -0.1564 -0.4278
 8857TIP3    H148062   4.976   0.084  16.880  0.8725 -0.9215 -1.1511
 8857TIP3    H248063   4.836   0.100  16.825  0.5638  0.1530 -0.0887
 8858TIP3   OH248064   1.926   5.679  13.307 -0.0814 -0.0453  0.0871
 8858TIP3    H148065   1.966   5.592  13.304 -0.9009 -0.4544  0.6408
 8858TIP3    H248066   1.949   5.714  13.393 -1.3234 -0.4926  0.6120
 8859TIP3   OH248067   0.316   5.401  11.640  0.7665 -0.3704  0.6832
 8859TIP3    H148068   0.300   5.485  11.596  0.7424 -1.6220 -1.8220
 8859TIP3    H248069   0.248   5.343  11.606  1.1541 -1.5730  1.9157
 8860TIP3   OH248070   6.029   1.034   1.189 -0.3764 -0.3928 -0.5039
 8860TIP3    H148071   6.110   0.984   1.179  0.7819  1.5148 -0.9851
 8860TIP3    H248072   6.042   1.084   1.269 -0.9393  0.1860 -0.7764
 8861TIP3   OH248073   0.564   5.557   2.224 -0.5725 -0.0025 -0.1123
 8861TIP3    H148074   0.603   5.620   2.285  0.7707  0.1713 -1.1235
 8861TIP3    H248075   0.473   5.585   2.216 -0.2765  1.1218  0.3557
 8862TIP3   OH248076   6.549   3.279  17.041  0.0218  0.3436  0.2386
 8862TIP3    H148077   6.605   3.250  17.113 -2.6338 -1.0625  1.8114
 8862TIP3    H248078   6.548   3.374  17.048 -0.0838  0.2247  1.9761
 8863TIP3   OH248079   3.889   3.978   0.340 -0.1856 -0.3293  0.1109
 8863TIP3    H148080   3.819   3.920   0.311  0.6592 -2.2222  1.7900
 8863TIP3    H248081   3.960   3.920   0.367  1.8737  1.5362 -1.0592
 8864TIP3   OH248082   6.534   4.505  14.294 -0.0906 -0.2356 -0.4426
 8864TIP3    H148083   6.500   4.558  14.366 -0.2024 -0.5781 -0.2414
 8864TIP3    H248084   6.500   4.547  14.215 -1.2373 -0.7404 -0.2388
 8865TIP3   OH248085   3.554   0.878  17.000  0.0430 -0.2195 -0.6498
 8865TIP3    H148086   3.488   0.858  16.933  0.0509 -0.5597 -0.5539
 8865TIP3    H248087   3.530   0.824  17.075  0.2744 -0.1404 -0.5186
 8866TIP3   OH248088   4.928   2.113   5.770 -0.0896 -0.0555  0.2515
 8866TIP3    H148089   4.859   2.172   5.738  0.4845  0.7409  0.4534
 8866TIP3    H248090   4.905   2.028   5.734 -0.0034  0.6166 -1.4618
 8867TIP3   OH248091   1.430   0.039   5.081  0.3944 -0.0859 -0.4197
 8867TIP3    H148092   1.355   0.067   5.028  0.6902 -0.0518 -0.8230
 8867TIP3    H248093   1.413   0.073   5.168 -0.9487 -1.5787 -0.0672
 8868TIP3   OH248094   2.582   6.559   0.775 -0.3726 -0.5143 -0.3118
 8868TIP3    H148095   2.566   6.465   0.759 -0.1753  0.0459 -4.2871
 8868TIP3    H248096   2.507   6.603   0.734  0.0067  1.1214  0.7195
 8869TIP3   OH248097   6.615   3.063  11.630 -0.4947  0.2343  0.3211
 8869TIP3    H148098   6.659   3.146  11.647 -0.1778  0.1596 -0.1144
 8869TIP3    H248099   6.678   3.012  11.578 -1.7138  0.7894 -1.7906
 8870TIP3   OH248100   4.024   0.165   5.065 -0.2344 -0.3260  0.5242
 8870TIP3    H148101   3.954   0.231   5.060 -0.9235 -1.1031 -0.3488
 8870TIP3    H248102   4.102   0.215   5.088 -1.2733  0.4139  2.5477
 8871TIP3   OH248103   2.865   1.277   4.760  0.2522 -0.4690  0.2917
 8871TIP3    H148104   2.932   1.336   4.795  1.3050 -0.4363 -1.6954
 8871TIP3    H248105   2.898   1.189   4.781  0.2260 -0.4218  0.5313
 8872TIP3   OH248106   2.523   4.079   2.159 -0.6122 -0.1264 -0.0351
 8872TIP3    H148107   2.508   3.997   2.111 -0.2309 -0.0339 -0.3181
 8872TIP3    H248108   2.606   4.064   2.204 -0.2617  0.3048 -0.5275
 8873TIP3   OH248109   6.808   6.391   0.659  0.7585  0.6586  0.4958
 8873TIP3    H148110   6.883   6.450   0.652  0.0684  1.3392 -1.3177
 8873TIP3    H248111   6.804   6.348   0.574 -0.7398  0.4153  0.6886
 8874TIP3   OH248112   0.238   6.240   2.446  0.4704  0.3432 -0.2411
 8874TIP3    H148113   0.142   6.240   2.451  0.5406  0.8184  1.3567
 8874TIP3    H248114   0.261   6.332   2.432  0.6267 -0.0115 -2.4914
 8875TIP3   OH248115   6.447   0.572   0.474 -0.9264  0.0724  0.0973
 8875TIP3    H148116   6.400   0.641   0.521 -0.1250  0.4754  0.3073
 8875TIP3    H248117   6.510   0.619   0.419 -0.9934 -0.4560 -0.4352
 8876TIP3   OH248118   2.760   5.526  14.974 -0.8815  0.0346  0.2229
 8876TIP3    H148119   2.844   5.505  15.014 -1.0256 -1.5640 -0.2622
 8876TIP3    H248120   2.746   5.618  14.993  0.6877  0.1542  0.8471
 8877TIP3   OH248121   0.001   6.317   3.844 -0.9808 -0.2079 -0.2769
 8877TIP3    H148122   0.009   6.412   3.833 -0.8819 -0.2991 -1.0261
 8877TIP3    H248123  -0.091   6.303   3.868 -1.0766  0.0542 -0.4837
 8878TIP3   OH248124   1.077   3.120   2.770  0.4128  0.1632  0.4305
 8878TIP3    H148125   1.007   3.177   2.737 -1.3198 -1.3080  1.4460
 8878TIP3    H248126   1.045   3.031   2.753  1.3164 -0.5470  2.3238
 8879TIP3   OH248127   0.868   0.405   1.222 -0.0903 -0.4278 -0.2717
 8879TIP3    H148128   0.867   0.359   1.138  0.6870 -0.7287 -0.1206
 8879TIP3    H248129   0.885   0.337   1.287 -0.1928 -0.1204  0.0823
 8880TIP3   OH248130   5.314   1.590  13.124  0.1316  0.6735 -0.2563
 8880TIP3    H148131   5.361   1.640  13.057  2.2469  1.7879  1.9909
 8880TIP3    H248132   5.381   1.566  13.188 -1.9668  0.3847  1.9015
 8881TIP3   OH248133   0.948   3.758  15.241 -0.1103 -0.0443  0.1861
 8881TIP3    H148134   0.863   3.803  15.242 -1.5481 -2.6825  0.9812
 8881TIP3    H248135   0.998   3.799  15.311 -0.7542  1.4803 -0.2325
 8882TIP3   OH248136   1.574   1.848   3.144 -0.2288 -0.7434  0.3169
 8882TIP3    H148137   1.554   1.803   3.225 -1.3226 -2.1725 -0.7356
 8882TIP3    H248138   1.666   1.828   3.127  1.2295  2.8331  3.2287
 8883TIP3   OH248139   6.413   2.500  14.943  0.1699 -0.1199  0.8481
 8883TIP3    H148140   6.439   2.588  14.970 -0.3221  0.3793 -0.2453
 8883TIP3    H248141   6.360   2.467  15.015 -1.0401  1.1428  0.5639
 8884TIP3   OH248142   3.572   3.752   5.783  0.4448 -0.3791  0.1136
 8884TIP3    H148143   3.528   3.695   5.845 -0.7245  1.8173  1.3507
 8884TIP3    H248144   3.522   3.834   5.785  2.1933  0.7836 -1.4475
 8885TIP3   OH248145   1.125   3.839   6.305 -0.5946 -0.2598 -0.3280
 8885TIP3    H148146   1.142   3.892   6.228  1.7911 -1.9302 -1.0079
 8885TIP3    H248147   1.197   3.776   6.308 -2.3871 -2.3351  1.4177
 8886TIP3   OH248148   2.418   2.979   3.342  0.1206 -0.0167  0.1770
 8886TIP3    H148149   2.512   2.987   3.327  0.4498 -0.9995  1.5194
 8886TIP3    H248150   2.406   3.008   3.433 -1.0010  0.9458 -0.2735
 8887TIP3   OH248151   3.000   5.430   2.582 -0.1359 -0.3403  0.3231
 8887TIP3    H148152   2.956   5.431   2.497  0.2086 -1.1343  0.1289
 8887TIP3    H248153   2.931   5.416   2.646 -0.1170 -2.0750 -0.0191
 8888TIP3   OH248154   0.024   5.589  12.624  0.3302 -0.6805  0.4419
 8888TIP3    H148155   0.097   5.528  12.625  1.3143  0.4707  0.3327
 8888TIP3    H248156   0.040   5.646  12.549  0.0049  0.3732  1.1446
 8889TIP3   OH248157   3.992   6.714   2.730  0.1698  0.3851  0.0360
 8889TIP3    H148158   3.986   6.744   2.639  0.4979 -1.2752 -0.5453
 8889TIP3    H248159   4.014   6.793   2.780  1.4843  1.0313 -1.5190
 8890TIP3   OH248160   1.198   5.154   0.689 -0.0584 -0.1681  0.4162
 8890TIP3    H148161   1.263   5.116   0.749  0.4342 -1.1936 -0.7512
 8890TIP3    H248162   1.124   5.176   0.745  0.1115 -1.7762  1.3007
 8891TIP3   OH248163   3.119   4.649  17.156  0.4651  0.0059  0.0523
 8891TIP3    H148164   3.111   4.558  17.129  0.5596  0.0109  0.0061
 8891TIP3    H248165   3.183   4.648  17.227 -0.3002 -0.0970  0.7462
 8892TIP3   OH248166   5.637   0.900   5.048 -0.0188  0.3921 -0.1297
 8892TIP3    H148167   5.635   0.990   5.013  1.7151  0.7679  0.7207
 8892TIP3    H248168   5.628   0.844   4.971 -1.1528  1.2754 -0.6674
 8893TIP3   OH248169   5.335   5.025  10.986  0.0231  0.2694 -0.5256
 8893TIP3    H148170   5.302   4.936  10.972  1.4558 -0.6526  1.7436
 8893TIP3    H248171   5.430   5.017  10.977  0.3680  1.0846  1.9971
 8894TIP3   OH248172   6.549   6.539   4.144  0.0369 -0.0632 -0.4995
 8894TIP3    H148173   6.539   6.633   4.130 -0.5801 -0.2617 -1.4317
 8894TIP3    H248174   6.642   6.528   4.162 -0.4654  1.1762  3.2714
 8895TIP3   OH248175   0.085   0.897  14.545 -0.6691  0.4139  0.2302
 8895TIP3    H148176   0.150   0.882  14.614 -2.1922 -1.4440  1.3080
 8895TIP3    H248177   0.038   0.976  14.573 -0.0693  0.7182  0.3817
 8896TIP3   OH248178   4.198   4.368  14.919 -0.1117  0.5814 -0.1699
 8896TIP3    H148179   4.142   4.385  14.995 -0.6148  2.1646 -0.8646
 8896TIP3    H248180   4.194   4.449  14.868  2.6279  0.6347 -0.3637
 8897TIP3   OH248181   0.501   6.573  12.019 -0.3188 -0.0795 -0.4396
 8897TIP3    H148182   0.462   6.487  12.035  0.5575 -0.0608  2.0724
 8897TIP3    H248183   0.426   6.632  12.009 -0.9168 -0.9278 -0.9971
 8898TIP3   OH248184   2.382   6.484   3.721 -0.6543 -0.5894  0.0484
 8898TIP3    H148185   2.391   6.398   3.681  0.6686  0.1146 -1.2119
 8898TIP3    H248186   2.295   6.515   3.693 -0.3555 -0.7363 -1.0500
 8899TIP3   OH248187   2.024   2.690  15.606 -0.1581 -0.0951 -0.1961
 8899TIP3    H148188   1.977   2.637  15.542 -1.8340  1.7793 -0.5703
 8899TIP3    H248189   1.971   2.685  15.686  2.0455 -2.6128  1.1728
 8900TIP3   OH248190   3.433   2.786  12.657  0.0952 -0.6540 -0.7440
 8900TIP3    H148191   3.442   2.867  12.606  3.2132  0.0009  0.7136
 8900TIP3    H248192   3.404   2.815  12.743  0.3718 -1.1674 -0.4750
 8901TIP3   OH248193   5.358   6.448  15.593  0.3844  0.7598  0.8491
 8901TIP3    H148194   5.355   6.542  15.579  0.8326  0.8248  1.1552
 8901TIP3    H248195   5.439   6.420  15.550 -1.1156  0.0877 -1.6496
 8902TIP3   OH248196   5.722   1.552   1.725  0.7143 -0.4410 -0.2073
 8902TIP3    H148197   5.807   1.510   1.737 -0.3248 -2.0026  1.8844
 8902TIP3    H248198   5.683   1.506   1.650 -0.0900 -2.7178  1.5721
 8903TIP3   OH248199   1.826   4.910  15.391 -0.4885  0.2188 -0.3703
 8903TIP3    H148200   1.736   4.878  15.382 -0.4322  0.4151 -1.6554
 8903TIP3    H248201   1.859   4.866  15.470 -2.2669  1.4606  1.1120
 8904TIP3   OH248202   3.166   3.936   6.121 -0.5924 -0.2750  0.1938
 8904TIP3    H148203   3.252   3.895   6.115 -0.0476  1.0887 -1.7250
 8904TIP3    H248204   3.170   3.990   6.199  0.1188 -0.5846  0.3748
 8905TIP3   OH248205   1.362   5.782  12.829  0.0341 -0.0278  0.1881
 8905TIP3    H148206   1.297   5.713  12.816 -0.0369 -0.5199  2.8196
 8905TIP3    H248207   1.310   5.862  12.840  0.1655  0.7556 -4.2663
 8906TIP3   OH248208   5.797   2.508  13.393 -0.6140 -0.3968  0.3018
 8906TIP3    H148209   5.880   2.550  13.372 -1.3644  0.7501 -0.3732
 8906TIP3    H248210   5.757   2.489  13.308 -1.1913 -0.6567  0.6292
 8907TIP3   OH248211   3.449   4.594  13.308  0.6234  0.0730  0.3233
 8907TIP3    H148212   3.525   4.650  13.290  0.4396 -0.0495 -0.8302
 8907TIP3    H248213   3.486   4.506  13.320  0.8609  0.3404  1.6714
 8908TIP3   OH248214   4.499   6.608  13.674 -0.1151 -0.0065 -0.1422
 8908TIP3    H148215   4.566   6.563  13.725 -0.2323 -1.2634 -1.0722
 8908TIP3    H248216   4.510   6.574  13.585 -0.3935  1.5926 -0.8142
 8909TIP3   OH248217   1.652   0.780   3.564  0.2232 -0.1664  0.0687
 8909TIP3    H148218   1.606   0.809   3.485 -0.2655  0.3838  0.5469
 8909TIP3    H248219   1.661   0.686   3.553 -1.4105 -0.3503  0.1515
 8910TIP3   OH248220   2.496   4.312   4.635 -0.5788 -0.0801 -0.1521
 8910TIP3    H148221   2.423   4.347   4.685  1.0764  2.0563  0.8329
 8910TIP3    H248222   2.543   4.256   4.697 -1.3999 -1.5428 -0.8151
 8911TIP3   OH248223   2.737   5.486  15.926  0.1821  0.0592  0.0928
 8911TIP3    H148224   2.772   5.450  16.007  2.1195  0.2016 -0.6687
 8911TIP3    H248225   2.651   5.444  15.916  0.3448 -0.6657  1.7085
 8912TIP3   OH248226   1.946   4.903   1.247 -0.1213 -0.2317 -0.4191
 8912TIP3    H148227   1.998   4.938   1.320  2.3943 -0.2252 -2.1437
 8912TIP3    H248228   1.956   4.808   1.255 -0.8979 -0.2890 -0.0396
 8913TIP3   OH248229   3.897   1.011   5.084  0.6894  0.2378  0.2123
 8913TIP3    H148230   3.934   1.026   5.171  1.1766 -1.5307  0.3394
 8913TIP3    H248231   3.973   1.002   5.027  0.4149 -0.3523 -0.0721
 8914TIP3   OH248232   6.457   1.589   0.164 -0.7375  0.2632  0.1790
 8914TIP3    H148233   6.498   1.667   0.203  0.0473  0.2269 -0.5620
 8914TIP3    H248234   6.455   1.525   0.236  1.8006 -0.2202 -0.1280
 8915TIP3   OH248235   5.764   2.737  11.194  0.5502 -0.5552  0.3065
 8915TIP3    H148236   5.753   2.760  11.101 -3.0389 -1.1696  0.5050
 8915TIP3    H248237   5.790   2.645  11.192 -0.5368 -0.8616 -0.0838
 8916TIP3   OH248238   1.787   3.910   6.681  0.0577 -0.0636  0.2120
 8916TIP3    H148239   1.853   3.977   6.698  0.2766 -0.1518 -0.2822
 8916TIP3    H248240   1.829   3.828   6.707  0.8934 -0.3638 -1.9909
 8917TIP3   OH248241   1.326   4.189  15.808 -0.0618  0.2224  0.4593
 8917TIP3    H148242   1.243   4.209  15.766  0.8696 -0.1922 -1.6270
 8917TIP3    H248243   1.337   4.258  15.874 -0.5706  2.1148 -1.3926
 8918TIP3   OH248244   6.674   4.107  16.024  0.0076 -0.2443  0.0979
 8918TIP3    H148245   6.607   4.152  15.972 -1.6030 -0.4374  1.9193
 8918TIP3    H248246   6.656   4.014  16.010 -0.3645 -0.2977  0.8678
 8919TIP3   OH248247   5.171   2.962   3.291 -0.3765  0.0254 -0.1921
 8919TIP3    H148248   5.156   2.999   3.204 -3.0312  0.2764  0.3107
 8919TIP3    H248249   5.105   3.006   3.346  0.5463 -0.9296  1.7059
 8920TIP3   OH248250   3.591   2.781  11.014 -0.4853  0.4558  0.0222
 8920TIP3    H148251   3.660   2.766  10.950  0.7133  0.1137  1.3649
 8920TIP3    H248252   3.511   2.754  10.970  0.3219  0.1822 -1.3022
 8921TIP3   OH248253   3.844   6.282  13.027  0.1467 -0.0111  0.0398
 8921TIP3    H148254   3.878   6.337  13.097 -0.0894 -0.5330  0.5705
 8921TIP3    H248255   3.755   6.314  13.013 -0.4507 -1.0831  1.2433
 8922TIP3   OH248256   5.053   0.287   5.577  0.0759 -0.6692  0.0495
 8922TIP3    H148257   5.014   0.343   5.643  0.6329 -0.3698  0.1285
 8922TIP3    H248258   5.111   0.346   5.528 -1.0123 -0.6746 -1.2816
 8923TIP3   OH248259   6.237   1.845  15.092  0.1044  0.4160 -0.5483
 8923TIP3    H148260   6.207   1.762  15.129 -1.7824  1.4683  0.3489
 8923TIP3    H248261   6.327   1.853  15.122  0.5176 -1.5690 -1.1310
 8924TIP3   OH248262   3.663   0.878  12.070  0.4731 -0.7691 -0.1409
 8924TIP3    H148263   3.668   0.865  12.165  1.6194  0.1835 -0.0529
 8924TIP3    H248264   3.732   0.822  12.034  0.4570 -0.6595 -0.3503
 8925TIP3   OH248265   0.685   4.048   2.167  0.0916 -0.1556 -0.2007
 8925TIP3    H148266   0.765   4.071   2.121 -1.8199  2.3393 -2.4471
 8925TIP3    H248267   0.619   4.040   2.099 -1.9404 -0.4632  1.7337
 8926TIP3   OH248268   0.547   5.045   3.148 -0.2331  0.2920  0.2054
 8926TIP3    H148269   0.576   5.071   3.235 -0.9436  1.5761  0.0846
 8926TIP3    H248270   0.554   4.950   3.146 -1.3032  0.1636  2.0534
 8927TIP3   OH248271   4.330   2.754  13.475  0.6041 -0.3403 -0.0383
 8927TIP3    H148272   4.403   2.698  13.448  0.0520 -2.1050  1.9288
 8927TIP3    H248273   4.252   2.704  13.452  0.0276  1.0058 -1.0541
 8928TIP3   OH248274   3.835   4.607   1.643  0.0004  0.3329  0.1287
 8928TIP3    H148275   3.755   4.642   1.682  1.0538  0.8461  1.8321
 8928TIP3    H248276   3.817   4.513   1.635 -0.6227  0.3869  0.8290
 8929TIP3   OH248277   1.297   5.603   1.862 -0.7704 -0.2297 -0.8152
 8929TIP3    H148278   1.319   5.678   1.806 -0.9807 -0.7270 -1.5747
 8929TIP3    H248279   1.308   5.527   1.805  0.7398 -0.8934  0.3326
 8930TIP3   OH248280   2.862   2.369   6.629 -0.0080  0.1515  0.1261
 8930TIP3    H148281   2.923   2.296   6.612 -0.6715 -0.0379 -1.5681
 8930TIP3    H248282   2.917   2.447   6.622  0.2743 -0.0757 -0.2748
 8931TIP3   OH248283   4.761   5.361   0.521 -0.3301 -0.0498  0.4323
 8931TIP3    H148284   4.763   5.266   0.535  0.9229  0.1790  1.9521
 8931TIP3    H248285   4.816   5.375   0.444  1.4015 -0.3659  1.5766
 8932TIP3   OH248286   6.801   3.217   2.244  0.0578  0.2527  0.2730
 8932TIP3    H148287   6.758   3.132   2.252 -0.7874  0.6812  0.3037
 8932TIP3    H248288   6.881   3.199   2.195 -0.2826 -0.5037 -0.0013
 8933TIP3   OH248289   1.819   2.849   3.710  0.1636  0.2762  0.6239
 8933TIP3    H148290   1.772   2.766   3.699 -1.9583  1.6985 -1.5233
 8933TIP3    H248291   1.898   2.839   3.656 -0.9179  0.2451 -0.9911
 8934TIP3   OH248292   2.560   1.635   5.468  0.0178 -0.2997 -0.1265
 8934TIP3    H148293   2.645   1.609   5.432  1.1789 -0.4414  2.5695
 8934TIP3    H248294   2.520   1.554   5.498 -0.3206 -0.0325  0.1516
 8935TIP3   OH248295   3.399   0.760   1.418  1.0251 -0.7590  0.1583
 8935TIP3    H148296   3.388   0.855   1.427 -3.0050 -1.1512  0.3124
 8935TIP3    H248297   3.442   0.734   1.500  0.4585  0.7064  0.9630
 8936TIP3   OH248298   4.708   6.279   4.057 -0.1346 -0.5337  0.1240
 8936TIP3    H148299   4.781   6.252   4.001 -0.7464 -0.7478 -0.5750
 8936TIP3    H248300   4.721   6.373   4.070 -0.7294 -0.2211 -1.4785
 8937TIP3   OH248301   5.460   5.732   4.599  0.0180  0.3370 -0.0007
 8937TIP3    H148302   5.447   5.656   4.543  1.6998  0.2831 -0.3630
 8937TIP3    H248303   5.436   5.807   4.545 -1.0269  0.1181  0.1451
 8938TIP3   OH248304   1.029   2.400  15.709  0.9956 -0.3703  0.3213
 8938TIP3    H148305   1.102   2.458  15.687  0.1132  0.0838 -1.5660
 8938TIP3    H248306   1.052   2.363  15.794  1.0904  3.5408  2.1184
 8939TIP3   OH248307   0.097   0.545  17.121 -0.3687  0.2157  0.1381
 8939TIP3    H148308   0.032   0.479  17.095 -0.9564 -0.0909  2.3093
 8939TIP3    H248309   0.176   0.495  17.140 -0.5820  0.2071  1.0188
 8940TIP3   OH248310   5.340   0.375  15.439  0.2308  0.2540 -0.0688
 8940TIP3    H148311   5.354   0.340  15.528 -0.9627 -0.5440 -0.1884
 8940TIP3    H248312   5.421   0.421  15.419  1.0473 -0.7269  0.9075
 8941TIP3   OH248313   3.905   1.400  11.437 -0.4433  0.3200  0.4500
 8941TIP3    H148314   3.946   1.485  11.424 -0.3193  0.4060  1.3750
 8941TIP3    H248315   3.953   1.361  11.511 -0.8132 -0.3511  0.3432
 8942TIP3   OH248316   2.609   3.137   1.832 -0.1765  0.0885 -0.5129
 8942TIP3    H148317   2.687   3.182   1.800  0.2357 -0.1615  0.1550
 8942TIP3    H248318   2.595   3.066   1.769  1.0810 -0.8729  0.2919
 8943TIP3   OH248319   0.900   5.710  16.050 -0.3164 -0.3730  0.3246
 8943TIP3    H148320   0.993   5.725  16.035 -0.7164  1.4613 -0.4859
 8943TIP3    H248321   0.874   5.645  15.985  0.0605  0.3258 -0.5323
 8944TIP3   OH248322   5.638   5.521  17.245 -0.2288 -0.0945  0.6615
 8944TIP3    H148323   5.668   5.444  17.196  1.0429  0.4043  0.6366
 8944TIP3    H248324   5.598   5.577  17.180 -0.3824 -0.3493  0.5345
 8945TIP3   OH248325   0.692   3.641  14.755  0.7776  0.2486  0.4076
 8945TIP3    H148326   0.643   3.562  14.776  1.0369  0.2453  1.0219
 8945TIP3    H248327   0.703   3.686  14.839  2.4101 -0.0917  0.3918
 8946TIP3   OH248328   4.195   6.606  14.193 -0.1406 -0.1547 -0.0712
 8946TIP3    H148329   4.127   6.603  14.125 -1.2230 -1.2030  1.0423
 8946TIP3    H248330   4.206   6.515  14.220  1.1134  0.1176  0.3621
 8947TIP3   OH248331   0.990   0.167   0.931 -0.2514 -0.3768 -0.0056
 8947TIP3    H148332   0.903   0.204   0.919 -0.1918 -0.0525  0.5435
 8947TIP3    H248333   0.984   0.078   0.895  0.0133  0.6595 -2.7580
 8948TIP3   OH248334   5.884   1.097  13.553  0.2656 -0.3189 -0.4609
 8948TIP3    H148335   5.959   1.039  13.539 -0.9093 -1.8034 -0.7618
 8948TIP3    H248336   5.812   1.056  13.504 -0.5184  1.5752 -0.9674
 8949TIP3   OH248337   6.756   2.720   0.562  0.1903 -0.1486  0.7215
 8949TIP3    H148338   6.704   2.677   0.493  1.3094 -1.1669  0.5148
 8949TIP3    H248339   6.702   2.795   0.588 -0.7252 -0.3460 -0.5358
 8950TIP3   OH248340   1.419   2.245   3.616 -0.4899 -0.0321 -0.2744
 8950TIP3    H148341   1.465   2.221   3.696 -0.1289 -0.6597 -0.6621
 8950TIP3    H248342   1.337   2.195   3.620 -0.6944  0.3185 -0.0607
 8951TIP3   OH248343   1.786   0.295   1.710 -0.4142  0.0130  0.6534
 8951TIP3    H148344   1.815   0.363   1.771 -0.0022 -0.5703  1.1023
 8951TIP3    H248345   1.816   0.326   1.625  0.7187 -0.1320  0.9932
 8952TIP3   OH248346   2.837   0.973  16.779  0.3263 -0.0603  0.3180
 8952TIP3    H148347   2.899   0.973  16.852 -0.9262 -1.0483  1.4085
 8952TIP3    H248348   2.815   1.065  16.767  2.0717  0.3124 -0.1511
 8953TIP3   OH248349   6.343   1.041   1.308 -0.2679  0.2024 -0.4527
 8953TIP3    H148350   6.328   1.021   1.400  0.7640  0.2859 -0.2633
 8953TIP3    H248351   6.312   0.963   1.261 -1.7326  0.5628 -0.1159
 8954TIP3   OH248352   5.018   5.691  12.216  0.3606  0.1857 -0.3420
 8954TIP3    H148353   5.037   5.661  12.127 -0.5244 -2.5748  0.3771
 8954TIP3    H248354   5.104   5.710  12.254  0.9508 -1.3525 -0.8656
 8955TIP3   OH248355   3.497   0.294   0.438 -0.9660 -0.2978 -0.0616
 8955TIP3    H148356   3.485   0.339   0.355  2.3308 -0.4331 -0.6925
 8955TIP3    H248357   3.492   0.201   0.416 -0.9745 -0.3217  0.0405
 8956TIP3   OH248358   0.570   1.838  15.542  0.0265 -0.0441  0.0484
 8956TIP3    H148359   0.543   1.817  15.452 -0.1783 -2.6956  0.6990
 8956TIP3    H248360   0.652   1.790  15.554 -0.2285 -0.1369  1.4539
 8957TIP3   OH248361   6.602   1.881  14.622 -0.0298 -0.5116 -0.1748
 8957TIP3    H148362   6.566   1.902  14.708  0.5372  2.9269 -0.6839
 8957TIP3    H248363   6.662   1.809  14.638 -0.2724 -0.2225  2.2531
 8958TIP3   OH248364   5.387   2.484   5.308  0.3140 -0.1044  0.1406
 8958TIP3    H148365   5.442   2.456   5.382 -0.8882  0.6330  1.3334
 8958TIP3    H248366   5.382   2.579   5.317 -2.6227 -0.3023  1.1332
 8959TIP3   OH248367   1.892   5.520   6.071  0.6129 -0.2239 -0.0521
 8959TIP3    H148368   1.942   5.532   6.152  0.7631  0.6529 -0.2758
 8959TIP3    H248369   1.818   5.579   6.079 -0.0874 -1.0911  0.0161
 8960TIP3   OH248370   1.527   3.723  13.120  0.3798  0.3266  0.2222
 8960TIP3    H148371   1.432   3.727  13.117  0.2777 -1.9221 -0.7241
 8960TIP3    H248372   1.546   3.656  13.186  1.2470 -0.5131 -0.8515
 8961TIP3   OH248373   6.792   2.930  13.761  0.1297 -0.2376 -0.5842
 8961TIP3    H148374   6.813   2.966  13.675  0.5415 -0.1809 -0.4569
 8961TIP3    H248375   6.705   2.966  13.781 -0.3263 -0.8968 -1.3339
 8962TIP3   OH248376   0.329   6.278  12.457 -0.2441 -0.0502  0.3818
 8962TIP3    H148377   0.277   6.344  12.503  0.8935  0.2816  1.2281
 8962TIP3    H248378   0.284   6.195  12.474 -0.4597  0.2249  1.1698
 8963TIP3   OH248379   1.745   4.514   1.490 -0.2657 -0.2480  0.2203
 8963TIP3    H148380   1.699   4.442   1.448 -1.9690  0.8011  0.2677
 8963TIP3    H248381   1.685   4.546   1.557 -0.4112  2.5217 -1.1551
 8964TIP3   OH248382   5.577   5.838  12.823  0.1421  0.0118  0.6881
 8964TIP3    H148383   5.621   5.913  12.863 -0.0109 -0.9121  2.6729
 8964TIP3    H248384   5.485   5.850  12.847 -0.3226  0.6070 -1.3073
 8965TIP3   OH248385   2.056   6.557   5.759  0.2318  0.5565  0.3282
 8965TIP3    H148386   2.031   6.544   5.667  2.3091 -0.4251 -0.1346
 8965TIP3    H248387   2.140   6.513   5.767  1.0539  2.3930  2.2195
 8966TIP3   OH248388   1.029   3.188   6.005  0.0458 -0.0826  0.4692
 8966TIP3    H148389   0.970   3.113   6.013 -0.8535  0.4286 -1.1827
 8966TIP3    H248390   1.068   3.178   5.918 -2.2477  2.9071 -0.9849
 8967TIP3   OH248391   1.511   3.005   0.561  0.3440 -0.1588 -0.1518
 8967TIP3    H148392   1.578   3.068   0.586  0.3280  0.2365 -1.0923
 8967TIP3    H248393   1.550   2.920   0.578 -0.2673  0.0994  2.7853
 8968TIP3   OH248394   0.614   3.227   4.890  1.0863  0.2270  0.2044
 8968TIP3    H148395   0.663   3.304   4.860 -0.3871  0.8997 -0.5160
 8968TIP3    H248396   0.596   3.244   4.982  3.1866 -0.5556  0.7899
 8969TIP3   OH248397   1.617   3.484   3.170 -0.4402 -0.2794 -0.1611
 8969TIP3    H148398   1.552   3.498   3.239  1.8086  1.7380  1.6206
 8969TIP3    H248399   1.655   3.399   3.189 -0.1182  0.0872  0.8576
 8970TIP3   OH248400   5.846   5.406   1.200  0.1868  0.3658 -0.5022
 8970TIP3    H148401   5.877   5.319   1.227 -0.3543  0.0776 -0.7962
 8970TIP3    H248402   5.916   5.441   1.145 -0.1233 -0.3962 -1.3980
 8971TIP3   OH248403   3.391   3.953   5.863  0.1383  0.0251 -0.0782
 8971TIP3    H148404   3.386   3.906   5.947  0.7701 -1.1213 -0.6756
 8971TIP3    H248405   3.412   4.043   5.888  1.3914 -0.5369  0.9480
 8972TIP3   OH248406   4.153   1.839  10.934  0.0927 -0.0300 -0.2475
 8972TIP3    H148407   4.115   1.811  11.017  1.9005 -0.3956  0.4788
 8972TIP3    H248408   4.248   1.833  10.947  0.5634  4.6190 -0.6590
 8973TIP3   OH248409   2.501   5.549   0.764  0.3031 -0.7555  0.4733
 8973TIP3    H148410   2.409   5.527   0.747  0.4864 -1.6016  0.5132
 8973TIP3    H248411   2.521   5.618   0.701 -1.1336  1.4328  2.3559
 8974TIP3   OH248412   4.575   5.076  13.627  0.4009 -0.1357  0.0448
 8974TIP3    H148413   4.497   5.106  13.673 -0.1744  1.9348 -2.1131
 8974TIP3    H248414   4.562   4.982  13.614 -1.0353 -0.0738  1.0101
 8975TIP3   OH248415   1.250   3.089   5.427 -0.5526 -0.1849 -0.1685
 8975TIP3    H148416   1.164   3.122   5.452 -0.2992  0.3021  0.0964
 8975TIP3    H248417   1.311   3.148   5.471 -0.0403 -2.6976  2.6248
 8976TIP3   OH248418   6.321   5.337  13.063 -0.0796 -0.2222  0.1561
 8976TIP3    H148419   6.388   5.304  13.004 -0.7731 -1.1418 -0.1278
 8976TIP3    H248420   6.243   5.285  13.043 -0.9091  0.8978  0.4009
 8977TIP3   OH248421   1.596   0.706   1.531 -0.1893  0.4323  0.0614
 8977TIP3    H148422   1.681   0.662   1.539 -0.3272  0.0870 -0.3116
 8977TIP3    H248423   1.579   0.743   1.617 -0.3787 -0.8194  0.5703
 8978TIP3   OH248424   3.425   3.948   5.151 -0.0543 -0.2355 -0.2144
 8978TIP3    H148425   3.337   3.981   5.169 -0.0487 -0.1823 -0.2905
 8978TIP3    H248426   3.448   3.984   5.066  0.2689  0.2128  0.0658
 8979TIP3   OH248427   5.973   0.900   4.637 -0.7988  0.5409  0.0449
 8979TIP3    H148428   5.911   0.904   4.709 -2.5327  1.8069 -1.5012
 8979TIP3    H248429   6.056   0.928   4.676 -0.9559 -1.8775  2.3018
 8980TIP3   OH248430   3.330   0.902  10.502  0.0231  0.0269  0.8835
 8980TIP3    H148431   3.405   0.857  10.541 -0.6991 -1.5777  0.4694
 8980TIP3    H248432   3.258   0.884  10.562  0.1281  2.2660  1.7205
 8981TIP3   OH248433   2.438   1.623  13.846  0.0687 -0.3831  0.2817
 8981TIP3    H148434   2.361   1.624  13.903  0.7939  0.2526  1.2795
 8981TIP3    H248435   2.507   1.663  13.899  1.0551 -0.8372 -0.6358
 8982TIP3   OH248436   0.818   3.409  11.823  0.7351 -0.3223 -0.2597
 8982TIP3    H148437   0.903   3.367  11.832  0.4121 -1.2961 -1.5483
 8982TIP3    H248438   0.838   3.500  11.802  1.4599 -0.5349 -0.5051
 8983TIP3   OH248439   4.854   4.195  17.279  0.3581  0.1206  0.0553
 8983TIP3    H148440   4.765   4.162  17.268  0.8593 -0.9505 -0.8713
 8983TIP3    H248441   4.854   4.282  17.240 -0.5489  0.5735  1.0322
 8984TIP3   OH248442   1.113   2.983  12.244  0.3845 -0.2690  0.4762
 8984TIP3    H148443   1.031   3.025  12.217  1.1013  2.2230  1.9791
 8984TIP3    H248444   1.165   2.977  12.164 -0.1962  0.6859  0.0213
 8985TIP3   OH248445   5.563   2.366   1.909 -0.1584  0.5298 -0.2546
 8985TIP3    H148446   5.553   2.460   1.923 -0.4786  0.3990  0.4046
 8985TIP3    H248447   5.528   2.351   1.821  2.2625  1.4261 -1.4165
 8986TIP3   OH248448   1.577   0.188  11.242 -0.4084  0.0769  0.1850
 8986TIP3    H148449   1.544   0.270  11.204 -1.3843 -1.2704 -1.9613
 8986TIP3    H248450   1.655   0.167  11.191 -0.2408 -0.4197  0.6389
 8987TIP3   OH248451   6.136   0.412  15.287  0.1911  0.1412  0.0043
 8987TIP3    H148452   6.135   0.390  15.381 -1.9891 -0.9855 -0.2644
 8987TIP3    H248453   6.156   0.330  15.244 -1.2763  0.1226 -0.6532
 8988TIP3   OH248454   3.319   3.897   4.133 -0.1639  0.2194  0.1922
 8988TIP3    H148455   3.298   3.826   4.193  0.9925 -0.9849 -0.7977
 8988TIP3    H248456   3.283   3.868   4.049  1.6410  0.0992 -0.5573
 8989TIP3   OH248457   0.365   4.371   6.545 -0.3530 -0.0121 -0.0511
 8989TIP3    H148458   0.374   4.293   6.600  1.2555  1.6960  2.2302
 8989TIP3    H248459   0.432   4.363   6.478  0.2695 -0.2656  0.6020
 8990TIP3   OH248460   2.641   2.251   4.561 -0.5757  0.0158 -0.4688
 8990TIP3    H148461   2.700   2.308   4.511 -0.1236  0.2052  0.2812
 8990TIP3    H248462   2.555   2.291   4.550 -0.2145  1.0274  0.3115
 8991TIP3   OH248463   1.323   5.015  13.552  0.1503 -0.8872 -0.1489
 8991TIP3    H148464   1.395   5.079  13.541  0.3849 -1.1613 -0.2046
 8991TIP3    H248465   1.288   5.004  13.464 -2.2546  1.9090  0.3925
 8992TIP3   OH248466   0.350   1.936   1.664 -0.0123 -0.3388 -0.0876
 8992TIP3    H148467   0.366   1.861   1.722  1.4334 -0.6359 -0.8563
 8992TIP3    H248468   0.257   1.928   1.641 -0.5024 -0.4164  1.8928
 8993TIP3   OH248469   5.127   5.459   5.670 -0.1388 -0.1930  0.5015
 8993TIP3    H148470   5.132   5.537   5.615  0.9963 -1.6180 -1.4678
 8993TIP3    H248471   5.033   5.443   5.680 -0.3652  1.0114  0.3458
 8994TIP3   OH248472   6.167   3.466  16.546  0.4770  0.3741 -0.1840
 8994TIP3    H148473   6.076   3.461  16.577  0.3831  1.2049 -0.3264
 8994TIP3    H248474   6.209   3.389  16.584 -0.1252  0.3330  0.4094
 8995TIP3   OH248475   3.482   3.167  12.829 -0.0326 -0.6521 -0.3681
 8995TIP3    H148476   3.509   3.075  12.829  0.9856 -0.4247 -3.8400
 8995TIP3    H248477   3.389   3.165  12.808  0.3269 -0.8604 -2.0123
 8996TIP3   OH248478   0.275   6.491  15.470  0.3281 -0.6505  0.2863
 8996TIP3    H148479   0.206   6.512  15.407  0.3827 -0.7552  0.1907
 8996TIP3    H248480   0.246   6.408  15.510  0.2326 -0.5215  0.4857
 8997TIP3   OH248481   5.819   5.895   4.122 -0.6183  0.1094  0.2602
 8997TIP3    H148482   5.889   5.904   4.057  0.2487 -0.9499  1.0262
 8997TIP3    H248483   5.779   5.810   4.103 -2.7227  1.3504 -1.1263
 8998TIP3   OH248484   2.842   4.112  15.269 -0.2557  0.1169  0.3582
 8998TIP3    H148485   2.929   4.077  15.286 -0.1817  0.2876  0.3318
 8998TIP3    H248486   2.857   4.201  15.237 -0.4435  0.1921  0.4739
 8999TIP3   OH248487   4.594   3.114  15.555  0.0212  0.8376  0.3811
 8999TIP3    H148488   4.639   3.077  15.631  1.6834 -0.8271 -1.3347
 8999TIP3    H248489   4.661   3.116  15.486 -1.1962  3.1370 -0.8037
 9000TIP3   OH248490   3.673   2.364   2.866  0.1265 -0.0466 -0.1359
 9000TIP3    H148491   3.616   2.407   2.801  1.4192  1.6192 -0.1939
 9000TIP3    H248492   3.623   2.287   2.895 -1.0462 -0.0444 -2.0899
 9001TIP3   OH248493   4.124   6.511  17.162 -0.5689  0.2784  0.5969
 9001TIP3    H148494   4.087   6.448  17.224 -2.4526  1.4654  0.7196
 9001TIP3    H248495   4.122   6.594  17.208 -0.3324  0.8576 -0.4261
 9002TIP3   OH248496   3.897   2.885  10.306  0.0917 -0.0064  0.0987
 9002TIP3    H148497   3.884   2.816  10.371  0.7145  0.4102  0.6620
 9002TIP3    H248498   3.892   2.839  10.222  2.5498 -1.0987  0.5142
 9003TIP3   OH248499   0.325   2.747  12.011 -0.1766 -0.3919 -0.4648
 9003TIP3    H148500   0.282   2.665  12.035  0.3143 -0.5698 -0.1832
 9003TIP3    H248501   0.337   2.740  11.916 -2.0001  0.2588 -0.7592
 9004TIP3   OH248502   4.704   5.350   1.778  0.3884  0.1489  0.1337
 9004TIP3    H148503   4.652   5.430   1.774 -0.9067 -0.6918 -0.3429
 9004TIP3    H248504   4.731   5.335   1.687  1.4724  0.5740  0.3763
 9005TIP3   OH248505   6.386   6.106  17.145  0.0340  0.5933  0.7753
 9005TIP3    H148506   6.401   6.135  17.055  0.8953 -1.3623  0.2722
 9005TIP3    H248507   6.468   6.064  17.170 -1.0356 -0.9999  1.6338
 9006TIP3   OH248508   2.877   5.237  11.831  0.3435  0.1501 -0.7120
 9006TIP3    H148509   2.885   5.196  11.917 -0.3560 -0.4095 -0.9101
 9006TIP3    H248510   2.946   5.197  11.779 -1.6882 -2.3972 -1.5287
 9007TIP3   OH248511   1.862   1.815   3.110  0.3543  0.7505 -0.4000
 9007TIP3    H148512   1.870   1.766   3.192  0.2042 -0.0602 -0.8591
 9007TIP3    H248513   1.932   1.880   3.113  1.1051 -0.0598 -0.1542
 9008TIP3   OH248514   1.755   0.515   0.766 -0.2072  0.2546  0.2620
 9008TIP3    H148515   1.813   0.448   0.802 -0.2322  0.0785 -0.0297
 9008TIP3    H248516   1.735   0.572   0.841  0.4874  0.4227  0.3267
 9009TIP3   OH248517   4.313   1.996   3.602 -0.1278 -0.2169  0.1496
 9009TIP3    H148518   4.299   2.012   3.508 -0.3681  0.8386  0.3614
 9009TIP3    H248519   4.313   1.901   3.610  0.0813 -0.3179 -0.9542
 9010TIP3   OH248520   1.314   5.670  13.167  0.3681 -0.4173 -0.0991
 9010TIP3    H148521   1.320   5.577  13.146  0.8280 -0.0591 -1.6056
 9010TIP3    H248522   1.266   5.709  13.093 -1.4221  0.2644  1.3774
 9011TIP3   OH248523   0.191   2.018   1.092 -0.4779  0.4044  0.1111
 9011TIP3    H148524   0.220   1.985   1.177 -0.4375  0.8581  0.2745
 9011TIP3    H248525   0.254   1.982   1.030  1.1080  2.2766  0.5859
 9012TIP3   OH248526   0.023   0.011   4.832  0.4038 -0.4573  0.1743
 9012TIP3    H148527   0.056  -0.078   4.848  0.3532 -0.8744 -1.8887
 9012TIP3    H248528  -0.021   0.035   4.914  1.2703 -1.9339  1.1133
 9013TIP3   OH248529   0.697   3.041   4.385 -0.6975 -0.2051  0.0307
 9013TIP3    H148530   0.750   2.962   4.398  1.8150  1.1402 -1.5498
 9013TIP3    H248531   0.619   3.010   4.339  0.6874 -1.6477 -1.4285
 9014TIP3   OH248532   3.663   4.049   2.317 -0.3227 -0.1455  0.2296
 9014TIP3    H148533   3.619   4.134   2.324 -1.3890 -0.8562  2.9013
 9014TIP3    H248534   3.734   4.055   2.382 -1.2693 -1.7653  1.4456
 9015TIP3   OH248535   2.772   4.073  14.391 -0.3200  0.1323  0.4940
 9015TIP3    H148536   2.713   4.148  14.403 -2.3223 -1.2127 -0.6355
 9015TIP3    H248537   2.773   4.058  14.297 -0.0728 -1.3586  0.7291
 9016TIP3   OH248538   5.584   0.785  14.743 -0.6659 -0.1213 -0.0662
 9016TIP3    H148539   5.516   0.851  14.751 -1.8188 -1.5832  2.9360
 9016TIP3    H248540   5.561   0.718  14.807  1.6526 -2.4021 -1.4771
 9017TIP3   OH248541   2.289   1.183   5.475 -0.2363  0.3962 -0.1026
 9017TIP3    H148542   2.235   1.199   5.398 -0.0912  1.9888  0.1114
 9017TIP3    H248543   2.303   1.089   5.475 -2.5449  0.0141 -0.4707
 9018TIP3   OH248544   4.994   6.271  16.652 -0.0062  0.3089  0.5089
 9018TIP3    H148545   5.057   6.342  16.638 -0.8052  1.0920  0.8420
 9018TIP3    H248546   5.008   6.213  16.577  0.5634  0.8820  0.1530
 9019TIP3   OH248547   3.928   5.573  11.914 -0.4715  0.5674 -0.3182
 9019TIP3    H148548   4.007   5.534  11.950  1.0243  1.6948 -2.2903
 9019TIP3    H248549   3.916   5.655  11.961 -1.1552 -0.1506  0.7894
 9020TIP3   OH248550   1.177   6.197  15.433 -0.0728  0.0665 -0.2027
 9020TIP3    H148551   1.264   6.197  15.474  0.2103 -2.4995 -0.7650
 9020TIP3    H248552   1.189   6.249  15.353  0.6554  0.6850  0.2960
 9021TIP3   OH248553   2.237   5.299   4.539 -0.0981 -0.3490 -0.2746
 9021TIP3    H148554   2.234   5.209   4.506  0.1846  0.2233 -1.9185
 9021TIP3    H248555   2.279   5.293   4.625  0.0702 -1.7534 -0.4549
 9022TIP3   OH248556   4.060   0.253  11.566 -0.4200  0.7199 -0.2862
 9022TIP3    H148557   4.101   0.333  11.598 -1.1981  1.6865 -1.6226
 9022TIP3    H248558   4.127   0.214  11.509 -0.3203  0.8100 -0.2317
 9023TIP3   OH248559   1.675   5.048   5.115 -0.1084 -0.4056  0.0699
 9023TIP3    H148560   1.633   5.032   5.199  0.9869 -3.3714  0.1389
 9023TIP3    H248561   1.607   5.027   5.050 -0.0357 -1.0649  0.2039
 9024TIP3   OH248562   2.102   5.712   0.810 -0.4237 -0.0245 -0.1536
 9024TIP3    H148563   2.040   5.711   0.883 -0.8070 -0.1397 -0.4749
 9024TIP3    H248564   2.118   5.620   0.791  0.6727  0.0064  0.6151
 9025TIP3   OH248565   3.406   6.547  14.106 -0.1496 -0.4384 -0.6137
 9025TIP3    H148566   3.488   6.549  14.056  0.6246  0.7164  0.6872
 9025TIP3    H248567   3.364   6.631  14.088 -0.3669 -0.4440 -0.1434
 9026TIP3   OH248568   2.950   2.873  16.274  0.5309  0.5695 -0.3959
 9026TIP3    H148569   2.976   2.949  16.221  0.7282  0.1701 -0.8766
 9026TIP3    H248570   2.901   2.818  16.213  0.0703  0.4880  0.0505
 9027TIP3   OH248571   2.208   6.016   0.322  0.2810 -0.0996 -0.2040
 9027TIP3    H148572   2.217   5.932   0.277 -2.5478  0.3055 -1.6303
 9027TIP3    H248573   2.222   6.081   0.253 -1.0937  0.5528  0.1187
 9028TIP3   OH248574   0.235   3.974   3.761 -0.4365  0.2692  0.1297
 9028TIP3    H148575   0.215   3.892   3.805  0.9211  0.0627  0.3819
 9028TIP3    H248576   0.180   4.039   3.804  0.1380 -0.1069  1.4671
 9029TIP3   OH248577   1.316   3.715   3.425 -0.5660  0.0548  0.4618
 9029TIP3    H148578   1.269   3.798   3.430  1.0720  1.1414 -1.6800
 9029TIP3    H248579   1.284   3.674   3.345 -1.1972 -1.3277  1.3828
 9030TIP3   OH248580   2.275   3.108  11.270  0.1242 -0.1147  0.2200
 9030TIP3    H148581   2.311   3.064  11.193 -0.8405 -0.6458  0.0627
 9030TIP3    H248582   2.304   3.055  11.344 -2.1586 -1.8631 -0.0518
 9031TIP3   OH248583   5.488   1.477   3.051  0.8351 -0.1595  0.3861
 9031TIP3    H148584   5.570   1.526   3.035  0.7660  0.0194  0.5810
 9031TIP3    H248585   5.427   1.513   2.987  0.6961  0.2236  0.7333
 9032TIP3   OH248586   3.403   1.909  16.780 -0.1331  0.0724 -0.1171
 9032TIP3    H148587   3.357   1.925  16.698  0.8395  1.0989 -0.4851
 9032TIP3    H248588   3.477   1.853  16.755  0.5309  0.9147 -0.0688
 9033TIP3   OH248589   3.119   3.460   1.856  0.4463  0.1035  0.1110
 9033TIP3    H148590   3.149   3.501   1.775 -1.5422 -0.2565 -0.8347
 9033TIP3    H248591   3.128   3.529   1.922 -1.5723  1.6814 -1.1847
 9034TIP3   OH248592   2.067   1.764   1.965  0.1308 -0.4652 -0.3624
 9034TIP3    H148593   2.061   1.807   2.051 -1.0320 -0.0642 -0.6319
 9034TIP3    H248594   2.129   1.692   1.979  2.2916  1.4414  0.0203
 9035TIP3   OH248595   6.135   6.129   2.514  0.8395  0.7541  0.0253
 9035TIP3    H148596   6.192   6.189   2.562  0.5780  1.3908 -0.4559
 9035TIP3    H248597   6.194   6.059   2.484  0.9031  0.0192  1.7722
 9036TIP3   OH248598   3.861   5.641  14.019 -0.0406  0.1408  0.0572
 9036TIP3    H148599   3.856   5.725  14.066  1.6449  1.4049 -1.9235
 9036TIP3    H248600   3.952   5.614  14.030  0.0615 -0.1561 -1.4214
 9037TIP3   OH248601   3.336   2.531   2.128 -0.0753  0.1539  0.1754
 9037TIP3    H148602   3.247   2.519   2.160  0.0786  0.5013  0.7339
 9037TIP3    H248603   3.391   2.482   2.190  0.0878 -0.3602 -0.3714
 9038TIP3   OH248604   3.450   3.106   5.078 -0.1980  0.4322 -0.5962
 9038TIP3    H148605   3.506   3.081   5.005  2.4409 -0.1613  1.5442
 9038TIP3    H248606   3.493   3.183   5.117 -0.4465 -0.4547  1.5099
 9039TIP3   OH248607   3.567   1.923   2.112  0.4008  0.6229 -0.6786
 9039TIP3    H148608   3.506   1.914   2.185 -0.2879 -0.5141 -1.3763
 9039TIP3    H248609   3.511   1.921   2.034  1.1058  2.0424 -1.2368
 9040TIP3   OH248610   6.574   2.220   5.954 -0.3674  0.0405 -0.6226
 9040TIP3    H148611   6.506   2.279   5.921 -0.9332 -0.5581 -0.5585
 9040TIP3    H248612   6.533   2.133   5.951 -0.0789 -0.1545  0.6999
 9041TIP3   OH248613   5.755   1.301   2.504  0.2888 -0.0075  0.1587
 9041TIP3    H148614   5.841   1.293   2.545  0.0535  1.0206  0.8606
 9041TIP3    H248615   5.703   1.353   2.565 -0.3992  0.6221 -0.9441
 9042TIP3   OH248616   1.082   3.830  11.798 -0.3926 -0.0787 -0.1832
 9042TIP3    H148617   1.097   3.920  11.827 -0.3756  0.5623 -2.0503
 9042TIP3    H248618   0.987   3.823  11.787 -0.3910 -0.2681 -0.0759
 9043TIP3   OH248619   3.182   0.242   4.381 -0.5167  0.0353  0.0675
 9043TIP3    H148620   3.098   0.203   4.403 -1.0860  1.3708  0.2806
 9043TIP3    H248621   3.242   0.167   4.374 -1.4282 -0.8124  1.1768
 9044TIP3   OH248622   2.184   1.626   3.224 -0.2455  0.6219  0.2268
 9044TIP3    H148623   2.248   1.587   3.283  0.3692  0.8414 -0.2847
 9044TIP3    H248624   2.192   1.574   3.143 -1.9945 -0.5162  0.7524
 9045TIP3   OH248625   3.465   6.051  17.146 -0.0302 -0.0398 -0.4516
 9045TIP3    H148626   3.514   6.049  17.064  0.4933 -0.2290 -0.1331
 9045TIP3    H248627   3.409   6.129  17.138 -0.7408 -0.6334 -1.4305
 9046TIP3   OH248628   5.970   5.945  16.804 -0.0920  0.4620  0.8469
 9046TIP3    H148629   5.979   5.940  16.709 -0.4029 -0.8573  0.8745
 9046TIP3    H248630   6.058   5.964  16.835  0.2066 -0.0666  0.3467
 9047TIP3   OH248631   6.465   4.362   0.117 -0.0321  0.0483  0.0422
 9047TIP3    H148632   6.377   4.377   0.082  0.2752  2.1520  0.0965
 9047TIP3    H248633   6.522   4.362   0.040 -0.1518 -2.0055 -0.0581
 9048TIP3   OH248634   4.031   1.478   2.864  0.0155  0.1050 -0.1226
 9048TIP3    H148635   4.074   1.399   2.830 -1.3425 -0.5928 -0.2492
 9048TIP3    H248636   4.095   1.548   2.850  1.4672 -1.0615  0.5090
 9049TIP3   OH248637   1.690   1.632   3.921  0.3917  0.4792 -0.0147
 9049TIP3    H148638   1.721   1.542   3.927  2.7895  1.4248  2.5234
 9049TIP3    H248639   1.666   1.655   4.011 -0.9773  2.1453 -0.7707
 9050TIP3   OH248640   5.819   6.576  11.730 -0.4352 -0.1313  0.3724
 9050TIP3    H148641   5.842   6.629  11.655  0.2090  0.1140  0.7410
 9050TIP3    H248642   5.734   6.610  11.759 -0.7446 -0.3182 -0.3225
 9051TIP3   OH248643   5.928   1.021   1.881  0.0080  0.0832 -0.0783
 9051TIP3    H148644   5.840   1.005   1.916 -0.6770 -0.2180 -1.8400
 9051TIP3    H248645   5.985   1.023   1.958 -1.7766  2.0656  1.2555
 9052TIP3   OH248646   5.296   6.541   4.970 -0.0574 -0.1191  0.0347
 9052TIP3    H148647   5.311   6.510   5.059 -0.9308 -1.2790 -0.2089
 9052TIP3    H248648   5.229   6.609   4.979  1.7249  1.5977  0.5505
 9053TIP3   OH248649   4.983   5.514   2.119 -0.3351  0.3699 -0.2724
 9053TIP3    H148650   4.930   5.588   2.149 -1.3951 -0.5090  0.0724
 9053TIP3    H248651   5.014   5.541   2.032  0.7048  1.9023  0.5545
 9054TIP3   OH248652   1.422   3.027   2.183 -0.2237 -0.2626 -0.1453
 9054TIP3    H148653   1.491   3.032   2.118  0.1833  0.4037  0.3295
 9054TIP3    H248654   1.453   3.082   2.255  0.2143 -2.4737  1.4131
 9055TIP3   OH248655   5.236   2.326  12.975 -0.0565  0.6640  0.5616
 9055TIP3    H148656   5.241   2.231  12.960  0.4182  0.7095  0.4360
 9055TIP3    H248657   5.311   2.346  13.032  0.8296  1.2217 -0.7711
 9056TIP3   OH248658   4.866   0.684  12.111  0.4596  0.1352 -0.0525
 9056TIP3    H148659   4.824   0.674  12.025  1.1013 -0.5673 -0.2866
 9056TIP3    H248660   4.820   0.759  12.151 -1.7657 -1.2787  0.1366
 9057TIP3   OH248661   0.239   4.005  12.199  0.0261  0.1052  0.1515
 9057TIP3    H148662   0.213   4.051  12.119  0.3990  0.5776  0.2996
 9057TIP3    H248663   0.162   3.954  12.224 -0.6588  1.2473  0.4195
 9058TIP3   OH248664   1.286   1.787   5.188 -0.2687  0.1829  0.2491
 9058TIP3    H148665   1.198   1.811   5.162 -0.0021 -0.7151 -1.5304
 9058TIP3    H248666   1.293   1.694   5.168  1.1111  0.2649  0.2717
 9059TIP3   OH248667   3.398   4.300   3.767 -0.3270 -0.5095 -0.0333
 9059TIP3    H148668   3.348   4.381   3.779  0.5220  0.3670 -2.1283
 9059TIP3    H248669   3.460   4.299   3.840 -0.8833  0.3248  0.4595
 9060TIP3   OH248670   2.277   5.034  13.460  0.2425  0.1526 -0.3757
 9060TIP3    H148671   2.342   5.104  13.475  1.1981 -0.7480 -0.2187
 9060TIP3    H248672   2.255   5.003  13.548  2.9138 -2.4944 -0.5521
 9061TIP3   OH248673   4.509   4.036   0.392 -0.0411 -0.0927 -0.1313
 9061TIP3    H148674   4.437   4.097   0.378  1.1439  1.0826 -1.0950
 9061TIP3    H248675   4.586   4.079   0.355  1.5188 -0.5934  2.4039
 9062TIP3   OH248676   2.277   4.729   5.937  0.4880  0.7607  0.1634
 9062TIP3    H148677   2.208   4.750   6.001  0.3559  2.2826 -0.4543
 9062TIP3    H248678   2.248   4.771   5.856  1.4730  0.2430 -0.4657
 9063TIP3   OH248679   3.517   4.058  12.172  0.0416  0.5450 -0.3051
 9063TIP3    H148680   3.506   4.014  12.087  1.4389  1.2038 -0.8444
 9063TIP3    H248681   3.602   4.028  12.204 -0.1322  0.9013  0.5073
 9064TIP3   OH248682   4.697   3.052  10.954  0.7159 -0.2189  0.3037
 9064TIP3    H148683   4.618   3.015  10.992  0.7469  0.6914  1.2876
 9064TIP3    H248684   4.689   3.036  10.860 -1.0488  0.6058  0.2938
 9065TIP3   OH248685   4.603   1.863  13.537 -0.2785  0.1917 -0.3279
 9065TIP3    H148686   4.547   1.940  13.523  0.0650  0.6835  0.9300
 9065TIP3    H248687   4.629   1.836  13.449 -1.2378  0.8954 -0.8389
 9066TIP3   OH248688   2.668   5.575  16.605  0.0382 -1.0365  0.4716
 9066TIP3    H148689   2.617   5.633  16.662 -1.0067 -1.0750 -0.4065
 9066TIP3    H248690   2.759   5.587  16.634 -0.1552  1.0310  0.3142
 9067TIP3   OH248691   5.254   2.292   2.926  0.1513 -0.1696  0.0497
 9067TIP3    H148692   5.276   2.324   3.014  1.4027  0.9249 -0.6496
 9067TIP3    H248693   5.339   2.272   2.886 -0.4303 -0.9408 -0.8077
 9068TIP3   OH248694   5.269   0.473   2.228 -0.4419 -0.2560 -0.0177
 9068TIP3    H148695   5.363   0.455   2.222 -0.1968  0.2987  1.9421
 9068TIP3    H248696   5.253   0.540   2.162  0.2883 -1.2845 -1.2577
 9069TIP3   OH248697   3.263   3.218  13.290 -0.8566  0.2358 -0.0858
 9069TIP3    H148698   3.260   3.170  13.207  0.4443  0.5657 -0.3468
 9069TIP3    H248699   3.348   3.263  13.288 -0.4129 -0.4650  1.8185
 9070TIP3   OH248700   3.715   1.106  12.457  0.7517 -0.2743  0.2130
 9070TIP3    H148701   3.767   1.056  12.519 -0.9210 -2.0888  0.1752
 9070TIP3    H248702   3.710   1.194  12.495  2.1264 -0.5970  1.1878
 9071TIP3   OH248703   1.538   4.350  16.642  0.1368  0.5727  1.0508
 9071TIP3    H148704   1.520   4.444  16.650  0.7623  0.7403  0.5876
 9071TIP3    H248705   1.454   4.308  16.658 -1.0547  1.4031 -2.5780
 9072TIP3   OH248706   0.167   5.764   1.220  0.8589 -0.7259  0.5540
 9072TIP3    H148707   0.129   5.687   1.177  0.9407 -0.3324 -0.2514
 9072TIP3    H248708   0.094   5.802   1.269  0.6595 -0.9736  0.4500
 9073TIP3   OH248709   0.795   1.298   4.336 -0.3091  0.0171  0.3108
 9073TIP3    H148710   0.827   1.239   4.268 -0.3142  0.4357 -0.0589
 9073TIP3    H248711   0.829   1.384   4.311  0.7708 -0.0415  1.5393
 9074TIP3   OH248712   1.625   3.999   0.836 -0.0289  0.1660  0.0565
 9074TIP3    H148713   1.545   3.967   0.878  0.1016  0.5317  0.5873
 9074TIP3    H248714   1.687   4.009   0.908 -0.3268  2.4544  0.0419
 9075TIP3   OH248715   4.903   2.093  12.735 -0.0672  0.0054 -0.4746
 9075TIP3    H148716   4.935   2.183  12.737  0.4373 -0.1733 -0.6325
 9075TIP3    H248717   4.981   2.039  12.741 -0.3273 -0.4281 -0.9328
 9076TIP3   OH248718   6.111   3.183  16.899  0.4133  0.0203 -0.6034
 9076TIP3    H148719   6.035   3.136  16.862 -1.2408  1.2493  1.1228
 9076TIP3    H248720   6.100   3.175  16.994  0.6298  3.0450 -0.2887
 9077TIP3   OH248721   6.342   0.403  13.058 -0.3398 -0.3066  0.1694
 9077TIP3    H148722   6.394   0.469  13.013  0.8690 -2.0579 -1.0735
 9077TIP3    H248723   6.376   0.404  13.148 -0.2973  0.7111  0.1484
 9078TIP3   OH248724   2.001   5.365  10.843  0.0092  0.0089  0.3809
 9078TIP3    H148725   2.035   5.292  10.792  1.0952  1.0220 -0.3817
 9078TIP3    H248726   2.070   5.384  10.907 -1.0207 -0.7658  1.7559
 9079TIP3   OH248727   5.780   2.649   0.808 -0.0899 -0.5540  0.0728
 9079TIP3    H148728   5.742   2.694   0.732  1.1744 -0.7275 -0.6872
 9079TIP3    H248729   5.774   2.556   0.785  1.3288 -0.5579 -0.3387
 9080TIP3   OH248730   4.281   0.667  11.867 -0.2382  0.0848  0.5716
 9080TIP3    H148731   4.258   0.637  11.955  0.2848 -0.7184  0.4320
 9080TIP3    H248732   4.313   0.756  11.880 -1.2667  0.3907  1.0505
 9081TIP3   OH248733   5.338   1.077  12.323 -0.1193  0.0667  0.2353
 9081TIP3    H148734   5.367   1.096  12.412 -1.9969  0.1240  0.8761
 9081TIP3    H248735   5.310   1.161  12.288 -0.9224 -0.2090  0.1917
 9082TIP3   OH248736   0.717   3.227  17.163  0.1680  0.4635  0.1174
 9082TIP3    H148737   0.706   3.313  17.121  0.8318  0.0850 -0.8429
 9082TIP3    H248738   0.643   3.175  17.131  0.1946  0.4398  0.0940
 9083TIP3   OH248739   0.608   5.595  15.415  0.1632  0.0310  0.5142
 9083TIP3    H148740   0.634   5.516  15.366 -2.0701  0.5877 -1.6840
 9083TIP3    H248741   0.514   5.603  15.399  0.0575  2.2497  2.0418
 9084TIP3   OH248742   0.674   1.044   0.013  0.6767 -0.0003 -0.1613
 9084TIP3    H148743   0.599   1.002  -0.029  1.7725 -2.5383  0.3470
 9084TIP3    H248744   0.749   1.019  -0.041  1.4877  0.5979  0.6685
 9085TIP3   OH248745   6.705   4.951   1.734 -1.0043  0.2502 -0.4552
 9085TIP3    H148746   6.677   4.859   1.727  0.0484  0.0266 -2.0647
 9085TIP3    H248747   6.788   4.946   1.782  0.1481  0.1172 -2.4071
 9086TIP3   OH248748   2.446   4.649  16.547 -0.0837 -0.4850 -0.1019
 9086TIP3    H148749   2.358   4.625  16.573  0.1007  0.7388  1.7228
 9086TIP3    H248750   2.467   4.727  16.599  2.1405 -0.8638 -0.3499
 9087TIP3   OH248751   1.983   0.751   2.168  0.5931 -0.1917 -0.3803
 9087TIP3    H148752   1.936   0.793   2.095 -1.1265 -1.0262  0.2144
 9087TIP3    H248753   2.003   0.823   2.228 -0.0134  0.1742 -0.6091
 9088TIP3   OH248754   1.994   4.427   2.232 -0.4540 -0.6378  0.5207
 9088TIP3    H148755   2.079   4.404   2.271 -0.5634  0.2364  1.3180
 9088TIP3    H248756   1.982   4.365   2.161  0.2571 -1.5987  1.2265
 9089TIP3   OH248757   0.939   1.353  11.891  0.2045  0.2070  0.3089
 9089TIP3    H148758   0.943   1.289  11.962  0.1429  0.2030  0.3095
 9089TIP3    H248759   0.975   1.433  11.928 -0.3797  0.3698  0.5262
 9090TIP3   OH248760   2.401   4.627   3.989  0.3818 -0.2893  0.1262
 9090TIP3    H148761   2.435   4.643   3.901 -1.2248  0.8523 -0.3067
 9090TIP3    H248762   2.468   4.574   4.031  2.5398  1.5806 -0.8287
 9091TIP3   OH248763   4.786   1.424  16.532 -0.3105  0.0917 -0.0755
 9091TIP3    H148764   4.840   1.345  16.534 -0.4010  0.0247 -0.2906
 9091TIP3    H248765   4.759   1.437  16.623 -2.2071 -1.4505 -0.3613
 9092TIP3   OH248766   6.387   0.073   3.527 -0.1408  0.0312  0.3027
 9092TIP3    H148767   6.386  -0.021   3.506 -0.0636  0.1002 -0.0239
 9092TIP3    H248768   6.352   0.115   3.448 -1.2128  0.2039  0.8510
 9093TIP3   OH248769   4.479   1.701  12.270 -0.2914  0.0883  0.2251
 9093TIP3    H148770   4.436   1.747  12.198  0.3290  0.5221  0.1256
 9093TIP3    H248771   4.569   1.688  12.240 -0.0789  0.1040  0.8369
 9094TIP3   OH248772   4.956   4.046  13.370  0.9188  0.3148  0.2139
 9094TIP3    H148773   5.013   4.121  13.386 -0.0652  0.9198  0.9114
 9094TIP3    H248774   4.878   4.083  13.329 -0.6496  0.0248  2.8334
 9095TIP3   OH248775   0.679   6.674   4.395  0.4091 -0.4250  0.0212
 9095TIP3    H148776   0.664   6.751   4.340 -3.4304 -1.0284  0.0885
 9095TIP3    H248777   0.638   6.694   4.478  0.8632 -1.8852  0.6256
 9096TIP3   OH248778   2.819   0.979   0.330  0.7282  0.3341  0.0648
 9096TIP3    H148779   2.730   1.004   0.307 -0.2769 -0.2492  3.0954
 9096TIP3    H248780   2.819   0.883   0.324  1.1058  0.3249  0.2173
 9097TIP3   OH248781   0.346   2.442  12.523  0.8884 -0.2739  0.2374
 9097TIP3    H148782   0.375   2.512  12.464 -1.9220 -1.0855 -2.2532
 9097TIP3    H248783   0.281   2.484  12.579 -0.1135 -0.6218 -0.6372
 9098TIP3   OH248784   2.244   6.450  13.884 -0.0191 -0.4504 -0.1748
 9098TIP3    H148785   2.308   6.465  13.954  0.5674 -0.6229 -0.6615
 9098TIP3    H248786   2.281   6.496  13.808  0.3632 -1.9091 -0.9039
 9099TIP3   OH248787   4.588   5.012  15.196  0.4847  0.1014 -0.3154
 9099TIP3    H148788   4.640   4.980  15.122  0.3287  0.5194 -0.6043
 9099TIP3    H248789   4.638   4.984  15.273  0.2807 -0.9606 -0.5556
 9100TIP3   OH248790   1.423   6.470  13.939  0.1925  0.2581 -0.0618
 9100TIP3    H148791   1.505   6.437  13.977  0.1825  0.9096  0.5330
 9100TIP3    H248792   1.410   6.555  13.980 -0.9259  0.0428  0.0436
 9101TIP3   OH248793   1.637   4.083  15.987 -0.0435  0.3135 -0.1978
 9101TIP3    H148794   1.620   4.043  16.073  2.0880  1.3793  0.7747
 9101TIP3    H248795   1.596   4.169  15.993 -0.2529  0.2249 -0.3949
 9102TIP3   OH248796   5.959   5.726  13.815  0.2471  0.0058  0.1231
 9102TIP3    H148797   5.914   5.652  13.857  1.6943 -1.6758 -1.2067
 9102TIP3    H248798   5.954   5.797  13.879 -3.1221 -0.5076  0.5600
 9103TIP3   OH248799   5.327   6.704  12.970 -0.5982 -0.5430 -1.0831
 9103TIP3    H148800   5.354   6.758  12.895 -1.3172 -0.0239 -0.9702
 9103TIP3    H248801   5.270   6.637  12.932 -0.7370 -0.4504 -1.0375
 9104TIP3   OH248802   5.563   5.793  15.492  0.3292 -0.0456 -0.3126
 9104TIP3    H148803   5.517   5.728  15.545 -1.1681  0.1638 -1.3212
 9104TIP3    H248804   5.513   5.874  15.506  1.2994  0.5445 -0.2318
 9105TIP3   OH248805   0.364   3.051  13.010 -0.0662  0.2766 -0.1388
 9105TIP3    H148806   0.331   2.967  13.042 -2.4288  1.7347  1.4268
 9105TIP3    H248807   0.337   3.053  12.918  0.8605 -1.0670 -0.4607
 9106TIP3   OH248808   4.487   2.158   3.247 -0.3568 -0.1206 -0.1517
 9106TIP3    H148809   4.515   2.158   3.338  1.3743 -0.1450 -0.6775
 9106TIP3    H248810   4.415   2.221   3.244 -0.1154  0.2277  1.1279
 9107TIP3   OH248811   1.430   6.143   0.553 -0.3899 -0.2937 -0.2627
 9107TIP3    H148812   1.490   6.124   0.482 -0.9339 -0.4018 -0.6982
 9107TIP3    H248813   1.343   6.138   0.513 -0.6874 -0.1378  0.3562
 9108TIP3   OH248814   4.199   6.468   5.851 -0.4349 -0.6320  0.2618
 9108TIP3    H148815   4.104   6.481   5.843 -0.7674 -2.4342  0.8721
 9108TIP3    H248816   4.208   6.376   5.878  1.4675 -0.3606  0.6365
 9109TIP3   OH248817   2.348   5.332   0.625 -0.0760  0.1821  0.0429
 9109TIP3    H148818   2.339   5.391   0.551  0.6541  0.6350  0.3161
 9109TIP3    H248819   2.431   5.287   0.610  0.7102  1.2262  1.2754
 9110TIP3   OH248820   0.939   0.673  12.569 -0.3280 -0.6254 -0.0639
 9110TIP3    H148821   0.951   0.617  12.492 -0.6108 -0.7454 -0.0223
 9110TIP3    H248822   0.861   0.725  12.549  1.5916  1.8523 -1.3537
 9111TIP3   OH248823   1.304   2.239   2.463 -0.3589 -0.3651  0.2371
 9111TIP3    H148824   1.254   2.219   2.383  1.0922 -2.3404 -0.2064
 9111TIP3    H248825   1.395   2.240   2.435  0.1006 -0.2286  1.7038
 9112TIP3   OH248826   5.538   3.745  12.638  0.7216  0.2483 -0.0002
 9112TIP3    H148827   5.597   3.789  12.699  1.7404  1.0110 -1.4860
 9112TIP3    H248828   5.594   3.721  12.564 -0.6668  0.2855 -1.0915
 9113TIP3   OH248829   2.176   4.019  17.046 -0.4750  0.0777  0.4102
 9113TIP3    H148830   2.144   4.001  17.134  0.6067 -0.1677  0.7611
 9113TIP3    H248831   2.142   3.947  16.993  0.1678 -0.6339  0.9436
 9114TIP3   OH248832   2.780   3.234  12.346  0.1705  0.0018  0.6117
 9114TIP3    H148833   2.801   3.298  12.415  0.0655 -0.2768  0.9019
 9114TIP3    H248834   2.763   3.153  12.393 -1.7379  0.2550  0.3991
 9115TIP3   OH248835   3.750   1.336  17.155 -0.8885 -0.0954  0.5325
 9115TIP3    H148836   3.702   1.412  17.124 -0.7338 -0.7238 -1.3551
 9115TIP3    H248837   3.705   1.261  17.115  0.5482 -0.8025  0.2002
 9116TIP3   OH248838   6.312   6.205  15.742 -0.0628 -0.0030  0.1074
 9116TIP3    H148839   6.373   6.232  15.673  0.2198  0.4610  0.5303
 9116TIP3    H248840   6.367   6.161  15.806  0.2229  2.4291  1.5918
 9117TIP3   OH248841   1.642   1.709  14.536  0.1431 -0.0991  0.9396
 9117TIP3    H148842   1.561   1.666  14.510 -0.4106  0.7083  1.3271
 9117TIP3    H248843   1.618   1.765  14.610  0.9477  0.5319  0.7391
 9118TIP3   OH248844   1.883   5.580  16.489 -0.3464 -0.4310  0.3838
 9118TIP3    H148845   1.926   5.604  16.571  0.0119 -0.3988  0.1871
 9118TIP3    H248846   1.947   5.602  16.421 -1.0185  0.4409  0.0272
 9119TIP3   OH248847   0.434   1.817   6.392  0.5169 -0.2867 -0.3125
 9119TIP3    H148848   0.481   1.735   6.411  1.1742 -0.1509 -1.2920
 9119TIP3    H248849   0.491   1.886   6.427  1.0354 -0.1261 -1.4414
 9120TIP3   OH248850   4.275   2.270   5.880  0.3603  0.4461 -0.3951
 9120TIP3    H148851   4.210   2.292   5.946  1.2751 -1.9115  1.3381
 9120TIP3    H248852   4.225   2.238   5.805 -0.5622  0.6255  0.1436
 9121TIP3   OH248853   5.387   2.501  15.384 -0.4926  0.0391  0.9825
 9121TIP3    H148854   5.480   2.501  15.407 -0.6529  1.6831  1.7489
 9121TIP3    H248855   5.384   2.480  15.291  0.9165  3.3573  0.1183
 9122TIP3   OH248856   0.776   1.251  16.191  0.1458 -0.4480 -0.0650
 9122TIP3    H148857   0.832   1.174  16.181  0.3983 -0.1312 -1.0977
 9122TIP3    H248858   0.752   1.251  16.284 -0.5272 -2.2411 -0.2241
 9123TIP3   OH248859   4.738   4.745  16.142 -0.4484 -0.5628 -0.3998
 9123TIP3    H148860   4.711   4.677  16.081 -0.9295 -0.0783 -0.7380
 9123TIP3    H248861   4.802   4.797  16.093  0.6745 -1.3654  0.2002
 9124TIP3   OH248862   3.166   0.483   2.717  0.4505  0.2889 -0.4254
 9124TIP3    H148863   3.256   0.515   2.715  0.8760 -0.9438 -0.9034
 9124TIP3    H248864   3.119   0.539   2.655  0.4573  2.1806  1.2265
 9125TIP3   OH248865   2.409   5.426  15.136 -0.3408 -0.1918  0.7257
 9125TIP3    H148866   2.322   5.455  15.109  0.8147  2.0966 -0.6257
 9125TIP3    H248867   2.446   5.501  15.183  0.8272 -1.2293  1.4955
 9126TIP3   OH248868   6.223   5.272   4.924 -0.0607  0.2751 -0.0847
 9126TIP3    H148869   6.271   5.212   4.981  1.1674  2.4099  1.2123
 9126TIP3    H248870   6.292   5.318   4.875 -0.8713  1.9725  0.3439
 9127TIP3   OH248871   1.138   4.489  15.940  0.6346 -0.7313 -0.0350
 9127TIP3    H148872   1.044   4.479  15.924  0.6485 -2.3031  0.7623
 9127TIP3    H248873   1.143   4.516  16.032  0.9214  0.2049 -0.3255
 9128TIP3   OH248874   5.454   4.866  16.635 -0.4934  0.0608  0.4057
 9128TIP3    H148875   5.482   4.835  16.721 -1.2646 -0.1454  0.5848
 9128TIP3    H248876   5.535   4.898  16.594  0.1196 -1.0648  0.6893
 9129TIP3   OH248877   2.780   4.145  16.687  0.3739 -0.9444  0.4180
 9129TIP3    H148878   2.736   4.123  16.604  0.0148 -1.2264  0.6774
 9129TIP3    H248879   2.828   4.225  16.668  0.1278 -0.8943 -0.0089
 9130TIP3   OH248880   2.774   3.793   0.324 -0.7215 -0.0358  0.1362
 9130TIP3    H148881   2.694   3.792   0.377 -0.3566 -1.5992  0.6909
 9130TIP3    H248882   2.774   3.708   0.279  1.1292 -0.4918  0.9373
 9131TIP3   OH248883   2.220   3.352   2.994 -0.6366  0.3307  0.4584
 9131TIP3    H148884   2.291   3.314   3.047  1.6413  0.8940 -2.1125
 9131TIP3    H248885   2.165   3.277   2.971  0.4551 -0.4985  0.4973
 9132TIP3   OH248886   4.633   4.194   1.153 -0.0296  0.1195  0.1226
 9132TIP3    H148887   4.660   4.122   1.209  1.3944 -0.3079 -1.0832
 9132TIP3    H248888   4.697   4.195   1.082 -1.1221  1.3820 -0.8780
 9133TIP3   OH248889   3.599   0.108   2.522  0.4389  0.5670 -0.0040
 9133TIP3    H148890   3.516   0.117   2.474  1.1754  1.8991 -1.0772
 9133TIP3    H248891   3.652   0.182   2.491  1.7718  0.1282  1.1945
 9134TIP3   OH248892   2.889   6.768   2.651 -0.0491  0.4558  0.3499
 9134TIP3    H148893   2.816   6.727   2.698  0.6106 -2.4241 -0.9988
 9134TIP3    H248894   2.856   6.779   2.561  1.0106 -0.5654 -0.1848
 9135TIP3   OH248895   1.071   0.028   0.360  0.2011 -0.2653 -0.9247
 9135TIP3    H148896   1.004  -0.033   0.389 -0.0976 -0.0140 -1.0817
 9135TIP3    H248897   1.082   0.088   0.435  0.5578 -0.5614 -0.7370
 9136TIP3   OH248898   5.694   4.224   3.257  0.0146 -0.1693  0.3106
 9136TIP3    H148899   5.680   4.155   3.323 -1.4573 -0.9088 -0.7535
 9136TIP3    H248900   5.776   4.199   3.214  1.9053  1.2395  2.9617
 9137TIP3   OH248901   6.413   3.428  13.640  0.1019  0.5350 -0.4535
 9137TIP3    H148902   6.381   3.467  13.720 -0.6691  0.0661 -0.5265
 9137TIP3    H248903   6.351   3.456  13.573  0.3803  0.3991 -0.7716
 9138TIP3   OH248904   2.788   3.191   4.575 -0.3387  0.1537 -0.3301
 9138TIP3    H148905   2.866   3.145   4.544 -1.0226 -0.5168 -1.0971
 9138TIP3    H248906   2.790   3.180   4.670  0.5920  0.2983 -0.3274
 9139TIP3   OH248907   5.537   4.689  14.923 -0.0952 -0.0205 -0.0304
 9139TIP3    H148908   5.633   4.686  14.927 -0.1497 -1.0190  0.7865
 9139TIP3    H248909   5.513   4.613  14.872 -0.5346 -0.9465  1.5261
 9140TIP3   OH248910   2.213   1.762   3.952 -0.0200  0.2603  0.3824
 9140TIP3    H148911   2.281   1.830   3.949 -1.0449  1.3034  0.6815
 9140TIP3    H248912   2.149   1.795   4.014 -0.9806 -0.5785 -0.1544
 9141TIP3   OH248913   6.431   5.608  15.995 -0.0010 -0.1028  0.6627
 9141TIP3    H148914   6.500   5.612  15.929  0.3799 -0.0661  1.0632
 9141TIP3    H248915   6.474   5.632  16.076 -0.3692 -0.6037  1.0074
 9142TIP3   OH248916   5.001   4.824  15.494 -0.6646 -0.3554 -0.0539
 9142TIP3    H148917   4.971   4.915  15.497 -0.3959 -0.3339  2.2096
 9142TIP3    H248918   5.057   4.821  15.416  2.6453  2.5133  2.0187
 9143TIP3   OH248919   5.596   6.265   2.645 -0.1088 -0.3720  0.4491
 9143TIP3    H148920   5.505   6.260   2.613  0.4234  0.9938 -1.3371
 9143TIP3    H248921   5.590   6.237   2.737 -2.2109 -1.0678  0.1452
 9144TIP3   OH248922   2.779   2.395  14.843 -0.0491  0.1315 -0.0575
 9144TIP3    H148923   2.753   2.477  14.803  0.5289  0.3828  0.0784
 9144TIP3    H248924   2.865   2.376  14.806 -0.6234 -0.9377 -0.8627
 9145TIP3   OH248925   5.988   0.815   0.690 -0.2117 -0.2701  0.1089
 9145TIP3    H148926   6.059   0.880   0.695 -0.7843  0.7170 -3.1211
 9145TIP3    H248927   6.033   0.732   0.675  0.3514  0.1162 -0.4054
 9146TIP3   OH248928   0.526   2.578   0.588 -0.8849  0.1324  0.2969
 9146TIP3    H148929   0.480   2.580   0.504  0.4907  2.5715 -0.4689
 9146TIP3    H248930   0.494   2.656   0.634  0.9029  0.7078  0.5951
 9147TIP3   OH248931   0.456   5.637   3.981  0.0935 -0.0036  0.7406
 9147TIP3    H148932   0.369   5.668   4.005 -0.1741  0.0095 -0.2441
 9147TIP3    H248933   0.504   5.635   4.064 -0.7594  0.2434  1.2459
 9148TIP3   OH248934   1.839   1.886  15.300 -0.4542 -0.3759  0.2294
 9148TIP3    H148935   1.790   1.956  15.258 -1.2311 -0.3346  1.2083
 9148TIP3    H248936   1.926   1.889  15.258 -1.6630 -1.3404 -2.5008
 9149TIP3   OH248937   2.761   1.077   4.501  0.5412 -0.0136 -0.8664
 9149TIP3    H148938   2.715   1.038   4.427  1.4895  0.6394 -1.8255
 9149TIP3    H248939   2.694   1.088   4.569 -0.5612  0.3614 -2.0087
 9150TIP3   OH248940   1.644   6.803  14.574 -0.1851  0.7054 -0.4033
 9150TIP3    H148941   1.550   6.810  14.594  0.0826 -2.1319  2.2285
 9150TIP3    H248942   1.655   6.714  14.542  1.6524  0.9114 -0.3762
 9151TIP3   OH248943   6.341   3.858  10.964  0.5103 -0.7753  0.1781
 9151TIP3    H148944   6.354   3.841  10.871  0.6890 -1.0123  0.2460
 9151TIP3    H248945   6.330   3.953  10.970  2.5511 -0.5351  0.1755
 9152TIP3   OH248946   5.866   3.882  12.975  0.3220  0.6044  0.0976
 9152TIP3    H148947   5.837   3.814  13.035  0.0577  1.2180  0.6834
 9152TIP3    H248948   5.944   3.919  13.016  0.3494  0.7842 -0.1125
 9153TIP3   OH248949   3.626   0.591   5.393  0.0662  0.0953  0.3926
 9153TIP3    H148950   3.682   0.612   5.319  0.6176  1.9321  1.3150
 9153TIP3    H248951   3.562   0.662   5.397 -2.6502 -2.1498 -0.8987
 9154TIP3   OH248952   0.790   2.389  13.687  0.3752  0.6106  0.2734
 9154TIP3    H148953   0.819   2.309  13.732 -1.4295 -0.1371  0.1394
 9154TIP3    H248954   0.756   2.444  13.757 -1.6239 -0.1923 -0.0456
 9155TIP3   OH248955   6.268   5.532  13.803  0.0812 -0.6049 -0.0496
 9155TIP3    H148956   6.185   5.568  13.835  0.0426  0.7464 -1.6278
 9155TIP3    H248957   6.258   5.437  13.812 -1.0454 -0.3888  1.1534
 9156TIP3   OH248958   2.819   6.577  15.124 -0.2246  0.4553  0.1748
 9156TIP3    H148959   2.830   6.664  15.087 -0.1477  1.4030  2.3178
 9156TIP3    H248960   2.739   6.583  15.177  0.8577 -0.1819  1.9288
 9157TIP3   OH248961   4.178   5.890   2.236 -0.8563 -0.5155 -0.2394
 9157TIP3    H148962   4.197   5.810   2.187  1.8483 -0.9596  1.4428
 9157TIP3    H248963   4.109   5.864   2.298 -0.4736 -1.3630 -0.1599
 9158TIP3   OH248964   6.670   3.174  14.773 -0.3454  0.3343  0.4313
 9158TIP3    H148965   6.689   3.127  14.692 -0.0106  0.8755  0.1918
 9158TIP3    H248966   6.756   3.190  14.812 -0.3720  1.7010 -0.0350
 9159TIP3   OH248967   3.343   6.196   2.821  0.2207 -0.5389 -0.6705
 9159TIP3    H148968   3.295   6.114   2.825  0.0469 -0.4222 -0.3234
 9159TIP3    H248969   3.430   6.174   2.855 -0.5238 -0.0832  1.5981
 9160TIP3   OH248970   1.834   3.215  11.240  0.2709  0.0611 -0.2859
 9160TIP3    H148971   1.789   3.229  11.323 -0.2931 -0.3070 -0.5245
 9160TIP3    H248972   1.782   3.263  11.175 -1.0747 -2.1415 -0.9271
 9161TIP3   OH248973   0.367   5.416  11.889 -0.0022 -0.7374 -0.0416
 9161TIP3    H148974   0.336   5.410  11.799  2.3803 -0.1081 -0.9297
 9161TIP3    H248975   0.311   5.483  11.930  0.9526  1.2458 -1.9360
 9162TIP3   OH248976   3.132   2.841  15.578  0.0965  0.2332 -0.0521
 9162TIP3    H148977   3.202   2.855  15.514  1.3216 -1.9442  0.7596
 9162TIP3    H248978   3.054   2.875  15.535  1.5703  2.4312 -1.1096
 9163TIP3   OH248979   5.243   0.742  16.831 -0.3394 -0.7925 -0.3596
 9163TIP3    H148980   5.258   0.651  16.858 -0.7884 -0.7253  0.1407
 9163TIP3    H248981   5.148   0.747  16.817 -0.2823 -0.4700 -0.6490
 9164TIP3   OH248982   3.586   4.784  13.726  0.0894  0.3491  0.0206
 9164TIP3    H148983   3.605   4.693  13.702 -2.1911 -0.0350 -0.3700
 9164TIP3    H248984   3.610   4.790  13.819  1.7776 -0.1868 -0.3509
 9165TIP3   OH248985   1.773   3.972  14.881 -0.1942  0.4449 -0.6598
 9165TIP3    H148986   1.827   3.894  14.872  0.5949  0.8722  0.3455
 9165TIP3    H248987   1.739   3.968  14.970 -0.3266  1.1349 -0.6782
 9166TIP3   OH248988   3.823   5.773  15.805 -0.3156  0.3244  0.9578
 9166TIP3    H148989   3.885   5.766  15.732 -1.8987 -0.3437 -0.3413
 9166TIP3    H248990   3.879   5.785  15.882  1.3470  2.0328 -0.4540
 9167TIP3   OH248991   0.156   1.216  11.021 -0.7436  0.2041  0.1296
 9167TIP3    H148992   0.156   1.310  11.000  1.8877  0.1604 -0.1739
 9167TIP3    H248993   0.122   1.212  11.111 -3.1534  1.2124 -0.6996
 9168TIP3   OH248994   2.774   2.408   0.907  0.0211  0.2382  0.0424
 9168TIP3    H148995   2.781   2.361   0.824 -0.2015 -1.2901  0.8763
 9168TIP3    H248996   2.775   2.500   0.883  0.1489 -0.2002 -1.6432
 9169TIP3   OH248997   3.653   3.881  11.934  0.4035  0.3118  0.5427
 9169TIP3    H148998   3.694   3.964  11.957  0.5095  0.2547  0.5601
 9169TIP3    H248999   3.645   3.834  12.017  0.0686  0.4291  0.5767
 9170TIP3   OH249000   1.746   4.024  16.632  0.0843 -0.0087 -0.4319
 9170TIP3    H149001   1.693   3.971  16.692 -0.2036  0.8123  0.0494
 9170TIP3    H249002   1.756   4.108  16.677  3.6996 -0.8619  0.5353
 9171TIP3   OH249003   4.869   4.217  12.126  0.7371  0.3242 -0.4025
 9171TIP3    H149004   4.956   4.221  12.165  0.1776 -0.6256  0.9983
 9171TIP3    H249005   4.881   4.165  12.046  1.3977 -0.0201 -0.0812
 9172TIP3   OH249006   1.115   2.005   4.268 -0.0014 -0.2393  0.3449
 9172TIP3    H149007   1.107   1.912   4.290 -0.3286 -0.0204  1.1758
 9172TIP3    H249008   1.128   2.048   4.352  2.3243  0.2439 -0.2281
 9173TIP3   OH249009   5.857   5.271   2.718  0.3003 -0.4721 -0.1114
 9173TIP3    H149010   5.855   5.336   2.647 -0.2743  0.3524  0.6408
 9173TIP3    H249011   5.900   5.195   2.680  0.0475 -0.0170 -1.3311
 9174TIP3   OH249012   6.323   0.261   1.564  0.2005  0.2784 -0.0662
 9174TIP3    H149013   6.302   0.324   1.634  1.5501  0.2935  0.3426
 9174TIP3    H249014   6.409   0.289   1.533  1.6156 -2.4114  1.3112
 9175TIP3   OH249015   6.366   3.364  11.624 -0.2586  0.4765 -0.0589
 9175TIP3    H149016   6.422   3.342  11.698  0.9289 -1.6735 -1.5486
 9175TIP3    H249017   6.291   3.305  11.632 -0.8220  1.2106  0.1869
 9176TIP3   OH249018   6.254   4.336   4.379 -0.4950 -0.8123 -0.8201
 9176TIP3    H149019   6.333   4.367   4.423 -1.9140  1.2167  0.3921
 9176TIP3    H249020   6.210   4.282   4.444 -1.0520 -0.3865 -0.8436
 9177TIP3   OH249021   0.129   1.953  14.775 -0.4456  0.3990  0.4916
 9177TIP3    H149022   0.121   1.859  14.790  0.8929  0.2041 -0.0216
 9177TIP3    H249023   0.143   1.962  14.681 -0.6406  1.1279  0.5241
 9178TIP3   OH249024   1.371   6.096  16.781  0.0721 -0.2367 -0.3745
 9178TIP3    H149025   1.456   6.104  16.825  0.2861 -2.1660 -0.3906
 9178TIP3    H249026   1.308   6.131  16.844  0.9145  1.7282 -0.5783
 9179TIP3   OH249027   1.666   1.187  15.238  0.0608 -0.3734  0.0824
 9179TIP3    H149028   1.707   1.139  15.165 -0.5333  1.1936 -1.3062
 9179TIP3    H249029   1.591   1.133  15.262 -0.4273 -0.3135 -1.2574
 9180TIP3   OH249030   6.333   4.479   5.621 -0.6509  0.3069  0.3026
 9180TIP3    H149031   6.266   4.540   5.650  2.2130  3.1196  1.3064
 9180TIP3    H249032   6.366   4.516   5.539 -0.8194 -1.4430 -0.5713
 9181TIP3   OH249033   1.310   3.330  15.492 -0.3251 -0.2864 -0.6057
 9181TIP3    H149034   1.260   3.263  15.538  1.2560 -2.2286 -1.6413
 9181TIP3    H249035   1.291   3.315  15.399  0.1984  0.5777 -0.8642
 9182TIP3   OH249036   6.714   3.557  12.986  0.9520  0.8051 -0.1227
 9182TIP3    H149037   6.649   3.526  12.923 -0.4183  2.3908  0.4669
 9182TIP3    H249038   6.719   3.652  12.972  0.4895  1.2204  2.2424
 9183TIP3   OH249039   4.805   3.259  14.000  0.1077 -0.1215 -0.3353
 9183TIP3    H149040   4.798   3.208  14.081  1.4916 -2.0593 -1.4085
 9183TIP3    H249041   4.882   3.314  14.013 -0.3107  0.3706  0.0902
 9184TIP3   OH249042   5.667   0.707  13.309 -0.0551  0.4494 -0.0254
 9184TIP3    H149043   5.591   0.708  13.367 -0.0207 -0.7825  0.0488
 9184TIP3    H249044   5.722   0.636  13.343  0.4280  0.3618 -0.9786
 9185TIP3   OH249045   6.040   0.367   0.934  0.2355 -0.1681  0.4732
 9185TIP3    H149046   6.051   0.304   0.862  0.0439 -0.9853  1.1492
 9185TIP3    H249047   5.956   0.344   0.973  0.5830 -0.0748  1.2896
 9186TIP3   OH249048   0.546   3.884  15.962  0.1725  0.7361  0.0866
 9186TIP3    H149049   0.487   3.953  15.933  1.6391  1.8630 -0.2605
 9186TIP3    H249050   0.502   3.802  15.938 -0.9399  1.5695 -0.7252
 9187TIP3   OH249051   2.533   2.118  14.002 -0.2057  0.2682 -0.3203
 9187TIP3    H149052   2.593   2.062  14.050  1.1091 -0.0399 -2.2482
 9187TIP3    H249053   2.469   2.147  14.067  1.1164 -0.6605  1.4299
 9188TIP3   OH249054   5.378   4.471   2.312 -0.2846  0.4668  0.7295
 9188TIP3    H149055   5.382   4.558   2.272  0.0734  0.4940  0.8158
 9188TIP3    H249056   5.380   4.489   2.406 -0.5375  0.3811  0.7489
 9189TIP3   OH249057   6.095   5.821  12.097 -0.3084 -0.4784 -0.1671
 9189TIP3    H149058   6.035   5.796  12.167 -1.3936 -0.3293 -1.0322
 9189TIP3    H249059   6.113   5.739  12.051 -0.1269 -0.4574 -0.1349
 9190TIP3   OH249060   3.964   1.470  17.052 -0.0017 -0.6314  0.0064
 9190TIP3    H149061   3.925   1.384  17.069 -2.0955  0.5566  1.3225
 9190TIP3    H249062   3.942   1.523  17.128 -0.7225  1.7740 -1.8178
 9191TIP3   OH249063   5.653   6.054   5.296  0.1582 -0.7256  0.6928
 9191TIP3    H149064   5.727   6.089   5.247 -2.2121  0.6561 -2.0598
 9191TIP3    H249065   5.620   5.982   5.241 -2.5167  0.8094  0.1994
 9192TIP3   OH249066   3.187   4.030   5.710 -0.4182 -0.3971  0.1555
 9192TIP3    H149067   3.214   4.113   5.672 -1.5701  0.7869  1.8844
 9192TIP3    H249068   3.263   4.001   5.760 -0.7039  0.6477  1.2210
 9193TIP3   OH249069   1.790   2.326  12.900 -0.2187 -0.2341  0.3406
 9193TIP3    H149070   1.695   2.340  12.910 -0.1520 -0.1118  0.8027
 9193TIP3    H249071   1.826   2.415  12.894 -0.1120 -0.2749  0.3825
 9194TIP3   OH249072   4.623   0.103   0.326  0.6672 -0.1754  0.1593
 9194TIP3    H149073   4.624   0.022   0.377  0.0668 -0.2585  0.0490
 9194TIP3    H249074   4.591   0.076   0.240  0.6099  0.1490  0.0802
 9195TIP3   OH249075   1.184   0.382   6.569  0.2609  0.4115 -0.2795
 9195TIP3    H149076   1.191   0.352   6.660  1.5096  0.7562 -0.2533
 9195TIP3    H249077   1.168   0.302   6.518 -1.0137  0.2880  0.2979
 9196TIP3   OH249078   5.212   5.471  16.993 -0.3655  0.3239 -0.0623
 9196TIP3    H149079   5.307   5.481  16.982 -0.3326  1.6987  1.2397
 9196TIP3    H249080   5.190   5.392  16.946  1.4360  0.0488 -0.4600
 9197TIP3   OH249081   5.518   6.599   4.857  0.5396 -0.0697 -0.0090
 9197TIP3    H149082   5.530   6.538   4.784  0.0627  0.1984 -0.3168
 9197TIP3    H249083   5.435   6.572   4.897  1.3347 -0.9105  1.1184
 9198TIP3   OH249084   5.366   5.993   2.545 -0.3820  0.1709 -0.5252
 9198TIP3    H149085   5.417   5.946   2.611  1.9182  1.0102 -1.6549
 9198TIP3    H249086   5.357   5.931   2.472 -2.8341 -0.7184  0.4467
 9199TIP3   OH249087   4.644   1.042  11.358  0.6176 -0.0996 -0.4781
 9199TIP3    H149088   4.701   1.008  11.289  2.4202 -1.4709  1.6288
 9199TIP3    H249089   4.686   1.122  11.388  1.2415 -0.8983  0.8059
 9200TIP3   OH249090   2.672   0.423  16.684 -0.2723 -0.1571 -0.3577
 9200TIP3    H149091   2.701   0.411  16.775  1.3570  1.1742 -0.6806
 9200TIP3    H249092   2.746   0.395  16.631  1.0637  4.4768 -1.1845
 9201TIP3   OH249093   3.923   6.566  16.385 -0.3289 -0.0646  0.0664
 9201TIP3    H149094   3.831   6.561  16.409 -0.7563  0.0081 -1.5165
 9201TIP3    H249095   3.969   6.521  16.456 -1.5770 -0.1545  0.8256
 9202TIP3   OH249096   3.812   4.016  16.129  0.3459 -0.2455  0.0384
 9202TIP3    H149097   3.804   4.094  16.075 -1.7560 -0.1609  0.4373
 9202TIP3    H249098   3.881   3.964  16.088 -0.2659  0.4627 -1.8986
 9203TIP3   OH249099   2.059   5.026   1.036 -0.3733  0.3988 -0.6311
 9203TIP3    H149100   1.968   5.042   1.011  0.1492 -0.1218 -2.9658
 9203TIP3    H249101   2.054   4.989   1.124 -2.6467 -2.9357 -2.0976
 9204TIP3   OH249102   6.641   1.592  11.346  0.0130 -0.2607  0.0833
 9204TIP3    H149103   6.693   1.583  11.426  2.2924  1.2419 -1.1879
 9204TIP3    H249104   6.621   1.502  11.321 -0.4309 -0.7681  2.1363
 9205TIP3   OH249105   3.458   4.261   2.802  0.2050  0.5121 -0.5082
 9205TIP3    H149106   3.402   4.257   2.880  0.7092  2.2899 -0.0402
 9205TIP3    H249107   3.397   4.268   2.729 -0.2081  1.5505 -0.0668
 9206TIP3   OH249108   2.828   4.215   1.918  0.1334  0.4541  0.6987
 9206TIP3    H149109   2.881   4.211   1.838  1.7268  0.3937  1.7311
 9206TIP3    H249110   2.759   4.277   1.897  1.0464  1.1224 -0.4459
 9207TIP3   OH249111   6.552   3.955   6.521  0.0725  0.6607 -0.0805
 9207TIP3    H149112   6.484   3.928   6.459  1.8754 -1.3476 -1.2096
 9207TIP3    H249113   6.555   4.051   6.512 -0.8353  0.5468 -1.8971
 9208TIP3   OH249114   3.986   0.025  14.650  0.9740 -0.0560 -0.0570
 9208TIP3    H149115   3.891   0.014  14.651  0.7544  1.2288 -2.3867
 9208TIP3    H249116   4.018  -0.045  14.592  1.4788 -0.6129  0.8796
 9209TIP3   OH249117   1.602   4.198   1.045  0.6353  0.0681 -0.6524
 9209TIP3    H149118   1.594   4.252   0.966 -0.6415  1.3455  0.3394
 9209TIP3    H249119   1.522   4.146   1.047  0.0220  1.0507  0.5432
 9210TIP3   OH249120   4.281   1.088   3.478 -0.4696  0.0083 -0.1400
 9210TIP3    H149121   4.200   1.135   3.498 -0.3526  0.2676 -0.2655
 9210TIP3    H249122   4.288   1.092   3.382 -0.7445 -0.7466 -0.1926
 9211TIP3   OH249123   1.273   6.215   5.238  0.2341 -0.2362 -0.2650
 9211TIP3    H149124   1.189   6.187   5.201 -0.0839  0.9785 -0.4727
 9211TIP3    H249125   1.253   6.242   5.327  0.2987  0.5941 -0.4978
 9212TIP3   OH249126   4.710   4.953  15.442  0.0614 -0.4956 -0.0220
 9212TIP3    H149127   4.780   5.016  15.458  2.4547 -2.7804 -1.2094
 9212TIP3    H249128   4.637   4.984  15.497  1.5512  2.6103  0.2956
 9213TIP3   OH249129   4.444   5.261   6.471  0.3361  0.0791 -0.3584
 9213TIP3    H149130   4.366   5.206   6.472  0.4299 -0.0785  2.4717
 9213TIP3    H249131   4.420   5.337   6.418 -1.6670 -0.0399  0.3588
 9214TIP3   OH249132   6.468   6.105   1.289  0.2139  0.3013  0.1518
 9214TIP3    H149133   6.537   6.157   1.331  1.0400  1.3676 -2.4434
 9214TIP3    H249134   6.453   6.033   1.350  3.3866  0.2137  0.9351
 9215TIP3   OH249135   1.749   0.318   6.029  0.2909 -0.4934 -0.4696
 9215TIP3    H149136   1.675   0.375   6.051 -0.0310 -1.3303  0.7209
 9215TIP3    H249137   1.813   0.375   5.988 -0.5374  0.4768 -0.4225
 9216TIP3   OH249138   1.373   6.229   2.791 -0.1234  0.1545  0.4022
 9216TIP3    H149139   1.333   6.144   2.771  2.0926 -0.4817 -1.5970
 9216TIP3    H249140   1.465   6.209   2.807  0.0947  1.9913  1.5131
 9217TIP3   OH249141   3.346   0.888  12.534  0.6300  0.7896  0.6490
 9217TIP3    H149142   3.351   0.903  12.629  1.2422  1.8925  0.4414
 9217TIP3    H249143   3.371   0.796  12.524  2.5150  1.2017  1.3834
 9218TIP3   OH249144   4.382   3.553  14.744  0.4438 -0.2923 -0.4395
 9218TIP3    H149145   4.327   3.565  14.822  0.9663 -1.4384  0.1183
 9218TIP3    H249146   4.411   3.462  14.749 -0.2557 -0.6524 -2.4679
 9219TIP3   OH249147   5.484   4.820   0.857  0.0486  0.4317 -0.0888
 9219TIP3    H149148   5.483   4.884   0.787  2.3867  1.0658  0.4079
 9219TIP3    H249149   5.480   4.735   0.813 -1.9062  0.8583 -0.7934
 9220TIP3   OH249150   0.692   1.775   6.215 -0.1248  0.5611  0.2165
 9220TIP3    H149151   0.749   1.755   6.289 -0.1818  0.4834  0.2397
 9220TIP3    H249152   0.712   1.708   6.150  0.4133  1.0292 -0.1103
 9221TIP3   OH249153   1.307   1.986   2.541 -0.5802  0.0519 -0.0882
 9221TIP3    H149154   1.268   2.073   2.533  0.5482  0.5929  0.1811
 9221TIP3    H249155   1.386   2.000   2.593 -0.9611 -1.3155  0.9116
 9222TIP3   OH249156   2.855   5.558  11.307 -0.2996 -0.5318  0.2994
 9222TIP3    H149157   2.861   5.493  11.376 -0.2830 -1.6974 -0.7783
 9222TIP3    H249158   2.822   5.509  11.231  0.1317  0.6208 -0.6428
 9223TIP3   OH249159   2.353   2.757   4.667 -0.1942 -0.3665  0.3711
 9223TIP3    H149160   2.282   2.704   4.630 -0.8439  0.8498 -0.1443
 9223TIP3    H249161   2.432   2.724   4.623 -0.6439 -0.6369 -0.2496
 9224TIP3   OH249162   0.724   5.945   1.573  0.7230 -0.3139  0.1892
 9224TIP3    H149163   0.664   5.946   1.648 -0.2758 -0.6954 -0.5967
 9224TIP3    H249164   0.751   5.853   1.565  1.4510 -0.1410  0.5570
 9225TIP3   OH249165   0.475   2.549   0.103  0.2579  0.3572  0.0169
 9225TIP3    H149166   0.397   2.512   0.062 -0.9881  1.9521  0.9133
 9225TIP3    H249167   0.494   2.627   0.052  0.9814  0.2618  0.1274
 9226TIP3   OH249168   0.901   3.155  12.091 -0.1899 -0.1606  0.6681
 9226TIP3    H149169   0.895   3.111  12.006 -1.4128  1.0952  0.0876
 9226TIP3    H249170   0.972   3.218  12.080  1.4036 -1.7920  1.4258
 9227TIP3   OH249171   5.023   0.418  12.698  0.0571  0.1977 -0.3245
 9227TIP3    H149172   5.085   0.348  12.718 -0.3461 -0.4168 -1.1728
 9227TIP3    H249173   5.056   0.458  12.617 -0.4902  0.0459 -0.6300
 9228TIP3   OH249174   1.552   2.300   4.822  0.4896  0.4146 -0.2035
 9228TIP3    H149175   1.612   2.256   4.882 -0.8279 -1.3442 -0.1506
 9228TIP3    H249176   1.559   2.393   4.846  2.2297  0.0956  0.6360
 9229TIP3   OH249177   2.129   6.758   5.294  0.2183  0.2910 -0.0492
 9229TIP3    H149178   2.143   6.801   5.210  0.3813 -0.5546 -0.4584
 9229TIP3    H249179   2.209   6.776   5.343  0.1127  0.8047 -0.0648
 9230TIP3   OH249180   0.085   5.829  16.932  0.2567  0.1895 -0.9002
 9230TIP3    H149181   0.033   5.866  16.861  1.4672  0.5559 -1.6044
 9230TIP3    H249182   0.175   5.845  16.906  0.6898  1.1516  1.1706
 9231TIP3   OH249183   0.870   4.944  15.433 -0.1629 -0.1933  0.3550
 9231TIP3    H149184   0.785   4.921  15.471  0.2984 -1.1758  0.8050
 9231TIP3    H249185   0.898   5.022  15.481 -0.5645 -0.1821  0.5684
 9232TIP3   OH249186   1.011   6.339  15.772 -0.2470  0.4510 -0.0760
 9232TIP3    H149187   0.966   6.278  15.714 -1.0199  0.6896  0.2663
 9232TIP3    H249188   1.104   6.323  15.757 -0.4456 -0.7568 -0.0506
 9233TIP3   OH249189   3.268   2.749   5.892 -0.0162  0.0195  0.2277
 9233TIP3    H149190   3.221   2.821   5.852  0.8522 -1.1462 -3.0999
 9233TIP3    H249191   3.233   2.671   5.848  1.8226 -1.2093  0.9031
 9234TIP3   OH249192   4.397   4.684   2.859 -0.1552  0.1371  0.4845
 9234TIP3    H149193   4.336   4.757   2.854  0.9221  0.9600 -0.9604
 9234TIP3    H249194   4.453   4.705   2.934 -1.0439 -0.1711  1.2478
 9235TIP3   OH249195   6.629   0.608  12.589  0.4512  0.1929 -0.1285
 9235TIP3    H149196   6.631   0.522  12.547  1.2085  0.7720 -1.3219
 9235TIP3    H249197   6.713   0.648  12.566  0.4103  0.9661  1.0219
 9236TIP3   OH249198   4.085   2.956  12.646 -0.5760  0.1266 -0.4493
 9236TIP3    H149199   4.155   2.938  12.708 -0.4129  0.5322 -0.5111
 9236TIP3    H249200   4.014   2.897  12.672  0.0894 -0.8953 -0.9203
 9237TIP3   OH249201   5.807   0.464   3.680  0.8182 -0.5551  0.8300
 9237TIP3    H149202   5.765   0.414   3.610 -1.3353  1.6234  0.5047
 9237TIP3    H249203   5.736   0.513   3.721  2.8399  2.3673  1.0241
 9238TIP3   OH249204   2.257   2.310  14.016 -0.3022 -0.2197  0.4271
 9238TIP3    H149205   2.278   2.262  14.096 -0.4571 -1.0373 -0.0235
 9238TIP3    H249206   2.251   2.243  13.948 -0.0850  0.4811 -0.2899
 9239TIP3   OH249207   1.438   4.149   4.457 -0.1903  0.1526 -0.2386
 9239TIP3    H149208   1.464   4.173   4.546  0.4810 -1.1114 -0.0713
 9239TIP3    H249209   1.410   4.057   4.464 -0.9591  0.2981 -1.1719
 9240TIP3   OH249210   3.892   2.740  10.545 -0.7344 -0.6908 -0.0521
 9240TIP3    H149211   3.943   2.659  10.550 -0.5402 -0.4631  2.3836
 9240TIP3    H249212   3.812   2.721  10.595  0.3991  1.3246  2.6973
 9241TIP3   OH249213   4.568   4.023   2.114 -0.0026  0.8160  0.3714
 9241TIP3    H149214   4.528   4.110   2.103 -0.1422  0.7991  0.7405
 9241TIP3    H249215   4.516   3.981   2.182 -0.5297  0.0757 -0.4783
 9242TIP3   OH249216   0.754   6.624   3.059 -0.1004 -0.4029  0.3283
 9242TIP3    H149217   0.668   6.589   3.082 -0.8040  0.0958 -1.4615
 9242TIP3    H249218   0.765   6.603   2.966  1.6148 -0.2564  0.4829
 9243TIP3   OH249219   1.727   2.246  13.508 -0.0190 -0.6761  0.4056
 9243TIP3    H149220   1.650   2.216  13.461  0.6211  0.0777 -1.1401
 9243TIP3    H249221   1.693   2.309  13.572 -1.1175 -3.1181  2.3215
 9244TIP3   OH249222   2.814   6.063  11.819  0.2789  0.8442  0.4435
 9244TIP3    H149223   2.768   6.075  11.736 -2.1815 -0.0945  1.6214
 9244TIP3    H249224   2.758   6.106  11.884  1.0193 -0.3820  1.9130
 9245TIP3   OH249225   0.961   4.572  12.578  0.5898  0.5844  0.4509
 9245TIP3    H149226   1.019   4.620  12.637 -1.3715  1.5850  1.6233
 9245TIP3    H249227   0.970   4.615  12.494  0.1141  1.9573  1.0952
 9246TIP3   OH249228   4.261   5.797  15.195 -0.1034  0.0550  0.0996
 9246TIP3    H149229   4.318   5.859  15.240  0.8859 -1.1426  0.4946
 9246TIP3    H249230   4.196   5.772  15.260  0.1524 -0.1794  0.2593
 9247TIP3   OH249231   3.812   3.960  15.235  0.0474  0.2380 -0.0532
 9247TIP3    H149232   3.823   3.868  15.211  0.7610 -0.3851  2.4743
 9247TIP3    H249233   3.751   3.959  15.309 -0.0248  1.8143 -0.0655
 9248TIP3   OH249234   4.829   5.403  15.473  0.0746 -0.1138 -0.4504
 9248TIP3    H149235   4.884   5.379  15.399 -0.8476 -0.3096 -1.0876
 9248TIP3    H249236   4.742   5.418  15.435 -0.9001 -2.1761  0.8194
 9249TIP3   OH249237   2.555   2.361  12.217  0.7683 -0.2632 -0.2123
 9249TIP3    H149238   2.645   2.364  12.184  1.6700 -0.6596  2.0986
 9249TIP3    H249239   2.557   2.414  12.297 -0.7780 -1.1330  0.4355
 9250TIP3   OH249240   6.532   3.841  12.600  0.0268  0.1982 -0.1457
 9250TIP3    H149241   6.615   3.810  12.565  0.2836  1.8428 -1.0464
 9250TIP3    H249242   6.556   3.903  12.669 -0.4765 -1.4335  1.5374
 9251TIP3   OH249243   6.583   6.053   2.185  0.3526  0.5056  0.4541
 9251TIP3    H149244   6.675   6.055   2.212  0.3673  0.1373  0.4295
 9251TIP3    H249245   6.566   5.962   2.162  0.0266  0.6043  0.2943
 9252TIP3   OH249246   6.734   0.201   2.709  0.2385 -0.0869  0.2042
 9252TIP3    H149247   6.677   0.201   2.786 -0.2444 -1.6027 -0.1446
 9252TIP3    H249248   6.783   0.283   2.716 -1.7356  1.0858  0.6956
 9253TIP3   OH249249   4.840   5.806   0.355  0.1045 -0.1781 -0.0897
 9253TIP3    H149250   4.872   5.763   0.275  0.6840  0.9233 -0.4661
 9253TIP3    H249251   4.884   5.891   0.355 -3.3023  1.6712 -0.9559
 9254TIP3   OH249252   0.131   3.846   3.412 -0.2606 -0.3260 -0.3645
 9254TIP3    H149253   0.098   3.881   3.329 -2.7529 -0.7087  0.4042
 9254TIP3    H249254   0.174   3.920   3.454 -0.2360  0.2393 -1.3805
 9255TIP3   OH249255   0.295   0.285  11.576 -0.1236  0.1648  0.0415
 9255TIP3    H149256   0.389   0.303  11.570 -0.0816  0.3497  1.1126
 9255TIP3    H249257   0.286   0.228  11.652 -0.7325 -0.9860 -0.8783
 9256TIP3   OH249258   3.329   6.114  12.287  0.5959 -0.3010 -0.5079
 9256TIP3    H149259   3.257   6.175  12.272  0.6238 -0.4920 -1.4536
 9256TIP3    H249260   3.319   6.047  12.219  2.0990  0.0839 -1.1373
 9257TIP3   OH249261   3.996   4.834  11.383  0.0227 -0.0630 -0.0659
 9257TIP3    H149262   4.084   4.859  11.410 -0.9428  1.6190  1.6446
 9257TIP3    H249263   3.983   4.878  11.299  0.4243  0.5145  0.1738
 9258TIP3   OH249264   5.742   1.222  12.308  0.2850  0.1231  0.0762
 9258TIP3    H149265   5.809   1.271  12.357 -0.6776  1.4810  0.0552
 9258TIP3    H249266   5.720   1.149  12.365  0.2846  0.8336  1.0039
 9259TIP3   OH249267   5.640   1.058   0.353  0.1324 -0.0465  0.0364
 9259TIP3    H149268   5.724   1.040   0.395 -0.9936  0.3986  2.5441
 9259TIP3    H249269   5.630   1.153   0.360 -1.2724 -0.2657  1.1340
 9260TIP3   OH249270   4.139   0.184  12.834  0.6200 -0.2509 -0.2132
 9260TIP3    H149271   4.125   0.183  12.929 -1.0964  2.0751 -0.4013
 9260TIP3    H249272   4.224   0.227  12.822 -0.4777  2.0804  0.1686
 9261TIP3   OH249273   0.069   2.389  16.626 -0.0849  0.1305  0.2840
 9261TIP3    H149274   0.110   2.303  16.615  0.8481  0.2996  2.2622
 9261TIP3    H249275  -0.015   2.370  16.668 -0.0607  0.1523  0.3436
 9262TIP3   OH249276   4.999   5.976   1.285  0.9475  0.2084  0.3252
 9262TIP3    H149277   5.031   6.055   1.328  0.3296  1.1351 -0.8653
 9262TIP3    H249278   4.931   5.943   1.344  1.0457  0.6948  0.7145
 9263TIP3   OH249279   5.473   3.097   3.071  0.2371  0.2432  0.8022
 9263TIP3    H149280   5.548   3.039   3.079  1.4898  1.9965  2.1674
 9263TIP3    H249281   5.436   3.101   3.159 -0.2569  0.9591  0.5736
 9264TIP3   OH249282   1.356   2.629   5.950 -0.3319  0.1459  0.3359
 9264TIP3    H149283   1.398   2.579   6.021  0.2299  0.4050  0.1901
 9264TIP3    H249284   1.323   2.563   5.890  1.8750 -0.0637 -0.7108
 9265TIP3   OH249285   4.279   0.401   2.503  0.2911  0.0775 -0.5854
 9265TIP3    H149286   4.263   0.311   2.532  0.6759 -0.3126 -1.6056
 9265TIP3    H249287   4.215   0.452   2.553 -1.3891 -1.0105 -1.5627
 9266TIP3   OH249288   4.920   2.215   3.358 -0.6011 -0.0700 -0.2834
 9266TIP3    H149289   4.844   2.214   3.416 -1.5560  2.4751 -1.4020
 9266TIP3    H249290   4.902   2.285   3.295  0.2790 -2.9368 -3.8971
 9267TIP3   OH249291   2.342   2.381   5.582 -0.3600 -0.2640  0.0695
 9267TIP3    H149292   2.308   2.316   5.520 -0.9718  2.0676 -2.1282
 9267TIP3    H249293   2.436   2.363   5.587 -0.2831 -0.4141 -1.6507
 9268TIP3   OH249294   4.874   0.294   0.539 -0.2525 -0.6466  0.8130
 9268TIP3    H149295   4.876   0.280   0.444  0.6405 -0.7097  0.8377
 9268TIP3    H249296   4.950   0.247   0.572  0.0186  0.2266  1.4431
 9269TIP3   OH249297   3.099   2.831   4.738 -0.4885  0.0467 -0.1899
 9269TIP3    H149298   3.081   2.744   4.774  1.8862 -0.0629  0.7809
 9269TIP3    H249299   3.117   2.885   4.815  1.1954  0.6412 -0.9849
 9270TIP3   OH249300   0.099   3.775   6.271  1.1376  0.6211  0.0243
 9270TIP3    H149301   0.070   3.744   6.357 -0.1994 -0.0623 -0.6566
 9270TIP3    H249302   0.051   3.856   6.258  1.1306  0.5818 -0.1924
 9271TIP3   OH249303   6.150   4.990  16.157  0.1821 -0.2612 -0.5334
 9271TIP3    H149304   6.196   5.014  16.077  0.1663 -0.1733 -0.5139
 9271TIP3    H249305   6.216   4.948  16.212  0.4541  0.6972 -0.1241
 9272TIP3   OH249306   6.704   1.027   0.269  0.7245 -0.1948 -0.1112
 9272TIP3    H149307   6.799   1.035   0.262  0.8379 -2.0272 -0.8912
 9272TIP3    H249308   6.682   0.956   0.209 -1.0424 -0.3896  0.7621
 9273TIP3   OH249309   6.637   2.507  16.706 -0.0566 -0.6057  0.2338
 9273TIP3    H149310   6.643   2.581  16.646 -0.9840 -0.3016  0.4999
 9273TIP3    H249311   6.563   2.455  16.674  1.2698 -2.0141 -0.5905
 9274TIP3   OH249312   5.806   4.584   5.868 -0.5911  0.5195 -0.2737
 9274TIP3    H149313   5.783   4.590   5.961 -1.1956  0.6141 -0.4287
 9274TIP3    H249314   5.731   4.620   5.822 -0.7886 -0.5994 -0.8548
 9275TIP3   OH249315   3.880   5.736   6.369 -0.0122 -0.5327 -0.1806
 9275TIP3    H149316   3.866   5.731   6.463 -0.4842 -0.3108 -0.2414
 9275TIP3    H249317   3.856   5.649   6.336  1.6286 -1.1163  0.0973
 9276TIP3   OH249318   3.901   1.166  16.230 -0.5221 -0.0785 -0.4472
 9276TIP3    H149319   3.922   1.248  16.274 -1.6022 -0.4612  0.8027
 9276TIP3    H249320   3.916   1.185  16.137  0.6278  1.0876 -0.0441
 9277TIP3   OH249321   6.348   1.630  12.520  0.4087  0.6698 -0.3125
 9277TIP3    H149322   6.313   1.543  12.542 -0.7814  1.0453 -0.6973
 9277TIP3    H249323   6.272   1.679  12.490  1.3238  1.4359 -1.3807
 9278TIP3   OH249324   0.230   0.751  14.734  0.5641  0.1866 -0.5160
 9278TIP3    H149325   0.179   0.744  14.814 -2.4332 -0.1541 -2.3645
 9278TIP3    H249326   0.268   0.839  14.737 -0.8594  0.7819  0.5101
 9279TIP3   OH249327   3.960   1.080  16.578 -0.3813  0.4301  0.2404
 9279TIP3    H149328   3.872   1.082  16.615 -0.0812  0.0080  0.9880
 9279TIP3    H249329   4.008   1.147  16.627 -0.8163  2.0727 -1.5366
 9280TIP3   OH249330   4.108   0.045  10.443 -0.0444  0.3514 -0.4018
 9280TIP3    H149331   4.129  -0.027  10.503 -0.8106  0.4379 -0.0267
 9280TIP3    H249332   4.014   0.061  10.456 -0.1573  0.5636 -1.4126
 9281TIP3   OH249333   0.729   1.015   5.093 -0.1997  0.2957  0.8328
 9281TIP3    H149334   0.688   0.980   5.172  0.3420  0.5622  1.2355
 9281TIP3    H249335   0.769   0.939   5.051 -2.8218 -0.3386 -0.6393
 9282TIP3   OH249336   5.525   2.242   2.138 -0.2574 -0.0916 -0.4170
 9282TIP3    H149337   5.490   2.158   2.107 -3.0457  1.5983 -1.9994
 9282TIP3    H249338   5.555   2.286   2.058  0.9691  0.5538  0.3796
 9283TIP3   OH249339   6.128   5.583  11.975 -0.1442  0.4269  0.1766
 9283TIP3    H149340   6.142   5.514  12.040  1.6103  2.4761  2.0948
 9283TIP3    H249341   6.082   5.540  11.903  1.0021 -2.7415  1.2464
 9284TIP3   OH249342   3.045   3.092   0.152  0.2276 -0.0605  0.5209
 9284TIP3    H149343   3.129   3.116   0.112  1.0925  0.2380  2.4561
 9284TIP3    H249344   3.020   3.011   0.108  2.1887 -0.8472  0.8010
 9285TIP3   OH249345   3.024   1.984  17.069  0.8818  0.4851 -0.5673
 9285TIP3    H149346   3.000   1.920  17.002  0.1563  1.6930 -1.4829
 9285TIP3    H249347   2.946   1.991  17.124  1.0109  0.4642 -0.3817
 9286TIP3   OH249348   1.831   4.006   4.428  0.2371  0.2510 -0.7431
 9286TIP3    H149349   1.823   3.911   4.427  0.5392  0.2296 -2.1422
 9286TIP3    H249350   1.900   4.024   4.492  0.4182 -0.4917 -0.7270
 9287TIP3   OH249351   3.814   6.716  16.156  0.1498  0.5655 -0.0330
 9287TIP3    H149352   3.834   6.663  16.233  0.5890  1.4961  0.5043
 9287TIP3    H249353   3.880   6.689  16.091  1.0972  1.2587  0.6246
 9288TIP3   OH249354   2.411   3.872  15.938  0.1131  0.4480  0.7680
 9288TIP3    H149355   2.369   3.789  15.959 -0.0048  0.1087 -0.7420
 9288TIP3    H249356   2.341   3.937  15.949 -0.5797 -0.0066 -0.8527
 9289TIP3   OH249357   3.688   2.638  13.833  0.4383 -0.0944  0.2474
 9289TIP3    H149358   3.629   2.663  13.904 -0.8279 -0.5614 -0.6184
 9289TIP3    H249359   3.649   2.677  13.755  1.1190 -0.6455 -0.3761
 9290TIP3   OH249360   6.548   4.338   1.064  0.6886 -0.7899  0.2765
 9290TIP3    H149361   6.599   4.387   1.000 -0.7157  2.5025  1.5498
 9290TIP3    H249362   6.605   4.330   1.140 -0.2311  1.8756  1.2817
 9291TIP3   OH249363   0.764   4.684   1.229  0.5500 -0.1829 -0.6460
 9291TIP3    H149364   0.739   4.619   1.163 -0.9693 -0.4743  0.1813
 9291TIP3    H249365   0.760   4.768   1.184 -0.5376 -0.3749 -0.9278
 9292TIP3   OH249366   5.065   4.216   0.530  0.6690 -0.6022 -0.6408
 9292TIP3    H149367   5.028   4.250   0.449 -1.2596  0.6436  0.7025
 9292TIP3    H249368   5.023   4.131   0.542 -0.2941 -0.0729 -0.1527
 9293TIP3   OH249369   4.141   4.733   3.243  0.5556  0.0192  0.2554
 9293TIP3    H149370   4.121   4.715   3.151  0.5564 -2.1032  0.6615
 9293TIP3    H249371   4.057   4.762   3.280  0.1336 -0.9215  0.0310
 9294TIP3   OH249372   4.692   0.492  12.615  0.0772 -0.2167 -0.3773
 9294TIP3    H149373   4.682   0.495  12.710  0.4631  3.0162 -0.3903
 9294TIP3    H249374   4.785   0.508  12.599  0.1882 -1.6353 -1.2896
 9295TIP3   OH249375   0.955   6.612   4.470  0.6074 -0.4237 -0.4999
 9295TIP3    H149376   0.859   6.615   4.470  0.5137 -2.4882 -1.0145
 9295TIP3    H249377   0.979   6.639   4.381  0.3531 -2.5035 -1.2360
 9296TIP3   OH249378   6.225   2.344   5.181  0.4307 -0.1040  0.0531
 9296TIP3    H149379   6.180   2.425   5.155  0.6316  0.1943  0.6194
 9296TIP3    H249380   6.160   2.276   5.171  0.4564  0.0299 -1.0770
 9297TIP3   OH249381   1.777   3.873   5.336 -0.0930 -0.4382 -0.7610
 9297TIP3    H149382   1.856   3.825   5.312  0.5048 -0.5728  1.3747
 9297TIP3    H249383   1.751   3.836   5.420 -2.0246  0.0954 -1.1050
 9298TIP3   OH249384   6.800   5.525   6.518  0.6209 -0.0070 -0.2720
 9298TIP3    H149385   6.798   5.566   6.604  1.7696  0.5888 -0.5180
 9298TIP3    H249386   6.787   5.596   6.456  0.5634 -0.3161 -0.6221
 9299TIP3   OH249387   4.839   4.317   4.739  0.1570 -0.0306  0.5736
 9299TIP3    H149388   4.930   4.301   4.714  0.4582 -1.3210  2.4093
 9299TIP3    H249389   4.832   4.412   4.746  1.0034  0.1506 -0.8299
 9300TIP3   OH249390   3.058   0.185  11.408  0.7991  0.0635  0.0569
 9300TIP3    H149391   3.035   0.094  11.388  1.0091  0.1659 -0.6419
 9300TIP3    H249392   3.153   0.187  11.406  0.8751 -0.1858  2.2180
 9301TIP3   OH249393   6.184   0.371   4.538  0.1820  0.1634  0.6766
 9301TIP3    H149394   6.097   0.349   4.504  1.2548 -0.5209 -1.7740
 9301TIP3    H249395   6.181   0.465   4.552 -0.6145  0.3216 -0.4788
 9302TIP3   OH249396   5.171   5.696  13.278 -0.1079 -0.2978 -0.9337
 9302TIP3    H149397   5.154   5.658  13.364 -0.8736 -0.0808 -0.9863
 9302TIP3    H249398   5.085   5.720  13.245  0.4308  2.3360 -0.5083
 9303TIP3   OH249399   2.772   1.477   5.641  0.2336 -0.8799  0.4778
 9303TIP3    H149400   2.756   1.391   5.601  0.0321 -0.4859 -0.2999
 9303TIP3    H249401   2.851   1.508   5.598 -0.1361 -0.3342  0.1901
 9304TIP3   OH249402   3.266   4.201   0.792  0.3795  0.3875  0.0197
 9304TIP3    H149403   3.218   4.118   0.796 -0.1379  0.7695  2.4842
 9304TIP3    H249404   3.347   4.184   0.840  0.6969  1.0259 -0.2914
 9305TIP3   OH249405   1.958   5.630  12.746 -0.1868  0.6011 -0.0695
 9305TIP3    H149406   2.036   5.599  12.699 -0.5377 -0.5305  0.0829
 9305TIP3    H249407   1.901   5.553  12.750 -0.9732  1.2193  0.5144
 9306TIP3   OH249408   1.916   5.403   0.753 -0.3388 -0.0794  0.1267
 9306TIP3    H149409   2.004   5.422   0.786 -1.4786  1.7860  2.3042
 9306TIP3    H249410   1.914   5.440   0.665  0.1419  2.6964  1.2168
 9307TIP3   OH249411   5.049   2.181  16.203  0.0344  0.2479  0.4676
 9307TIP3    H149412   5.076   2.262  16.246 -0.3513  0.8069 -0.3323
 9307TIP3    H249413   5.024   2.208  16.114 -1.1606 -0.5591  0.5429
 9308TIP3   OH249414   2.615   6.459  11.159  0.6378 -0.1681 -0.5799
 9308TIP3    H149415   2.525   6.460  11.126  0.3212 -0.0972  0.2667
 9308TIP3    H249416   2.668   6.439  11.083  0.0354  1.2824 -1.4136
 9309TIP3   OH249417   4.065   3.355  15.688  0.5393 -0.3022 -0.0983
 9309TIP3    H149418   4.065   3.320  15.599 -2.2478 -0.8836  0.0647
 9309TIP3    H249419   4.134   3.307  15.733  1.0779 -0.9640 -1.5961
 9310TIP3   OH249420   1.932   6.698   5.944 -0.0844 -0.6605 -0.0224
 9310TIP3    H149421   1.974   6.646   5.875 -0.4513 -0.4260 -0.4267
 9310TIP3    H249422   1.997   6.702   6.014  0.2878 -0.9138 -0.3488
 9311TIP3   OH249423   2.753   4.448  11.596 -0.9028 -0.2553 -0.5857
 9311TIP3    H149424   2.686   4.402  11.546 -2.6244 -0.4292  1.8014
 9311TIP3    H249425   2.721   4.538  11.602 -2.1380 -0.8261  2.4679
 9312TIP3   OH249426   1.676   5.210   1.302  0.4249  0.5219  0.0932
 9312TIP3    H149427   1.681   5.122   1.265  2.4846  1.3728 -1.7350
 9312TIP3    H249428   1.594   5.246   1.267 -0.0297 -0.3588  0.2206
 9313TIP3   OH249429   4.458   6.790   1.525 -0.9884  0.4903  0.2265
 9313TIP3    H149430   4.421   6.825   1.606 -0.6335 -1.7476  1.3882
 9313TIP3    H249431   4.392   6.729   1.492 -0.0807 -0.4610  0.1444
 9314TIP3   OH249432   3.846   5.341   3.828  0.1579  0.2798  0.4300
 9314TIP3    H149433   3.911   5.305   3.768  0.2339  0.7802  0.2119
 9314TIP3    H249434   3.885   5.423   3.860 -0.6786  0.9568 -0.2682
 9315TIP3   OH249435   5.005   5.518  13.961  0.1612 -0.8485 -0.0024
 9315TIP3    H149436   5.013   5.425  13.940 -0.5354 -0.5561 -1.6233
 9315TIP3    H249437   5.078   5.560  13.916 -0.8029 -0.3339 -1.1106
 9316TIP3   OH249438   4.075   3.957  16.823 -0.0512  0.5612 -0.2920
 9316TIP3    H149439   4.126   3.917  16.893 -0.2960  0.5455 -0.1234
 9316TIP3    H249440   4.120   3.930  16.742  0.5520  1.0322 -0.1220
 9317TIP3   OH249441   3.586   6.070  16.111  0.4568  0.2597 -0.7153
 9317TIP3    H149442   3.678   6.092  16.093  0.6540 -0.2192 -0.3047
 9317TIP3    H249443   3.537   6.119  16.046  0.9897  0.7705 -0.7411
 9318TIP3   OH249444   0.246   1.470   5.062  0.2614  0.5312 -0.3427
 9318TIP3    H149445   0.153   1.493   5.068 -0.2813 -1.2265 -1.7103
 9318TIP3    H249446   0.278   1.516   4.985  0.4851  0.9698  0.0091
 9319TIP3   OH249447   4.893   4.075  14.831  0.2751 -0.2174 -0.2312
 9319TIP3    H149448   4.839   3.997  14.827 -1.0856  0.7357 -0.7305
 9319TIP3    H249449   4.937   4.070  14.916 -0.7595 -0.8896  0.2660
 9320TIP3   OH249450   5.873   2.559   0.100  0.0366  0.0324 -0.0637
 9320TIP3    H149451   5.885   2.492   0.033  0.2950 -0.7243  0.7358
 9320TIP3    H249452   5.948   2.549   0.159  0.1589  1.1202 -0.0172
 9321TIP3   OH249453   3.620   1.057   5.080 -0.3201 -0.3580  0.2621
 9321TIP3    H149454   3.583   1.140   5.050 -0.6990 -0.8306 -0.6209
 9321TIP3    H249455   3.714   1.066   5.065 -0.2459  0.2813  1.0958
 9322TIP3   OH249456   3.371   0.358  16.214 -0.1312 -0.4710  0.1333
 9322TIP3    H149457   3.398   0.440  16.174  0.8092  0.5034  2.6656
 9322TIP3    H249458   3.407   0.290  16.157 -1.7501  0.7975 -2.5438
 9323TIP3   OH249459   0.281   0.615  12.199  0.0145 -0.3648 -0.3543
 9323TIP3    H149460   0.309   0.703  12.172  0.0905 -0.4040 -0.4060
 9323TIP3    H249461   0.359   0.561  12.187 -0.2538 -0.6004 -1.0850
 9324TIP3   OH249462   3.551   3.647   4.765  0.0100  0.1833 -0.0432
 9324TIP3    H149463   3.553   3.683   4.854  1.7938  2.3056 -0.9016
 9324TIP3    H249464   3.530   3.555   4.777  0.5876  0.3600  2.6208
 9325TIP3   OH249465   4.192   5.788   0.025  0.1033  0.1541  0.3285
 9325TIP3    H149466   4.139   5.723  -0.022  1.7804  0.2718 -1.8179
 9325TIP3    H249467   4.131   5.859   0.043 -1.1898 -0.9900  0.5635
 9326TIP3   OH249468   3.262   4.605   5.028 -0.0201 -0.4552  0.0483
 9326TIP3    H149469   3.188   4.618   4.968 -0.6333  0.2367  0.9199
 9326TIP3    H249470   3.339   4.609   4.973 -0.5409  0.8428 -0.6089
 9327TIP3   OH249471   3.166   0.673   6.654 -0.7286 -0.3413  0.4096
 9327TIP3    H149472   3.230   0.605   6.636  0.8699  1.1930  0.1364
 9327TIP3    H249473   3.183   0.740   6.588  0.4761  2.1525  3.1275
 9328TIP3   OH249474   2.824   1.897  15.633 -0.5461  0.1461  0.0943
 9328TIP3    H149475   2.754   1.942  15.680 -1.1157 -0.2979 -0.3195
 9328TIP3    H249476   2.899   1.957  15.638 -0.8136  0.4124  0.9449
 9329TIP3   OH249477   5.285   5.247  11.137 -0.0529  0.2899  0.0878
 9329TIP3    H149478   5.315   5.291  11.057  4.0776 -0.1775  1.2407
 9329TIP3    H249479   5.301   5.154  11.120 -1.2324 -0.0324  0.6703
 9330TIP3   OH249480   3.838   2.758  13.138 -0.1495  0.1064 -0.2370
 9330TIP3    H149481   3.926   2.729  13.113  0.1647  0.2178  0.7069
 9330TIP3    H249482   3.779   2.697  13.094  0.4449 -0.7333  0.1237
 9331TIP3   OH249483   2.388   0.146   3.313 -0.1796 -0.4132 -0.4334
 9331TIP3    H149484   2.451   0.210   3.279 -0.0838 -1.0484 -1.4852
 9331TIP3    H249485   2.308   0.197   3.328  0.4451  0.3101  0.4837
 9332TIP3   OH249486   1.670   1.108  16.071  0.4663 -0.5286 -0.0839
 9332TIP3    H149487   1.611   1.144  16.006 -0.1738 -2.1723 -0.4395
 9332TIP3    H249488   1.665   1.168  16.145  0.9861  1.1992 -1.4300
 9333TIP3   OH249489   0.506   1.432   3.613  0.3036  0.0889  0.1930
 9333TIP3    H149490   0.591   1.415   3.572  0.1715  1.5430 -0.7621
 9333TIP3    H249491   0.453   1.467   3.541  0.0835  2.7763  1.6000
 9334TIP3   OH249492   6.716   4.265  12.556 -0.6609  0.4681 -0.9096
 9334TIP3    H149493   6.739   4.335  12.617  0.1122 -1.2990  0.8497
 9334TIP3    H249494   6.795   4.253  12.502 -1.5782  2.5095 -2.8010
 9335TIP3   OH249495   5.996   5.504  11.749  0.0402  0.0834 -0.1106
 9335TIP3    H149496   5.975   5.544  11.664  2.6157 -1.4367 -1.5341
 9335TIP3    H249497   5.912   5.502  11.795 -1.1299  2.3360 -2.0071
 9336TIP3   OH249498   5.007   5.063   3.076  0.9603 -0.3694 -0.0565
 9336TIP3    H149499   5.013   4.969   3.063 -0.6564 -0.3686 -0.8693
 9336TIP3    H249500   4.981   5.098   2.991 -0.7368  0.5767  0.8289
 9337TIP3   OH249501   6.405   2.597  15.290  0.4717  0.4562 -0.0021
 9337TIP3    H149502   6.478   2.534  15.294  1.4659  1.3841 -2.3751
 9337TIP3    H249503   6.326   2.544  15.295  1.2565 -1.3030 -4.4369
 9338TIP3   OH249504   2.318   4.501  11.405  0.4545  0.3761 -0.2106
 9338TIP3    H149505   2.266   4.537  11.477  0.4118 -0.4803  0.1970
 9338TIP3    H249506   2.269   4.524  11.326 -0.9845 -1.0855  0.2040
 9339TIP3   OH249507   0.197   6.445   5.220 -0.5796 -0.5701 -0.5228
 9339TIP3    H149508   0.201   6.523   5.164  1.2842  1.0492  1.7261
 9339TIP3    H249509   0.247   6.470   5.298 -0.6884 -3.7495  0.6239
 9340TIP3   OH249510   0.498   2.306   2.951 -0.2628 -0.3299 -0.0455
 9340TIP3    H149511   0.415   2.267   2.926 -0.2373  0.7142 -1.8164
 9340TIP3    H249512   0.474   2.385   2.999 -0.2991 -0.5324  0.2693
 9341TIP3   OH249513   0.446   3.470   3.839 -0.4746 -0.1393 -0.3459
 9341TIP3    H149514   0.504   3.541   3.811 -1.5987  1.3953  1.1537
 9341TIP3    H249515   0.363   3.513   3.859 -0.3968 -1.4410  3.1564
 9342TIP3   OH249516   4.114   4.144  15.195  0.3598 -0.1104 -0.1357
 9342TIP3    H149517   4.120   4.191  15.278  0.0595 -0.3690  0.0391
 9342TIP3    H249518   4.202   4.149  15.157 -0.0743  2.0089 -0.9132
 9343TIP3   OH249519   4.119   0.735  12.175  0.1230  0.0304  0.6274
 9343TIP3    H149520   4.109   0.820  12.217  0.3249  0.3241  0.0815
 9343TIP3    H249521   4.030   0.700  12.172  0.0360  0.2311  0.8296
 9344TIP3   OH249522   4.702   0.255   3.086 -0.1455  0.4711  0.2628
 9344TIP3    H149523   4.705   0.160   3.086  3.1701  0.5064  0.9433
 9344TIP3    H249524   4.678   0.279   2.997 -0.1383 -0.9913 -0.1414
 9345TIP3   OH249525   6.026   2.765   2.049  0.1134 -0.4429  0.2702
 9345TIP3    H149526   5.932   2.777   2.061  0.4501 -2.0807  5.8794
 9345TIP3    H249527   6.063   2.851   2.068 -0.1052 -0.5239  1.1064
 9346TIP3   OH249528   5.943   4.300  13.537 -0.5541  0.0324  0.4397
 9346TIP3    H149529   5.904   4.303  13.625  1.0958  0.6811  1.1733
 9346TIP3    H249530   6.037   4.312  13.553 -0.5501  3.0764 -1.6527
 9347TIP3   OH249531   6.203   2.243   1.706 -0.0494 -0.0194 -0.9282
 9347TIP3    H149532   6.164   2.156   1.712  0.2209  0.0227  1.8997
 9347TIP3    H249533   6.130   2.301   1.686 -0.9842 -0.3377  1.4563
 9348TIP3   OH249534   3.619   1.166  14.754 -0.4229 -0.3864  0.2070
 9348TIP3    H149535   3.637   1.190  14.663 -0.1937 -0.5826  0.1995
 9348TIP3    H249536   3.626   1.071  14.755 -2.3242 -0.5624  0.0123
 9349TIP3   OH249537   5.534   2.653   2.825 -0.0620 -0.2817 -0.6683
 9349TIP3    H149538   5.466   2.638   2.759  0.4135 -1.3367 -0.9369
 9349TIP3    H249539   5.522   2.744   2.852  0.3641  0.4909 -2.9638
 9350TIP3   OH249540   1.642   3.439   3.863  0.5152  0.0854 -0.1862
 9350TIP3    H149541   1.699   3.364   3.880  0.4276 -0.0512 -0.5001
 9350TIP3    H249542   1.622   3.433   3.770 -1.7430 -1.0851  0.3372
 9351TIP3   OH249543   0.470   0.991   3.331  0.5285  0.1730 -0.1306
 9351TIP3    H149544   0.521   1.045   3.271  1.3668  0.0127  0.4335
 9351TIP3    H249545   0.535   0.949   3.387 -0.2304  0.1539  0.7497
 9352TIP3   OH249546   1.122   3.813   0.802  0.2383 -0.4152 -0.0228
 9352TIP3    H149547   1.039   3.816   0.848  0.4677 -0.7125  0.4138
 9352TIP3    H249548   1.159   3.727   0.824  0.1107 -0.7819 -1.1717
 9353TIP3   OH249549   5.942   0.701  14.918 -0.1891  0.7950 -0.0421
 9353TIP3    H149550   5.906   0.779  14.874  2.1627  2.1538  0.3383
 9353TIP3    H249551   6.036   0.719  14.925  0.4561 -2.2377 -0.1986
 9354TIP3   OH249552   6.653   4.554  13.194  0.1319 -0.5449 -0.3481
 9354TIP3    H149553   6.714   4.504  13.141 -1.2346 -2.2186 -0.3597
 9354TIP3    H249554   6.636   4.633  13.142  0.3461 -1.2324 -1.4820
 9355TIP3   OH249555   5.465   6.691   1.307 -0.0577  0.2436 -0.2876
 9355TIP3    H149556   5.469   6.769   1.253 -0.1749 -0.1114 -0.8068
 9355TIP3    H249557   5.371   6.673   1.317 -0.1454  1.8909  2.3151
 9356TIP3   OH249558   5.874   5.773   5.365  0.3754  0.0334 -0.2101
 9356TIP3    H149559   5.852   5.694   5.415 -0.2381  1.4850  1.9002
 9356TIP3    H249560   5.910   5.834   5.430  0.8060  1.5126 -1.7831
 9357TIP3   OH249561   6.435   1.233   4.170  0.0472 -0.0947 -0.5896
 9357TIP3    H149562   6.453   1.187   4.252  2.7387 -0.9181 -1.5869
 9357TIP3    H249563   6.435   1.165   4.103 -2.3096  0.5470 -1.2830
 9358TIP3   OH249564   2.772   3.794   1.714 -0.3172 -0.6461 -0.3551
 9358TIP3    H149565   2.759   3.864   1.651  1.4476 -1.2840 -1.4873
 9358TIP3    H249566   2.796   3.718   1.661 -0.6705 -1.6972  0.9504
 9359TIP3   OH249567   4.746   0.840  15.969  0.3575  0.1255 -0.5178
 9359TIP3    H149568   4.756   0.931  15.996 -2.6242  0.3152  0.1440
 9359TIP3    H249569   4.784   0.789  16.040  2.5607  0.8345 -1.1502
 9360TIP3   OH249570   1.279   0.597   4.768 -0.0530  0.1836 -0.2367
 9360TIP3    H149571   1.246   0.600   4.678  0.2019  1.5834 -0.2914
 9360TIP3    H249572   1.211   0.551   4.817  0.2550 -1.4848 -1.3263
 9361TIP3   OH249573   6.395   0.755   5.678  0.4348  0.3200 -0.6127
 9361TIP3    H149574   6.473   0.706   5.652 -0.6082 -1.5243 -0.3189
 9361TIP3    H249575   6.406   0.769   5.772 -1.4325 -3.4879  0.2848
 9362TIP3   OH249576   0.179   1.103  11.696 -0.4982 -0.3447 -0.6640
 9362TIP3    H149577   0.112   1.166  11.723  0.7896  1.4901 -1.6641
 9362TIP3    H249578   0.202   1.129  11.607  0.8715 -1.5515 -0.6786
 9363TIP3   OH249579   2.552   2.557   6.088 -0.0315  0.0156 -0.7231
 9363TIP3    H149580   2.581   2.648   6.099 -2.2970  0.7903 -0.9423
 9363TIP3    H249581   2.536   2.527   6.177  0.3944 -0.0751 -0.6739
 9364TIP3   OH249582   2.523   2.954  11.673  0.0178  0.1385 -1.0396
 9364TIP3    H149583   2.565   3.040  11.674 -0.0938  0.1906  0.0054
 9364TIP3    H249584   2.537   2.920  11.761 -0.4487 -0.6680 -1.2726
 9365TIP3   OH249585   0.004   4.611   2.406  0.5813 -0.3319 -0.0928
 9365TIP3    H149586   0.082   4.660   2.432  1.1880 -0.2436 -1.9764
 9365TIP3    H249587   0.005   4.532   2.460 -0.0706  1.4182  2.5518
 9366TIP3   OH249588   3.411   4.903  12.293  0.3278  0.4180  0.2428
 9366TIP3    H149589   3.432   4.990  12.260  0.9233  0.3031  0.3181
 9366TIP3    H249590   3.381   4.855  12.216 -0.9077  0.9648  0.3718
 9367TIP3   OH249591   2.976   5.610  13.424 -0.8508 -0.3394 -0.3867
 9367TIP3    H149592   2.956   5.533  13.477  1.4262 -1.0790 -0.5575
 9367TIP3    H249593   2.995   5.678  13.489 -1.0997 -0.4071 -0.2408
 9368TIP3   OH249594   4.584   2.754  11.434  0.1331 -0.1418 -0.0519
 9368TIP3    H149595   4.613   2.673  11.476  0.2295 -1.0474 -1.8035
 9368TIP3    H249596   4.515   2.787  11.491  0.9502 -0.8084  1.3352
 9369TIP3   OH249597   5.380   5.070   4.614 -0.2225 -0.4235  0.0087
 9369TIP3    H149598   5.297   5.091   4.658  0.1977 -1.2033  1.2116
 9369TIP3    H249599   5.428   5.152   4.613  0.2081 -0.6164  2.0214
 9370TIP3   OH249600   2.501   1.732  14.756 -0.4199  0.5505  0.5041
 9370TIP3    H149601   2.518   1.729  14.850 -0.4390 -2.0397  0.4640
 9370TIP3    H249602   2.583   1.762  14.718  0.3801 -0.7505  1.1775
 9371TIP3   OH249603   5.705   6.122  13.409 -0.0635 -0.0894 -0.3811
 9371TIP3    H149604   5.625   6.108  13.359 -0.3583 -0.4793  0.1948
 9371TIP3    H249605   5.683   6.093  13.498  0.4171  0.7115 -0.0020
 9372TIP3   OH249606   0.202   2.993  11.989  0.1286 -0.3625 -0.4641
 9372TIP3    H149607   0.273   3.042  12.031  1.2780  0.1525 -2.8844
 9372TIP3    H249608   0.217   2.902  12.014 -0.5996  0.1913  2.1028
 9373TIP3   OH249609   0.192   5.732   4.904  0.0070  1.0191 -0.6998
 9373TIP3    H149610   0.220   5.665   4.843 -2.1306 -0.5617 -0.0210
 9373TIP3    H249611   0.104   5.756   4.874 -0.9080  0.5032  1.4681
 9374TIP3   OH249612   6.383   0.289  12.643  0.0540  0.0903  0.5470
 9374TIP3    H149613   6.321   0.217  12.638  1.4736 -1.2115  1.3849
 9374TIP3    H249614   6.396   0.316  12.552  1.0811 -2.0858  0.0256
 9375TIP3   OH249615   1.482   1.508  15.481  0.7485 -0.2109  0.1757
 9375TIP3    H149616   1.477   1.603  15.472 -2.7823 -0.5902 -3.3560
 9375TIP3    H249617   1.559   1.483  15.430 -0.3141  0.5210 -1.8478
 9376TIP3   OH249618   2.386   1.438   3.305  0.1988  0.2020 -0.3235
 9376TIP3    H149619   2.448   1.471   3.239 -0.9668  1.8357 -0.6277
 9376TIP3    H249620   2.432   1.450   3.388  1.2214 -0.8013 -0.7273
 9377TIP3   OH249621   0.048   1.548   4.702  0.3646  0.4263 -0.2523
 9377TIP3    H149622   0.111   1.619   4.688 -0.8917  0.9559 -3.6683
 9377TIP3    H249623   0.102   1.470   4.712  1.6664  1.3803  0.2673
 9378TIP3   OH249624   6.287   1.109   6.572 -0.0848  0.4377 -0.1734
 9378TIP3    H149625   6.359   1.053   6.602 -0.7923 -1.6533 -2.1801
 9378TIP3    H249626   6.316   1.198   6.590  3.2399 -0.3342 -1.3981
 9379TIP3   OH249627   4.296   0.581  12.985  0.4685 -0.4214  0.3989
 9379TIP3    H149628   4.216   0.576  13.038  1.4675 -2.7456  1.7669
 9379TIP3    H249629   4.366   0.556  13.045  2.0642  0.2762 -1.1411
 9380TIP3   OH249630   4.522   6.683  15.527  0.1012  0.1195 -0.3617
 9380TIP3    H149631   4.555   6.751  15.585  0.8203  0.4302 -1.1207
 9380TIP3    H249632   4.531   6.721  15.439 -0.6275 -0.4844 -0.7013
 9381TIP3   OH249633   3.599   1.990   4.645 -0.1915 -0.0879 -0.3835
 9381TIP3    H149634   3.606   2.079   4.680 -0.1489  0.4171 -1.6294
 9381TIP3    H249635   3.622   1.933   4.718 -0.2417  0.9262  0.4355
 9382TIP3   OH249636   4.463   3.492  16.358 -0.6040  0.3071 -0.3607
 9382TIP3    H149637   4.388   3.436  16.380 -0.2722 -0.3410 -0.8619
 9382TIP3    H249638   4.526   3.474  16.428 -0.3295 -0.2752 -0.7520
 9383TIP3   OH249639   5.547   2.712   4.298  0.4762 -0.2602 -0.0610
 9383TIP3    H149640   5.574   2.778   4.361  1.5894 -0.1674 -0.6268
 9383TIP3    H249641   5.520   2.637   4.351 -1.4210  0.8512  0.6096
 9384TIP3   OH249642   5.094   3.147  14.238 -0.5553  0.1216  0.4191
 9384TIP3    H149643   5.171   3.154  14.295  0.7144  1.5074 -1.3695
 9384TIP3    H249644   5.073   3.054  14.237  2.1430 -0.5152 -0.3557
 9385TIP3   OH249645   6.689   5.740  16.405  0.6499 -0.3053  0.3270
 9385TIP3    H149646   6.759   5.769  16.347  0.3392 -0.3156 -0.0591
 9385TIP3    H249647   6.621   5.709  16.346  0.4968 -0.7039  0.7074
 9386TIP3   OH249648   4.618   3.419   4.861  0.2482  0.6043 -0.2592
 9386TIP3    H149649   4.673   3.340   4.859 -1.0474 -0.3727  1.1728
 9386TIP3    H249650   4.598   3.437   4.770 -0.3092 -1.3810 -0.5648
 9387TIP3   OH249651   5.682   0.010  16.917 -0.3115 -0.1502  0.1143
 9387TIP3    H149652   5.674   0.044  16.828  0.2635 -1.6675 -0.5318
 9387TIP3    H249653   5.609   0.050  16.964  0.2608  1.8375 -0.6494
 9388TIP3   OH249654   6.098   4.267  16.181  0.2110  0.0613 -0.2159
 9388TIP3    H149655   6.052   4.190  16.150  1.0883 -0.9050  0.7997
 9388TIP3    H249656   6.055   4.289  16.264  0.2450  0.3893 -0.2825
 9389TIP3   OH249657   6.468   3.815   5.919  0.1626 -0.2745  0.2963
 9389TIP3    H149658   6.404   3.752   5.885 -0.8435  0.5072  0.7131
 9389TIP3    H249659   6.489   3.783   6.006  0.2272 -0.4520  0.2161
 9390TIP3   OH249660   2.612   2.272   1.093  0.4412 -0.1979 -0.5666
 9390TIP3    H149661   2.674   2.324   1.042  0.4395 -0.7887 -1.1803
 9390TIP3    H249662   2.533   2.270   1.039  0.3831 -0.6906 -0.4610
 9391TIP3   OH249663   3.108   4.386  17.117  0.2425  1.1966 -0.3348
 9391TIP3    H149664   3.037   4.330  17.087  0.6747  0.9873 -0.9669
 9391TIP3    H249665   3.169   4.326  17.160  0.4817  1.2410 -0.6070
 9392TIP3   OH249666   0.951   5.076  13.957  0.5885  0.1633 -0.9503
 9392TIP3    H149667   0.922   5.081  14.048 -0.5277 -0.7498 -1.2301
 9392TIP3    H249668   1.009   5.000  13.954  0.9504  0.4424 -0.9052
 9393TIP3   OH249669   1.457   3.926  15.809  0.1062  0.0926 -0.5310
 9393TIP3    H149670   1.485   4.017  15.814  0.3407  0.2162 -3.2722
 9393TIP3    H249671   1.361   3.930  15.803 -0.0993 -0.0109  2.1555
 9394TIP3   OH249672   2.419   1.542   0.853 -0.3516  0.2208 -0.3678
 9394TIP3    H149673   2.335   1.513   0.889 -0.8662  1.3718 -0.6028
 9394TIP3    H249674   2.396   1.612   0.792  0.9427  2.3617  1.5094
 9395TIP3   OH249675   5.318   2.146   6.058  0.2057 -0.7249 -0.6037
 9395TIP3    H149676   5.344   2.154   5.967  1.7242  0.4433 -0.0813
 9395TIP3    H249677   5.222   2.141   6.055  0.1394  1.0405 -2.1366
 9396TIP3   OH249678   5.711   0.088   3.380  0.0293  0.6185  0.2208
 9396TIP3    H149679   5.748   0.175   3.395 -1.1413  1.2924 -0.7079
 9396TIP3    H249680   5.640   0.082   3.444  0.9243 -0.1853  1.1629
 9397TIP3   OH249681   4.957   2.579   0.953 -0.7997  0.3160  0.0193
 9397TIP3    H149682   4.960   2.622   0.868 -0.0920  0.5569  0.1682
 9397TIP3    H249683   4.907   2.640   1.008  0.9264  1.3476  0.4570
 9398TIP3   OH249684   0.836   5.904  13.406 -0.0784 -0.3950  0.1441
 9398TIP3    H149685   0.823   5.987  13.360 -0.3713  0.3617  1.5937
 9398TIP3    H249686   0.789   5.840  13.352 -0.4276  0.4835 -0.6103
 9399TIP3   OH249687   3.356   1.939   0.352  0.2136  0.5378  0.3672
 9399TIP3    H149688   3.303   1.891   0.290 -1.0548  0.6128  1.3849
 9399TIP3    H249689   3.412   1.873   0.393  0.5362  0.3841 -0.3114
 9400TIP3   OH249690   3.545   3.671  10.933  0.5202 -0.0715  0.2137
 9400TIP3    H149691   3.527   3.577  10.924 -0.7507  0.2789 -1.2227
 9400TIP3    H249692   3.485   3.713  10.871  2.1623  1.5863 -0.3270
 9401TIP3   OH249693   6.024   0.398  12.074  0.2528  0.2535  0.4138
 9401TIP3    H149694   6.028   0.404  12.169  2.4544 -1.1811  0.4429
 9401TIP3    H249695   6.050   0.484  12.042  0.5072  0.4250  1.0870
 9402TIP3   OH249696   6.543   5.412   4.021  0.2264 -0.5353 -0.4493
 9402TIP3    H149697   6.513   5.474   4.087  1.4945 -0.6350  0.2342
 9402TIP3    H249698   6.595   5.348   4.069  0.8423 -0.8352 -1.4783
 9403TIP3   OH249699   6.029   5.273  14.351 -0.2806  0.2440 -0.7951
 9403TIP3    H149700   6.059   5.311  14.269 -0.1316  0.1344 -0.7919
 9403TIP3    H249701   5.982   5.343  14.395  0.8286  0.7146 -0.3462
 9404TIP3   OH249702   2.465   5.170   1.514  0.7260  0.4004 -0.8543
 9404TIP3    H149703   2.556   5.194   1.501  1.4392 -2.1753 -0.9948
 9404TIP3    H249704   2.437   5.135   1.429 -1.0372  3.0228 -1.4129
 9405TIP3   OH249705   2.126   2.449   4.242 -0.3527  0.2162 -0.0820
 9405TIP3    H149706   2.034   2.454   4.269 -0.4508 -0.6471 -0.2492
 9405TIP3    H249707   2.161   2.535   4.263 -1.2602  0.6359 -0.2310
 9406TIP3   OH249708   4.389   1.366   5.923  0.7181 -0.2841 -0.0934
 9406TIP3    H149709   4.445   1.364   5.846 -0.3613  0.7936 -0.9164
 9406TIP3    H249710   4.373   1.459   5.939 -1.4685 -0.6027 -0.3230
 9407TIP3   OH249711   2.523   2.290  11.459  0.2705  0.0331  0.0761
 9407TIP3    H149712   2.585   2.363  11.462 -0.5408  0.8914 -2.2733
 9407TIP3    H249713   2.552   2.237  11.385 -2.2497  0.9628 -1.6613
 9408TIP3   OH249714   6.806   0.014   5.326  0.5387  0.0982  0.7020
 9408TIP3    H149715   6.744   0.013   5.398  1.0436  0.1702  1.1427
 9408TIP3    H249716   6.875  -0.047   5.353 -0.2409 -1.3972 -0.5863
 9409TIP3   OH249717   0.396   1.063  11.010 -0.1297  0.0598  0.3027
 9409TIP3    H149718   0.340   1.141  11.001 -0.3274 -0.1711 -0.4602
 9409TIP3    H249719   0.368   1.005  10.939 -0.1652 -0.8226  1.0243
 9410TIP3   OH249720   3.845   6.093  11.130  0.5081  0.3475 -0.0146
 9410TIP3    H149721   3.892   6.163  11.085  1.8158 -0.1025  0.6434
 9410TIP3    H249722   3.854   6.017  11.074  0.2531  0.3532 -0.0634
 9411TIP3   OH249723   1.727   5.506  12.556  0.4853  0.6612 -0.1379
 9411TIP3    H149724   1.711   5.589  12.602  1.3129  0.1558  1.0814
 9411TIP3    H249725   1.780   5.455  12.617 -0.6238 -1.0544 -0.5942
 9412TIP3   OH249726   1.270   1.481  12.753  0.3931  0.2753  0.1680
 9412TIP3    H149727   1.363   1.456  12.755 -0.0805 -1.5184  0.6916
 9412TIP3    H249728   1.262   1.535  12.674  1.9311  0.6586  0.2533
 9413TIP3   OH249729   6.593   5.840  15.298  0.0786  0.2697 -0.0457
 9413TIP3    H149730   6.540   5.841  15.218 -0.8549  2.3514  0.5612
 9413TIP3    H249731   6.534   5.872  15.366  1.3734  0.1585  1.1451
 9414TIP3   OH249732   3.953   6.179  16.577 -0.7925  0.0530  0.1194
 9414TIP3    H149733   3.953   6.209  16.668  0.1649 -0.7095  0.3782
 9414TIP3    H249734   4.026   6.118  16.571 -2.6683 -2.2622 -0.3931
 9415TIP3   OH249735   3.315   0.292   2.954  0.1878 -0.1548  0.2755
 9415TIP3    H149736   3.311   0.382   2.988 -1.2485  0.3956 -1.2482
 9415TIP3    H249737   3.361   0.301   2.871  0.9956 -1.0096  0.6289
 9416TIP3   OH249738   0.464   2.443   4.677  0.8617  0.1339 -0.2046
 9416TIP3    H149739   0.459   2.412   4.587  1.8558  1.2141 -0.6470
 9416TIP3    H249740   0.548   2.488   4.683 -1.3423  4.5791 -0.2366
 9417TIP3   OH249741   1.591   2.048   5.710  0.3795 -0.2795  0.2003
 9417TIP3    H149742   1.655   2.106   5.668 -1.0747 -0.9144 -3.0694
 9417TIP3    H249743   1.613   1.961   5.677 -0.4673 -0.8919  1.2254
 9418TIP3   OH249744   0.736   0.914  14.444 -0.0810  0.5173  0.0485
 9418TIP3    H149745   0.688   0.882  14.368  1.7713 -1.6594 -0.2338
 9418TIP3    H249746   0.671   0.916  14.514 -1.3524  0.7774 -1.1072
 9419TIP3   OH249747   0.529   5.805   0.417  0.1614 -0.6063  0.6244
 9419TIP3    H149748   0.481   5.728   0.446  0.9499 -1.2887  0.1130
 9419TIP3    H249749   0.621   5.781   0.424  0.3998 -0.0706 -0.5122
 9420TIP3   OH249750   3.486   3.982   3.804  0.6517 -0.4866 -0.1905
 9420TIP3    H149751   3.572   3.980   3.846  1.4766  2.1772 -1.6526
 9420TIP3    H249752   3.465   4.075   3.796 -1.9729 -1.0799 -0.6727
 9421TIP3   OH249753   1.353   4.161  11.710 -0.1284  0.1591 -0.6279
 9421TIP3    H149754   1.304   4.239  11.686 -0.6972 -1.3608 -4.7727
 9421TIP3    H249755   1.442   4.193  11.726 -0.6155  1.7868 -1.1106
 9422TIP3   OH249756   3.756   1.565  13.206 -0.1149  0.6639  0.1725
 9422TIP3    H149757   3.746   1.608  13.291  0.3133 -0.7662  0.9754
 9422TIP3    H249758   3.761   1.472  13.227 -0.7771  0.2274 -1.4944
 9423TIP3   OH249759   0.382   4.520   5.002  0.5123  0.9934 -0.2871
 9423TIP3    H149760   0.389   4.577   4.926 -0.0514  2.2400  0.5734
 9423TIP3    H249761   0.293   4.485   4.998  0.4703  1.0876 -0.1914
 9424TIP3   OH249762   6.777   6.043  11.057  0.2667 -0.0909 -0.2130
 9424TIP3    H149763   6.702   6.094  11.029 -0.2061 -0.9526 -0.5405
 9424TIP3    H249764   6.790   6.068  11.149  0.8343  1.5413 -0.7177
 9425TIP3   OH249765   6.100   3.583   1.269 -0.2062 -0.2581 -0.5857
 9425TIP3    H149766   6.115   3.529   1.192 -3.1328 -1.3388 -0.4979
 9425TIP3    H249767   6.034   3.647   1.242 -1.0340 -0.4455  0.8795
 9426TIP3   OH249768   0.199   0.689  13.231  0.5985  0.1045  0.6856
 9426TIP3    H149769   0.252   0.767  13.211  1.7786 -0.8160  0.1672
 9426TIP3    H249770   0.158   0.667  13.148 -0.9057  1.0265  1.1705
 9427TIP3   OH249771   1.799   0.680  16.883 -0.1123  0.2694 -0.0522
 9427TIP3    H149772   1.822   0.692  16.791  1.8201  1.7103  0.5885
 9427TIP3    H249773   1.754   0.761  16.907 -0.5116 -0.0561  0.3018
 9428TIP3   OH249774   3.736   2.391   3.177 -0.8685  0.3618  0.1051
 9428TIP3    H149775   3.814   2.427   3.135 -0.8269 -0.3138 -0.4160
 9428TIP3    H249776   3.668   2.456   3.162 -0.4041  0.9478  0.5561
 9429TIP3   OH249777   0.540   2.169   0.989 -0.0639 -0.1597 -0.0814
 9429TIP3    H149778   0.617   2.226   0.979  1.0578 -1.6338 -0.0899
 9429TIP3    H249779   0.573   2.081   0.968 -2.1955 -0.5580 -1.9352
 9430TIP3   OH249780   0.579   5.085   2.185  0.8737  0.0720 -0.5436
 9430TIP3    H149781   0.537   5.001   2.172  1.0771 -0.0316 -0.5353
 9430TIP3    H249782   0.509   5.142   2.217  0.8780 -0.2683  0.0930
 9431TIP3   OH249783   6.584   2.936   0.678  0.0746  0.6157 -0.5288
 9431TIP3    H149784   6.598   3.027   0.704 -0.1386  0.1813  1.1597
 9431TIP3    H249785   6.531   2.898   0.748  0.3581 -0.8804 -1.0869
 9432TIP3   OH249786   0.484   3.536   5.680  0.1283  0.5237  1.0091
 9432TIP3    H149787   0.410   3.506   5.626  0.0401  1.4544  0.6113
 9432TIP3    H249788   0.444   3.588   5.749  0.3237  0.0667  1.4747
 9433TIP3   OH249789   0.918   1.012  17.164 -0.0842 -0.3864 -0.6717
 9433TIP3    H149790   0.920   0.960  17.084 -2.0297  0.1417 -1.0939
 9433TIP3    H249791   0.917   1.103  17.133 -1.3748 -0.1853 -0.0807
 9434TIP3   OH249792   0.832   5.556   1.837  0.2080  0.4271 -0.5917
 9434TIP3    H149793   0.766   5.601   1.889 -0.5204 -0.7373 -0.4962
 9434TIP3    H249794   0.782   5.497   1.780  0.9920  1.5759 -2.5094
 9435TIP3   OH249795   6.263   2.350   4.312 -0.8573 -0.3552  0.0150
 9435TIP3    H149796   6.327   2.419   4.327  2.2122 -3.0762  0.0938
 9435TIP3    H249797   6.179   2.395   4.309  0.5859  2.9160  3.8238
 9436TIP3   OH249798   1.870   1.490   3.312  0.0979  0.7711  0.2304
 9436TIP3    H149799   1.912   1.567   3.351  0.2782  0.6438  0.2835
 9436TIP3    H249800   1.931   1.418   3.327  0.2859  0.7668 -0.5078
 9437TIP3   OH249801   5.070   6.332   2.132  0.3073 -0.8918 -0.1109
 9437TIP3    H149802   4.984   6.356   2.165  0.3135  0.4764 -1.0506
 9437TIP3    H249803   5.132   6.382   2.184  0.5146 -1.4678  0.2050
 9438TIP3   OH249804   2.467   3.114  15.085  0.4594  0.3669 -0.5739
 9438TIP3    H149805   2.382   3.134  15.045  0.9040  2.2339 -0.6375
 9438TIP3    H249806   2.445   3.083  15.173 -0.3806 -1.0287 -1.2712
 9439TIP3   OH249807   3.742   5.751   3.770 -0.1457  0.2283 -0.1473
 9439TIP3    H149808   3.681   5.817   3.738  1.0259  0.5321 -1.8730
 9439TIP3    H249809   3.785   5.718   3.690  1.3384 -0.5483  0.9422
 9440TIP3   OH249810   3.834   4.797   0.175 -0.7946  0.3476  0.0994
 9440TIP3    H149811   3.826   4.703   0.189  0.6743  0.3768  1.2932
 9440TIP3    H249812   3.813   4.810   0.082 -1.4797 -1.0926  0.0575
 9441TIP3   OH249813   2.963   6.431   3.933 -0.3435  0.0216  0.7253
 9441TIP3    H149814   3.043   6.379   3.940 -1.3886 -1.6431  0.4622
 9441TIP3    H249815   2.956   6.451   3.839  0.4904  1.3674  0.9305
 9442TIP3   OH249816   5.481   3.712   6.237 -0.5605 -0.2639 -0.5130
 9442TIP3    H149817   5.535   3.696   6.160 -0.0028 -0.3024 -0.1188
 9442TIP3    H249818   5.432   3.630   6.249 -1.1237 -0.0304 -1.1963
 9443TIP3   OH249819   1.985   0.980   0.801  0.3568  0.4935  0.4861
 9443TIP3    H149820   1.904   0.945   0.840  0.9057 -0.3828  0.8540
 9443TIP3    H249821   2.003   1.060   0.851  0.1255  0.2824  0.9146
 9444TIP3   OH249822   3.553   0.227   3.617  0.1531 -0.0019 -0.5532
 9444TIP3    H149823   3.519   0.267   3.698  0.4073  0.6786 -0.7807
 9444TIP3    H249824   3.640   0.195   3.641  0.9438  1.7667 -1.0228
 9445TIP3   OH249825   4.649   2.649   5.907  0.1156  0.2725 -0.0055
 9445TIP3    H149826   4.596   2.577   5.875 -0.0077 -0.1961  1.2336
 9445TIP3    H249827   4.681   2.620   5.993 -0.5464  1.9751  0.8459
 9446TIP3   OH249828   3.908   3.688  10.764 -0.1753 -0.2661 -0.1780
 9446TIP3    H149829   3.850   3.634  10.711 -0.1385 -1.7184  1.2047
 9446TIP3    H249830   3.996   3.663  10.735 -0.1868  0.4865 -0.8866
 9447TIP3   OH249831   5.225   0.329  11.067  0.0929 -0.0387 -0.2244
 9447TIP3    H149832   5.154   0.288  11.117 -0.3693 -0.9392 -1.6036
 9447TIP3    H249833   5.279   0.257  11.037 -0.4357  0.3609 -2.2224
 9448TIP3   OH249834   0.253   1.428   5.912  0.3610 -0.0037 -0.8247
 9448TIP3    H149835   0.169   1.425   5.958  1.5856  0.0338  1.5441
 9448TIP3    H249836   0.292   1.511   5.941  0.6468  0.6094 -2.9358
 9449TIP3   OH249837   3.427   0.200   1.679  0.3059 -0.2010  0.3093
 9449TIP3    H149838   3.363   0.270   1.695  0.3118 -1.0971  5.3282
 9449TIP3    H249839   3.376   0.119   1.686  0.8527 -0.8193 -2.4300
 9450TIP3   OH249840   4.609   2.213  17.060  0.2262 -0.2833  0.3922
 9450TIP3    H149841   4.702   2.191  17.046  0.7370  1.6561  0.4719
 9450TIP3    H249842   4.592   2.281  16.995 -1.3505 -1.1308 -0.0833
 9451TIP3   OH249843   6.682   5.343   3.174 -0.1117  0.1461 -0.1751
 9451TIP3    H149844   6.657   5.377   3.260  1.8354  0.9633  0.0942
 9451TIP3    H249845   6.599   5.317   3.133 -1.2048  1.2437  1.3039
 9452TIP3   OH249846   4.405   3.674   1.699 -0.2840  0.1655 -0.0871
 9452TIP3    H149847   4.313   3.685   1.725 -0.2153 -1.0204  0.7346
 9452TIP3    H249848   4.454   3.733   1.756 -0.4479  0.0037  0.2230
 9453TIP3   OH249849   4.176   6.324  10.737  0.1100  0.0002 -0.7768
 9453TIP3    H149850   4.208   6.406  10.698  1.1265 -0.8152 -1.6791
 9453TIP3    H249851   4.106   6.296  10.679  0.3952 -0.2526 -1.0041
 9454TIP3   OH249852   5.217   0.081   0.878 -0.0332 -0.4866  0.0977
 9454TIP3    H149853   5.248   0.109   0.965 -1.9198  1.1775  0.2788
 9454TIP3    H249854   5.154   0.012   0.896 -0.4139 -0.1509  0.0708
 9455TIP3   OH249855   2.889   4.705   3.297  0.1058 -0.7585 -0.3022
 9455TIP3    H149856   2.980   4.679   3.313  0.5127  1.4771  1.3033
 9455TIP3    H249857   2.896   4.788   3.249 -1.0243  0.8560  2.2456
 9456TIP3   OH249858   0.179   2.522  12.739  0.2670  0.1235  0.1412
 9456TIP3    H149859   0.100   2.547  12.787 -1.1775 -0.1420 -2.0055
 9456TIP3    H249860   0.195   2.431  12.765 -2.5605 -1.1971 -2.4237
 9457TIP3   OH249861   4.125   6.654  14.486 -0.2368  0.3438  0.3977
 9457TIP3    H149862   4.140   6.682  14.395 -1.3503 -1.2688 -0.3093
 9457TIP3    H249863   4.210   6.661  14.528  0.9962 -1.8354 -1.6001
 9458TIP3   OH249864   2.454   0.832  17.235  0.4842  0.3107 -0.2596
 9458TIP3    H149865   2.443   0.806  17.144 -2.0726  2.0338 -0.4770
 9458TIP3    H249866   2.381   0.790  17.281  0.1240  1.7499  0.4966
 9459TIP3   OH249867   5.368   4.182  12.770 -0.2394 -0.1463  0.2781
 9459TIP3    H149868   5.305   4.171  12.699  0.1739  0.1578 -0.1355
 9459TIP3    H249869   5.327   4.139  12.845 -0.8910 -0.0431 -0.0165
 9460TIP3   OH249870   3.760   4.352  11.018 -0.0741  0.6734 -0.3645
 9460TIP3    H149871   3.665   4.354  11.031 -0.5239 -1.3548 -2.9894
 9460TIP3    H249872   3.774   4.393  10.933  1.2335 -0.5365 -0.7513
 9461TIP3   OH249873   1.849   6.477   0.265  0.1010 -0.1839  0.1175
 9461TIP3    H149874   1.881   6.391   0.293 -0.4577 -0.6254 -0.5967
 9461TIP3    H249875   1.929   6.526   0.243  0.6793  0.6865  3.8616
 9462TIP3   OH249876   5.843   2.268   1.075 -0.0966  0.1533 -0.0978
 9462TIP3    H149877   5.804   2.340   1.124 -0.2935 -0.5407  0.7802
 9462TIP3    H249878   5.920   2.307   1.033 -0.1653  0.8606  0.4146
 9463TIP3   OH249879   1.857   1.168   0.602  0.7674 -0.0912  0.7641
 9463TIP3    H149880   1.771   1.132   0.625  0.7258  0.3721  1.3568
 9463TIP3    H249881   1.903   1.176   0.686  1.1553  0.2634  0.5182
 9464TIP3   OH249882   4.191   1.869  13.525 -0.5591 -0.1516  0.0770
 9464TIP3    H149883   4.201   1.791  13.579  2.9402 -0.2906 -0.6673
 9464TIP3    H249884   4.169   1.836  13.438 -0.3555 -0.2466  0.0616
 9465TIP3   OH249885   1.674   3.006  12.124 -0.5466 -0.1888 -0.0527
 9465TIP3    H149886   1.759   2.984  12.087  0.8254  1.4207  2.0335
 9465TIP3    H249887   1.626   2.923  12.125  1.6044 -1.4605  0.3383
 9466TIP3   OH249888   3.921   3.526   6.355  0.0247 -0.6546 -0.2236
 9466TIP3    H149889   3.931   3.621   6.347 -0.2340 -0.6119 -0.0097
 9466TIP3    H249890   3.859   3.503   6.286  1.1555 -0.8504 -1.1962
 9467TIP3   OH249891   1.128   1.488   1.755 -0.1867 -0.3078 -0.3689
 9467TIP3    H149892   1.116   1.415   1.816  1.7208 -1.5108 -1.4063
 9467TIP3    H249893   1.114   1.566   1.809 -1.8219 -1.3901  0.8453
 9468TIP3   OH249894   2.365   3.934  14.191  0.1664  0.0059 -0.1471
 9468TIP3    H149895   2.448   3.950  14.236  0.2368 -0.7716  0.0091
 9468TIP3    H249896   2.383   3.858  14.135 -0.2808  0.1838 -0.5301
 9469TIP3   OH249897   4.303   3.164   4.699 -0.5487  0.2913 -0.0706
 9469TIP3    H149898   4.251   3.224   4.646  1.9858  2.2888 -0.3901
 9469TIP3    H249899   4.313   3.086   4.644 -1.9174  0.4515 -0.5748
 9470TIP3   OH249900   3.878   4.063   2.497  0.0170 -0.0912 -0.0206
 9470TIP3    H149901   3.971   4.041   2.503  0.4504  2.0316  1.8942
 9470TIP3    H249902   3.861   4.115   2.576 -2.2542  1.4999 -1.5091
 9471TIP3   OH249903   6.429   0.433   6.819 -0.0093  0.1605  0.2348
 9471TIP3    H149904   6.449   0.401   6.907  0.8128 -1.7442 -0.6197
 9471TIP3    H249905   6.483   0.379   6.761 -0.7100  1.2471 -1.4608
 9472TIP3   OH249906   1.994   0.473   1.768 -0.0587 -0.4870  0.3752
 9472TIP3    H149907   1.960   0.497   1.682 -1.2613 -3.0148  0.1162
 9472TIP3    H249908   2.009   0.557   1.811 -1.9088  0.7957 -1.3492
 9473TIP3   OH249909   4.501   4.911  15.964 -0.0641  0.0381  0.8671
 9473TIP3    H149910   4.424   4.951  15.923 -0.0892  0.2889  1.1543
 9473TIP3    H249911   4.547   4.869  15.891  0.6604  1.7123  0.3165
 9474TIP3   OH249912   6.234   4.628   3.934  0.2380  0.2147 -0.1104
 9474TIP3    H149913   6.268   4.715   3.912 -2.3069  1.6074  1.3159
 9474TIP3    H249914   6.299   4.592   3.993  0.8072  1.5871  0.1332
 9475TIP3   OH249915   3.335   4.820  13.949  0.2957 -0.1201  0.2174
 9475TIP3    H149916   3.296   4.764  13.882  1.8212 -0.8873 -0.0592
 9475TIP3    H249917   3.272   4.818  14.022 -0.6995 -0.4196 -0.6403
 9476TIP3   OH249918   5.066   0.291   0.791  0.0722 -0.1111  0.8747
 9476TIP3    H149919   5.143   0.246   0.826  0.2048  0.4204  1.2821
 9476TIP3    H249920   4.991   0.240   0.823  0.2692 -0.9653 -0.0086
 9477TIP3   OH249921   3.778   1.209   5.448 -0.5691 -0.0925  0.2886
 9477TIP3    H149922   3.859   1.240   5.487 -0.8848  3.5873 -1.7763
 9477TIP3    H249923   3.738   1.154   5.516  2.2521  0.2815  2.3535
 9478TIP3   OH249924   3.159   0.046  10.649  0.0771 -0.6949  0.1519
 9478TIP3    H149925   3.227   0.108  10.621 -1.0987 -0.4047 -2.1775
 9478TIP3    H249926   3.183  -0.036  10.607 -0.3981 -0.8837  0.2538
 9479TIP3   OH249927   5.116   4.206  15.579  0.2962 -0.5063 -0.4076
 9479TIP3    H149928   5.202   4.239  15.552 -0.6119  1.9029 -0.4932
 9479TIP3    H249929   5.114   4.223  15.674  0.3405 -1.5771 -0.2109
 9480TIP3   OH249930   0.210   5.587  16.123 -0.0204  0.5276  0.1606
 9480TIP3    H149931   0.194   5.493  16.133  1.6710  0.0687 -1.2517
 9480TIP3    H249932   0.250   5.613  16.207 -0.1278 -0.0994  0.4100
 9481TIP3   OH249933   2.137   2.612   1.814  0.0132  0.0211 -0.3981
 9481TIP3    H149934   2.107   2.701   1.800  0.3584  0.1734 -0.1983
 9481TIP3    H249935   2.193   2.618   1.892  1.5454 -0.0218 -1.4614
 9482TIP3   OH249936   2.891   2.111   3.326 -0.1657  0.1265 -0.0876
 9482TIP3    H149937   2.839   2.189   3.307 -0.3151  0.5140  1.8635
 9482TIP3    H249938   2.926   2.125   3.414 -0.4180 -2.1301  0.4072
 9483TIP3   OH249939   5.877   1.661  11.854  0.3325  0.5517  0.1800
 9483TIP3    H149940   5.845   1.667  11.944 -0.8796  0.2788 -0.2271
 9483TIP3    H249941   5.828   1.728  11.807 -0.6862 -0.8256 -0.7439
 9484TIP3   OH249942   3.246   3.747  12.773  0.5697 -0.1319 -0.0711
 9484TIP3    H149943   3.190   3.764  12.850 -0.0041  1.3666 -0.7901
 9484TIP3    H249944   3.207   3.800  12.704  2.8737  0.9498 -0.5899
 9485TIP3   OH249945   3.646   3.018   2.750 -0.1775  0.8524 -0.0933
 9485TIP3    H149946   3.615   2.991   2.663  1.0616  0.9606 -0.5925
 9485TIP3    H249947   3.715   2.955   2.771 -1.3450  0.0596  1.3931
 9486TIP3   OH249948   2.831   1.583  15.196 -0.4328  0.0778 -0.0526
 9486TIP3    H149949   2.790   1.569  15.281  0.4290  0.0637  0.3601
 9486TIP3    H249950   2.873   1.668  15.203  1.2947 -0.7816  0.1939
 9487TIP3   OH249951   3.787   6.135   1.011 -0.0143  0.0954 -0.2245
 9487TIP3    H149952   3.750   6.221   1.029 -0.4200 -0.4597  1.6616
 9487TIP3    H249953   3.880   6.152   0.996 -0.3675  1.0413 -1.4412
 9488TIP3   OH249954   4.088   2.059   0.887  0.0465  0.5186  0.0348
 9488TIP3    H149955   4.117   2.016   0.806 -0.8908  0.9881 -0.5678
 9488TIP3    H249956   4.165   2.056   0.944  0.5167 -0.4221 -0.6222
 9489TIP3   OH249957   6.670   2.105   1.895 -0.0011  0.2629  0.1945
 9489TIP3    H149958   6.613   2.181   1.903 -0.2889  0.1280 -0.5121
 9489TIP3    H249959   6.737   2.131   1.833  1.0101  0.5916  1.3987
 9490TIP3   OH249960   6.779   2.802  14.783  0.2019 -0.3324  0.4966
 9490TIP3    H149961   6.767   2.779  14.691  2.1860 -0.4201  0.2581
 9490TIP3    H249962   6.787   2.718  14.828 -1.7140 -0.3210  0.9031
 9491TIP3   OH249963   1.555   1.753   1.332 -0.0297 -0.9580  0.3274
 9491TIP3    H149964   1.469   1.711   1.336 -0.4036 -0.3772 -1.2784
 9491TIP3    H249965   1.602   1.717   1.407 -1.5006 -1.6627  0.9405
 9492TIP3   OH249966   0.191   2.668  15.582 -0.3569 -0.3978  0.4474
 9492TIP3    H149967   0.254   2.713  15.526  0.0319 -0.9457  0.4429
 9492TIP3    H249968   0.157   2.597  15.527 -0.8470 -0.2164  0.5094
 9493TIP3   OH249969   4.720   1.121  10.998  0.5621  0.1094  0.0222
 9493TIP3    H149970   4.793   1.150  10.943  0.1986  0.4972 -0.2587
 9493TIP3    H249971   4.756   1.049  11.049  1.7820  1.6403  1.3993
 9494TIP3   OH249972   5.556   2.312   2.580 -0.2565 -0.2366  0.0004
 9494TIP3    H149973   5.520   2.312   2.668 -0.8451  0.1314 -0.2362
 9494TIP3    H249974   5.633   2.257   2.585  0.6026  1.0482  1.1097
 9495TIP3   OH249975   1.751   5.872  16.926  0.3215  0.9065  0.3907
 9495TIP3    H149976   1.695   5.794  16.917  0.2797  1.0915 -1.1370
 9495TIP3    H249977   1.690   5.943  16.945  0.1561  0.8928 -0.0736
 9496TIP3   OH249978   2.822   0.508  14.430  0.4323 -0.4472  0.7524
 9496TIP3    H149979   2.876   0.540  14.358  1.6685 -1.3955  1.2378
 9496TIP3    H249980   2.817   0.582  14.491 -0.4782  0.2992 -0.2058
 9497TIP3   OH249981   6.047   4.723  11.751  0.2968 -0.1787 -0.5311
 9497TIP3    H149982   6.098   4.758  11.677  0.1639  1.1107 -0.0276
 9497TIP3    H249983   5.956   4.742  11.728  0.3028  0.9087  0.3016
 9498TIP3   OH249984   0.250   2.899   4.772 -0.1790 -0.0564 -0.0214
 9498TIP3    H149985   0.283   2.934   4.855 -0.2668 -0.8483  0.3504
 9498TIP3    H249986   0.173   2.952   4.752  0.6259  1.0317 -0.2974
 9499TIP3   OH249987   4.018   2.927  17.000  0.3253 -0.4034 -0.3948
 9499TIP3    H149988   4.042   2.891  16.915  0.1945  0.1950 -0.6911
 9499TIP3    H249989   3.951   2.992  16.979 -0.7343 -1.2629  0.3028
 9500TIP3   OH249990   0.172   1.469   3.059 -0.7387 -0.3345 -0.2208
 9500TIP3    H149991   0.166   1.557   3.096  1.2208 -1.2135  2.3335
 9500TIP3    H249992   0.098   1.422   3.097 -1.9595  0.2684 -1.8185
 9501TIP3   OH249993   2.424   5.307  15.616 -0.0198  0.6277 -0.3382
 9501TIP3    H149994   2.352   5.370  15.629 -0.2405  0.6357 -1.5650
 9501TIP3    H249995   2.491   5.357  15.569 -0.3230 -0.1242 -1.6001
 9502TIP3   OH249996   3.849   0.748  14.528  0.0324  0.1912 -0.1091
 9502TIP3    H149997   3.785   0.733  14.459  0.0706  0.2845 -0.1664
 9502TIP3    H249998   3.800   0.792  14.598 -0.0354 -0.0210 -0.0221
 9503TIP3   OH249999   2.037   5.643  17.086  0.4885 -0.2989 -0.6861
 9503TIP3    H150000   2.114   5.588  17.098  1.7213  1.6016  0.3416
 9503TIP3    H250001   2.060   5.701  17.013 -0.3313 -0.3325 -0.9748
 9504TIP3   OH250002   2.112   1.240   5.277 -0.4478  0.0873  0.1304
 9504TIP3    H150003   2.043   1.178   5.258 -0.4582  0.3724 -0.7863
 9504TIP3    H250004   2.140   1.272   5.191  2.3175 -1.6277  0.3301
 9505TIP3   OH250005   0.198   0.673  16.895 -0.3240 -0.4507 -0.4787
 9505TIP3    H150006   0.133   0.642  16.959  1.6217  0.2455  1.9190
 9505TIP3    H250007   0.224   0.594  16.848 -0.9820 -1.1832  0.3547
 9506TIP3   OH250008   6.647   6.819  13.563 -0.4436 -0.1431  0.5045
 9506TIP3    H150009   6.605   6.764  13.629  0.9808 -1.9608 -0.0538
 9506TIP3    H250010   6.736   6.784  13.556  0.5259  2.3035  0.1775
 9507TIP3   OH250011   4.868   1.508   5.074 -0.1956  0.4693  0.0218
 9507TIP3    H150012   4.807   1.552   5.015 -1.3341 -0.1651  0.7135
 9507TIP3    H250013   4.939   1.478   5.017  0.0131  2.1506 -0.6262
 9508TIP3   OH250014   1.292   2.895   5.773  0.0131  0.3217 -0.2881
 9508TIP3    H150015   1.338   2.871   5.693  0.2146 -0.7200  0.1334
 9508TIP3    H250016   1.346   2.963   5.813 -0.8334  1.8946 -1.7634
 9509TIP3   OH250017   0.153   1.984   1.386  0.2592 -0.1279 -0.0894
 9509TIP3    H150018   0.067   1.972   1.345  1.5135 -1.2531 -2.4830
 9509TIP3    H250019   0.169   1.901   1.430 -0.1100  0.2762  0.8080
 9510TIP3   OH250020   2.726   4.675  13.780  0.3865 -0.2180  0.2333
 9510TIP3    H150021   2.786   4.700  13.709  1.0201  0.1080  0.8790
 9510TIP3    H250022   2.674   4.753  13.796 -0.2172 -0.5013 -0.3263
 9511TIP3   OH250023   5.120   2.935  14.970  0.0382 -0.1606  0.1738
 9511TIP3    H150024   5.140   2.857  15.022  0.9666  0.9497  1.5266
 9511TIP3    H250025   5.133   2.907  14.879 -0.6243 -1.8479  0.5788
 9512TIP3   OH250026   3.700   3.070   2.281 -0.2109 -0.1630 -0.3718
 9512TIP3    H150027   3.605   3.077   2.284 -0.1810  0.4637 -0.6920
 9512TIP3    H250028   3.717   2.993   2.226 -0.5213  0.8374 -1.8991
 9513TIP3   OH250029   1.730   0.728  11.755 -0.1763 -0.3474 -0.2386
 9513TIP3    H150030   1.703   0.636  11.744 -1.3547  0.1871 -2.0145
 9513TIP3    H250031   1.825   0.724  11.759 -0.2416 -1.7218  0.3667
 9514TIP3   OH250032   2.327   2.781  13.608 -0.2704  0.4040  0.3034
 9514TIP3    H150033   2.321   2.695  13.565  0.9203  0.8272 -0.7458
 9514TIP3    H250034   2.376   2.764  13.688 -0.7364 -0.0360  0.4976
 9515TIP3   OH250035   1.461   1.245  13.983 -0.3900 -0.5929 -0.0353
 9515TIP3    H150036   1.378   1.203  13.961  0.1121 -0.6863 -1.7927
 9515TIP3    H250037   1.469   1.233  14.078 -1.3305 -2.4922 -0.1684
 9516TIP3   OH250038   6.042   0.704   6.523 -0.6397  0.9109 -0.6703
 9516TIP3    H150039   6.007   0.777   6.575 -0.5558  0.4412  0.0494
 9516TIP3    H250040   5.968   0.675   6.470 -1.3867 -0.0992  0.8617
 9517TIP3   OH250041   5.291   5.800   3.577 -0.1536  0.3385  0.4185
 9517TIP3    H150042   5.316   5.821   3.667 -0.1439  0.9742  0.2704
 9517TIP3    H250043   5.373   5.775   3.534  0.1419  1.8016  0.1030
 9518TIP3   OH250044   5.568   1.177  16.215 -0.6932 -0.3927 -0.0712
 9518TIP3    H150045   5.584   1.271  16.208 -0.7912 -0.3800 -0.1159
 9518TIP3    H250046   5.473   1.169  16.215 -0.6737 -0.6090 -1.5225
 9519TIP3   OH250047   3.644   4.994   0.642 -0.0870 -0.3200  0.3308
 9519TIP3    H150048   3.648   4.987   0.547 -1.1216 -0.4338  0.2909
 9519TIP3    H250049   3.550   4.989   0.663  0.1253 -0.2131  1.3446
 9520TIP3   OH250050   5.847   1.366   5.036  0.0937  0.1808 -0.1929
 9520TIP3    H150051   5.786   1.301   5.003  1.1083  0.4214 -2.6382
 9520TIP3    H250052   5.932   1.320   5.039  0.1660  0.3802  1.4284
 9521TIP3   OH250053   1.623   5.617   5.762 -0.1504 -0.4954  0.2874
 9521TIP3    H150054   1.681   5.681   5.720  0.6806  0.3480  2.6471
 9521TIP3    H250055   1.582   5.665   5.834  1.5223 -2.9378  2.9550
 9522TIP3   OH250056   4.648   4.373  12.357  0.4315 -0.4110 -0.4349
 9522TIP3    H150057   4.657   4.278  12.357  0.5458 -0.4014 -0.2236
 9522TIP3    H250058   4.623   4.394  12.448  2.2544 -0.0578 -0.0015
 9523TIP3   OH250059   3.624   1.428  11.442  0.0388  0.3174 -0.5560
 9523TIP3    H150060   3.719   1.428  11.431  0.0998 -1.5804 -0.2028
 9523TIP3    H250061   3.591   1.471  11.364  1.1944  1.2879 -0.5338
 9524TIP3   OH250062   6.219   2.608   1.986 -0.4742  0.0559  0.5710
 9524TIP3    H150063   6.152   2.670   2.013 -0.1334 -0.7718  3.4365
 9524TIP3    H250064   6.254   2.644   1.904 -2.3199  2.0553  0.6395
 9525TIP3   OH250065   2.948   0.793  14.310 -0.0014 -0.4820  0.6189
 9525TIP3    H150066   2.981   0.879  14.286 -2.9399  1.4064  2.9792
 9525TIP3    H250067   3.008   0.762  14.377  0.2522  0.3544  0.7807
 9526TIP3   OH250068   6.358   4.918  11.752 -0.4307 -0.7671  1.2393
 9526TIP3    H150069   6.297   4.969  11.805  0.1481 -0.7931  1.9364
 9526TIP3    H250070   6.303   4.879  11.683 -0.3992  3.1890 -1.1304
 9527TIP3   OH250071   5.815   2.074  16.254  0.0119  0.0494 -0.1450
 9527TIP3    H150072   5.782   2.079  16.164 -4.1167  1.1167  1.2993
 9527TIP3    H250073   5.853   2.161  16.270  0.2759  0.0350 -0.6804
 9528TIP3   OH250074   3.291   0.679   1.772 -0.1530  0.0805 -0.8250
 9528TIP3    H150075   3.201   0.696   1.801  0.3432 -0.0322  0.8176
 9528TIP3    H250076   3.334   0.765   1.773  0.6503 -0.3286  1.5458
 9529TIP3   OH250077   0.246   2.925  14.457  0.3347  1.0016 -0.0081
 9529TIP3    H150078   0.230   2.924  14.552  1.3704  0.6170  0.1637
 9529TIP3    H250079   0.323   2.870  14.445 -1.1654 -0.8493 -1.3536
 9530TIP3   OH250080   5.360   0.054  13.179  0.0304 -0.0562 -0.2943
 9530TIP3    H150081   5.357  -0.009  13.108 -0.1810 -1.9039  1.3325
 9530TIP3    H250082   5.351   0.002  13.258 -0.7501  2.0693  1.0564
 9531TIP3   OH250083   2.296   3.858   2.834 -0.2178 -0.7117  0.2094
 9531TIP3    H150084   2.263   3.928   2.892  0.2025  0.6370 -1.1522
 9531TIP3    H250085   2.267   3.777   2.876 -0.2493  0.2563  2.1174
 9532TIP3   OH250086   6.035   1.470  11.386  0.6365  0.0479  0.2806
 9532TIP3    H150087   5.991   1.506  11.309  2.4425  2.7105  0.4397
 9532TIP3    H250088   6.128   1.482  11.368  1.1331 -1.1240  2.0193
 9533TIP3   OH250089   4.892   0.626  14.300 -0.3794 -0.0897 -0.1991
 9533TIP3    H150090   4.858   0.681  14.370 -1.8686  0.7301 -1.5192
 9533TIP3    H250091   4.981   0.659  14.285 -0.3861  0.3368  0.6685
 9534TIP3   OH250092   0.516   4.028  16.623 -0.0647 -0.4174 -0.4580
 9534TIP3    H150093   0.513   3.944  16.578 -1.9163 -1.0652  0.8205
 9534TIP3    H250094   0.486   4.010  16.712 -3.6056  2.0618 -1.0160
 9535TIP3   OH250095   5.305   1.764  11.985 -1.0446  0.0281  0.4164
 9535TIP3    H150096   5.321   1.702  11.913  1.2308 -0.0492  0.9451
 9535TIP3    H250097   5.393   1.787  12.017 -1.9731  1.1027  2.2927
 9536TIP3   OH250098   5.764   6.707   0.267 -0.6911  0.4405 -0.5101
 9536TIP3    H150099   5.683   6.680   0.309 -0.9440  1.1882 -0.5222
 9536TIP3    H250100   5.818   6.743   0.338 -0.4697  0.1839 -0.5451
 9537TIP3   OH250101   1.478   2.508   1.977  0.0990  0.3082 -0.4150
 9537TIP3    H150102   1.446   2.487   2.065 -2.9546 -0.7957 -1.7023
 9537TIP3    H250103   1.498   2.601   1.980  0.6471  0.1332  1.6397
 9538TIP3   OH250104   2.015   5.449   2.776 -0.2121  0.2086 -0.0876
 9538TIP3    H150105   2.089   5.483   2.726  0.4738 -2.2029 -0.7980
 9538TIP3    H250106   2.055   5.389   2.839 -1.4820 -0.3667  0.1799
 9539TIP3   OH250107   0.959   3.150   1.153  0.6477 -0.4021 -0.2803
 9539TIP3    H150108   0.935   3.064   1.120  1.0011 -0.9868  0.9314
 9539TIP3    H250109   0.941   3.210   1.081 -0.4200 -1.3764 -0.8387
 9540TIP3   OH250110   6.057   4.165  11.194  0.3120 -0.1765 -0.1084
 9540TIP3    H150111   6.068   4.136  11.285  2.4747  0.2902 -0.1982
 9540TIP3    H250112   6.017   4.090  11.150 -2.7587  0.3370  1.6616
 9541TIP3   OH250113   4.503   0.169  12.960  0.3425  0.5868  0.1799
 9541TIP3    H150114   4.444   0.225  12.910 -1.3030 -0.9844  0.2947
 9541TIP3    H250115   4.516   0.216  13.043 -2.3051  0.0795  0.9231
 9542TIP3   OH250116   0.798   4.033  13.079 -0.0974 -0.1848 -0.2402
 9542TIP3    H150117   0.853   4.084  13.020 -0.1241 -1.1743 -1.1387
 9542TIP3    H250118   0.790   4.087  13.158  2.7813 -0.3062  0.2099
 9543TIP3   OH250119   0.106   0.192   2.322 -0.1164 -0.2794  0.5824
 9543TIP3    H150120   0.106   0.287   2.311  1.1952 -0.1651  1.4487
 9543TIP3    H250121   0.096   0.157   2.233  0.4775  0.6603  0.1416
 9544TIP3   OH250122   4.593   0.657  10.474  0.3960 -0.2500 -0.8024
 9544TIP3    H150123   4.600   0.752  10.483  0.1761 -0.4111  1.4804
 9544TIP3    H250124   4.500   0.639  10.484  0.2871 -0.6016 -2.4306
 9545TIP3   OH250125   6.366   0.715   2.771 -0.0257 -0.1955 -0.4916
 9545TIP3    H150126   6.317   0.750   2.844 -1.0214 -2.6354  0.0705
 9545TIP3    H250127   6.307   0.722   2.696 -0.0133 -0.1443 -0.4967
 9546TIP3   OH250128   3.816   6.417   3.603 -0.7980  0.3023 -0.4113
 9546TIP3    H150129   3.905   6.393   3.627 -1.9292 -1.3464  2.4248
 9546TIP3    H250130   3.814   6.513   3.607  0.9631  0.3597 -0.9628
 9547TIP3   OH250131   4.945   0.479  12.979  0.4839 -0.1407 -0.4377
 9547TIP3    H150132   4.946   0.496  12.884 -0.6149  1.8073 -0.1291
 9547TIP3    H250133   4.988   0.395  12.988 -0.7721 -1.1010 -2.8353
 9548TIP3   OH250134   5.690   2.445  11.199 -1.2822  0.0417 -0.6424
 9548TIP3    H150135   5.642   2.480  11.125  0.4729  3.1988 -0.3823
 9548TIP3    H250136   5.745   2.376  11.162  0.2772  2.2063 -2.5396
 9549TIP3   OH250137   3.277   1.800   4.767 -0.1205 -0.1345  0.1128
 9549TIP3    H150138   3.268   1.814   4.673  0.9015  1.0026  0.1608
 9549TIP3    H250139   3.339   1.727   4.775  0.4218  0.2961 -0.1022
 9550TIP3   OH250140   5.897   6.818   3.710 -0.2607 -0.2158 -0.1925
 9550TIP3    H150141   5.973   6.868   3.681 -0.5034  0.1686 -0.1774
 9550TIP3    H250142   5.880   6.757   3.639 -1.2873  1.1998 -1.2056
 9551TIP3   OH250143   3.477   0.834   5.045 -0.7216  0.0295 -0.1147
 9551TIP3    H150144   3.465   0.812   5.138  2.1471 -1.6693 -0.0694
 9551TIP3    H250145   3.507   0.925   5.046  0.4032 -0.3220  0.7653
 9552TIP3   OH250146   3.848   4.706  10.727  0.1884 -0.5521  0.6195
 9552TIP3    H150147   3.874   4.736  10.814  0.3342 -0.2747  0.4837
 9552TIP3    H250148   3.775   4.764  10.703  0.9349  0.1662  0.0593
 9553TIP3   OH250149   5.012   5.757  16.033 -0.1134 -0.1659 -0.0169
 9553TIP3    H150150   4.990   5.850  16.023 -1.9936 -0.7270 -1.3555
 9553TIP3    H250151   5.107   5.756  16.044 -0.1310  1.9567  0.6779
 9554TIP3   OH250152   4.099   0.265  15.819 -0.2282 -0.2109 -0.1612
 9554TIP3    H150153   4.114   0.299  15.908  1.8437  0.8972 -0.8907
 9554TIP3    H250154   4.005   0.280  15.804 -0.2413  1.2958  1.1610
 9555TIP3   OH250155   2.893   1.108   2.164  0.7049  0.1318  0.2250
 9555TIP3    H150156   2.950   1.178   2.132  1.9912 -0.5652  0.9215
 9555TIP3    H250157   2.828   1.152   2.218  0.7064  0.9274 -0.4280
 9556TIP3   OH250158   6.771   6.379  16.068 -0.0519 -0.5368 -0.5229
 9556TIP3    H150159   6.744   6.292  16.099 -0.3788  0.3503  1.8040
 9556TIP3    H250160   6.698   6.408  16.013 -0.9371 -0.8440  0.4675
 9557TIP3   OH250161   2.833   0.224  13.101  0.3552 -0.0850  0.0438
 9557TIP3    H150162   2.738   0.224  13.086  0.3074 -0.1088  0.3588
 9557TIP3    H250163   2.844   0.264  13.187  0.3543 -3.7962  1.8311
 9558TIP3   OH250164   2.248   1.870  16.110 -0.4915 -0.1437 -0.0881
 9558TIP3    H150165   2.293   1.890  16.028  0.0016 -0.3314  0.1301
 9558TIP3    H250166   2.318   1.869  16.176 -1.2345  2.5828  0.7842
 9559TIP3   OH250167   0.898   3.773   1.830  0.2189  0.0168 -0.4725
 9559TIP3    H150168   0.872   3.785   1.739 -0.4864  0.6185 -0.1968
 9559TIP3    H250169   0.972   3.713   1.826  0.6176  0.5604 -1.4966
 9560TIP3   OH250170   0.807   5.715  15.059 -0.3489  0.6003  0.0515
 9560TIP3    H150171   0.721   5.675  15.069 -0.5462  1.3655  1.5941
 9560TIP3    H250172   0.788   5.809  15.051  0.3232  0.7282 -0.0316
 9561TIP3   OH250173   4.747   0.562   1.481 -0.6615 -0.2688  0.0439
 9561TIP3    H150174   4.698   0.635   1.441  1.0473  0.1686 -1.2967
 9561TIP3    H250175   4.687   0.527   1.547 -2.0635  1.4535 -0.2659
 9562TIP3   OH250176   0.872   1.262   6.291  0.3717 -0.0209  0.6348
 9562TIP3    H150177   0.840   1.326   6.354  2.0339  0.8231  0.6411
 9562TIP3    H250178   0.900   1.188   6.345 -0.0034 -0.0810  0.7475
 9563TIP3   OH250179   4.765   5.949  10.937  0.1246  0.0561 -0.7298
 9563TIP3    H150180   4.795   6.009  11.006 -0.1817 -0.3802 -0.2151
 9563TIP3    H250181   4.701   6.000  10.887  2.0459  1.1626 -2.1322
 9564TIP3   OH250182   0.717   4.376   2.699 -0.5310  0.4280 -0.1406
 9564TIP3    H150183   0.670   4.457   2.716 -2.9787 -0.6264 -1.5649
 9564TIP3    H250184   0.809   4.397   2.714 -1.3944  2.6916  2.2370
 9565TIP3   OH250185   5.409   3.047  12.764 -0.1177  0.1232 -0.0028
 9565TIP3    H150186   5.451   3.080  12.685 -2.8169  2.9684 -0.3243
 9565TIP3    H250187   5.419   3.118  12.828  1.7853 -2.0138  2.2065
 9566TIP3   OH250188   2.805   6.750  14.336 -0.5500 -0.3269  0.3263
 9566TIP3    H150189   2.727   6.729  14.285  0.1661  0.2661 -1.0459
 9566TIP3    H250190   2.808   6.685  14.405 -1.9946 -0.6453  0.0914
 9567TIP3   OH250191   4.185   6.519  13.250  0.1228  0.2138  0.9725
 9567TIP3    H150192   4.177   6.614  13.244  1.5134  0.3240  0.6303
 9567TIP3    H250193   4.221   6.493  13.165  1.5366 -0.3971  1.7269
 9568TIP3   OH250194   3.076   3.697   2.831 -0.0223  0.0951 -0.5731
 9568TIP3    H150195   3.034   3.621   2.871  0.5225  0.6372  1.0663
 9568TIP3    H250196   3.011   3.767   2.837  0.8675  0.8017  1.5214
 9569TIP3   OH250197   0.735   2.767  14.130  0.2579 -0.2420 -0.0722
 9569TIP3    H150198   0.736   2.844  14.186  2.1595 -1.4357  1.6267
 9569TIP3    H250199   0.682   2.703  14.178  1.7058 -1.1937  0.3149
 9570TIP3   OH250200   6.216   5.957  16.903 -0.5527  0.4348 -0.0659
 9570TIP3    H150201   6.277   6.028  16.924 -1.5473  1.8297 -1.7047
 9570TIP3    H250202   6.256   5.912  16.829 -0.9725  0.6733 -0.4422
 9571TIP3   OH250203   2.367   6.213  14.438  0.2824  0.1814 -0.5974
 9571TIP3    H150204   2.357   6.163  14.519 -4.5133  2.7127  0.6076
 9571TIP3    H250205   2.290   6.190  14.386 -0.5971  4.1149 -1.1697
 9572TIP3   OH250206   5.569   3.807  15.503  0.3450 -0.2548  0.4571
 9572TIP3    H150207   5.474   3.811  15.516  0.3561  0.5445  0.2998
 9572TIP3    H250208   5.593   3.895  15.474  1.1699 -0.3882  0.7277
 9573TIP3   OH250209   0.633   0.989   2.372 -0.1428 -0.1802  0.1181
 9573TIP3    H150210   0.592   1.063   2.418 -0.7109  0.9455 -2.1491
 9573TIP3    H250211   0.726   1.012   2.369 -0.4609  0.9927 -1.5150
 9574TIP3   OH250212   4.067   6.195   2.709 -0.4169 -0.0070  0.0691
 9574TIP3    H150213   4.074   6.167   2.617  1.3141  1.1598 -0.1822
 9574TIP3    H250214   4.013   6.274   2.705  0.6178  0.6954 -0.0901
 9575TIP3   OH250215   4.337   0.616   3.026 -0.0312 -0.2680  0.5181
 9575TIP3    H150216   4.308   0.653   2.942  1.0362 -0.4401  0.0713
 9575TIP3    H250217   4.429   0.594   3.012  0.1217 -0.3935  1.7082
 9576TIP3   OH250218   3.767   6.393  14.784 -0.4414 -0.3512  0.0883
 9576TIP3    H150219   3.690   6.429  14.740  0.2863  1.1545  0.0138
 9576TIP3    H250220   3.841   6.431  14.738  0.3652 -1.6026  0.3171
 9577TIP3   OH250221   4.317   4.975   3.912 -0.2956  0.5813  0.1826
 9577TIP3    H150222   4.289   4.890   3.943  2.7129 -0.8592 -0.8468
 9577TIP3    H250223   4.365   5.013   3.986  0.2957  0.4114 -0.1111
 9578TIP3   OH250224   2.983   5.398   4.304  0.0453  0.0898  0.7697
 9578TIP3    H150225   2.953   5.419   4.215 -1.2767 -0.6016  1.0479
 9578TIP3    H250226   3.078   5.387   4.294 -0.2829 -1.6394 -0.8943
 9579TIP3   OH250227   0.086   4.263   0.768  0.4147  0.1377  0.2672
 9579TIP3    H150228   0.102   4.336   0.828  1.9097  0.5588 -0.6381
 9579TIP3    H250229   0.155   4.200   0.787  0.9310  0.2927 -1.0338
 9580TIP3   OH250230   3.637   6.478  16.741  0.1529  0.3369 -0.1774
 9580TIP3    H150231   3.679   6.564  16.743  0.4974  0.1406  1.6756
 9580TIP3    H250232   3.559   6.491  16.686  0.0519  1.8903  0.2939
 9581TIP3   OH250233   1.144   0.386   0.810 -0.2726 -0.2331 -0.0488
 9581TIP3    H150234   1.121   0.309   0.863 -0.8095 -0.5789 -0.7792
 9581TIP3    H250235   1.127   0.460   0.868 -0.6410 -0.6182  0.3442
 9582TIP3   OH250236   5.909   3.855  11.957 -0.5242 -0.2850  0.5852
 9582TIP3    H150237   5.990   3.878  11.911 -0.2391 -1.2000  0.6100
 9582TIP3    H250238   5.868   3.939  11.978  0.4256  0.1830  0.5792
 9583TIP3   OH250239   3.367   4.584   5.670 -0.2478  0.1672  0.2870
 9583TIP3    H150240   3.449   4.633   5.665 -1.4537  2.0188 -3.3543
 9583TIP3    H250241   3.303   4.647   5.704 -0.8286 -0.3240  0.1183
 9584TIP3   OH250242   3.490   4.839   1.651  0.1430  0.2239 -0.3021
 9584TIP3    H150243   3.460   4.928   1.666 -0.3845 -0.0044  0.0248
 9584TIP3    H250244   3.522   4.838   1.561 -1.1451  0.3862 -0.7662
 9585TIP3   OH250245   2.164   0.764  13.987  0.5402  0.0687  0.1087
 9585TIP3    H150246   2.107   0.825  13.940 -1.5838  0.5308  3.1513
 9585TIP3    H250247   2.131   0.678  13.963 -0.9048  0.3137  1.1399
 9586TIP3   OH250248   4.868   4.049   5.287 -0.4733  0.0978 -0.0856
 9586TIP3    H150249   4.907   4.060   5.373  0.8921  0.8475 -0.7921
 9586TIP3    H250250   4.872   3.954   5.271  0.5409  0.1127  0.0835
 9587TIP3   OH250251   1.017   4.974   4.935  0.3009 -0.0279  0.5738
 9587TIP3    H150252   1.093   5.021   4.900 -0.3633  0.4212 -0.2709
 9587TIP3    H250253   1.037   4.882   4.921  0.9522  0.0600  0.8941
 9588TIP3   OH250254   4.170   1.006  15.337 -0.2786  0.2383 -0.2317
 9588TIP3    H150255   4.182   0.921  15.379  1.1704  0.9592  0.8595
 9588TIP3    H250256   4.089   1.040  15.375  0.3895  0.3629  1.1344
 9589TIP3   OH250257   4.807   1.806   5.377 -0.3228 -0.5205  0.6915
 9589TIP3    H150258   4.714   1.816   5.354 -0.3843 -0.3935  1.0024
 9589TIP3    H250259   4.851   1.799   5.292 -0.5103  0.3334  0.5204
 9590TIP3   OH250260   2.898   4.982   3.884 -0.6956 -0.0631  0.2507
 9590TIP3    H150261   2.816   5.031   3.876 -0.3102  0.4186 -0.8327
 9590TIP3    H250262   2.962   5.035   3.837 -0.0702 -1.1391 -0.1208
 9591TIP3   OH250263   1.196   0.786  14.303  0.0455 -0.2139 -0.1776
 9591TIP3    H150264   1.212   0.741  14.220 -0.3131 -1.3778  0.3749
 9591TIP3    H250265   1.104   0.814  14.298 -0.1902 -0.9224  0.1195
 9592TIP3   OH250266   3.127   5.261  10.865 -0.3699 -0.5722 -0.5801
 9592TIP3    H150267   3.190   5.311  10.812  2.9138 -3.3547  0.5248
 9592TIP3    H250268   3.122   5.310  10.948 -0.4978  0.2311 -1.0534
 9593TIP3   OH250269   4.668   0.002  16.463  0.4676  0.6495 -0.5975
 9593TIP3    H150270   4.625   0.024  16.545  1.1977 -1.6164  0.4334
 9593TIP3    H250271   4.761   0.014  16.481  0.5320  2.0421 -1.7279
 9594TIP3   OH250272   0.497   5.596  14.370  0.2091 -0.2211  0.5475
 9594TIP3    H150273   0.582   5.635  14.352 -0.0633  0.0019 -0.2947
 9594TIP3    H250274   0.437   5.670  14.379 -0.0684 -0.4041  0.2245
 9595TIP3   OH250275   0.610   5.370  13.101  0.3736  0.5381  0.0610
 9595TIP3    H150276   0.551   5.308  13.144  0.2607 -1.0175 -2.2044
 9595TIP3    H250277   0.606   5.449  13.154 -2.1608 -0.2410  1.0869
 9596TIP3   OH250278   2.048   4.373  14.350 -0.3133  0.1164 -0.3387
 9596TIP3    H150279   1.976   4.436  14.348 -1.8120 -1.5160  0.9639
 9596TIP3    H250280   2.116   4.416  14.402 -1.2002  0.8060  0.2660
 9597TIP3   OH250281   0.827   6.376   4.034 -0.5322  0.0952 -0.0633
 9597TIP3    H150282   0.748   6.348   3.987 -0.3911  0.3202 -0.4394
 9597TIP3    H250283   0.893   6.387   3.965 -0.6976  1.7511  0.0262
 9598TIP3   OH250284   6.253   5.007  12.071  0.4075 -0.1211  0.0333
 9598TIP3    H150285   6.287   4.924  12.037  2.6644 -0.2124  2.3279
 9598TIP3    H250286   6.159   4.993  12.080  0.7317 -2.3766  0.2064
 9599TIP3   OH250287   6.568   5.297  15.560 -0.0503  0.0563  0.0691
 9599TIP3    H150288   6.632   5.232  15.529 -0.3710  0.9506 -2.5266
 9599TIP3    H250289   6.577   5.370  15.500 -4.1849 -0.1739 -0.9330
 9600TIP3   OH250290   0.124   2.819  13.957  0.2719 -0.1639 -0.0867
 9600TIP3    H150291   0.077   2.864  13.886 -0.2221  0.0278  0.3621
 9600TIP3    H250292   0.160   2.891  14.010  2.9383 -0.2801 -1.6408
 9601TIP3   OH250293   1.554   5.867   2.909  0.2276  0.0671 -0.1716
 9601TIP3    H150294   1.639   5.832   2.881  0.2144 -0.4563  0.4464
 9601TIP3    H250295   1.493   5.838   2.842  0.4041 -0.2027 -0.2167
 9602TIP3   OH250296   3.093   0.185   3.085  0.4673  0.2043  0.0790
 9602TIP3    H150297   3.169   0.218   3.037 -0.1472  2.8458  0.8328
 9602TIP3    H250298   3.126   0.109   3.132  2.2478  0.3728 -0.8566
 9603TIP3   OH250299   3.058   1.037   4.465  0.4794 -0.1720 -0.0155
 9603TIP3    H150300   3.099   1.051   4.551 -0.0924  1.5242 -0.0185
 9603TIP3    H250301   2.966   1.021   4.485  0.1744  1.1364 -0.3840
 9604TIP3   OH250302   0.250   1.690   4.598  0.5439  0.1587  0.9688
 9604TIP3    H150303   0.292   1.649   4.673  0.1989  0.4700  1.3384
 9604TIP3    H250304   0.282   1.780   4.599  1.7772 -0.2543 -0.1989
 9605TIP3   OH250305   1.044   6.422  14.973 -0.3797 -0.4511 -0.4939
 9605TIP3    H150306   0.996   6.343  14.949 -0.1093 -1.3326  1.7766
 9605TIP3    H250307   1.131   6.410  14.935 -0.4827 -1.0427 -0.5489
 9606TIP3   OH250308   0.780   0.936  15.468  0.2131 -0.2789 -0.5029
 9606TIP3    H150309   0.799   0.849  15.501 -1.0050 -1.0934 -1.8706
 9606TIP3    H250310   0.721   0.921  15.394 -0.6893  1.7549 -0.2317
 9607TIP3   OH250311   1.620   4.605  16.438  0.9150  0.4832  0.2366
 9607TIP3    H150312   1.625   4.629  16.345 -0.2207 -0.4014 -0.0687
 9607TIP3    H250313   1.710   4.617  16.471  1.3023  0.8980 -0.9427
 9608TIP3   OH250314   1.602   4.555  13.331 -0.2503 -0.0610 -0.2972
 9608TIP3    H150315   1.609   4.547  13.426  1.5428 -0.7171 -0.4760
 9608TIP3    H250316   1.532   4.620  13.318  1.5555  2.3487  1.5272
 9609TIP3   OH250317   5.605   5.764  16.753 -0.4539  0.6530  0.4326
 9609TIP3    H150318   5.654   5.683  16.769  0.9384  1.1394 -1.2173
 9609TIP3    H250319   5.566   5.753  16.667  0.8097  2.2231 -0.3736
 9610TIP3   OH250320   1.064   0.128  12.398  0.0826 -0.5200 -0.1090
 9610TIP3    H150321   1.087   0.213  12.436  0.8390 -0.0675 -1.5489
 9610TIP3    H250322   1.030   0.150  12.311 -1.9253 -1.5138  0.4079
 9611TIP3   OH250323   3.062   6.120   6.265 -0.3664  0.1558 -0.2950
 9611TIP3    H150324   3.121   6.056   6.305 -0.7242 -0.2318 -0.3800
 9611TIP3    H250325   3.118   6.195   6.244 -0.1958  0.3994  1.0098
 9612TIP3   OH250326   4.676   4.765  12.468  0.4092  0.0058  0.4305
 9612TIP3    H150327   4.663   4.714  12.388  0.2906  0.6911  0.0092
 9612TIP3    H250328   4.758   4.733  12.505  0.8437  0.2045 -0.3597
 9613TIP3   OH250329   3.054   1.384  16.188  0.6372 -0.8535 -0.4310
 9613TIP3    H150330   2.973   1.336  16.170  0.6534 -1.0372 -0.0069
 9613TIP3    H250331   3.085   1.410  16.101 -0.2277 -0.2026 -0.5492
 9614TIP3   OH250332   5.762   2.994   4.894 -0.5687  0.8092 -0.7426
 9614TIP3    H150333   5.789   3.028   4.979 -0.4364 -0.4549 -0.2665
 9614TIP3    H250334   5.807   3.051   4.831  2.3704 -0.5350  0.0369
 9615TIP3   OH250335   2.687   6.098  16.061  0.1374 -0.3639  0.1980
 9615TIP3    H150336   2.671   6.183  16.101 -0.7551 -0.8109  0.8164
 9615TIP3    H250337   2.734   6.048  16.127 -0.1797 -0.6659  0.2020
 9616TIP3   OH250338   3.263   1.476   1.579  0.5161 -0.1693 -0.2977
 9616TIP3    H150339   3.190   1.415   1.566 -0.1674  0.7346 -0.7766
 9616TIP3    H250340   3.334   1.439   1.527  0.7312 -1.6200  1.0196
 9617TIP3   OH250341   6.642   1.061  16.762 -0.0466 -0.5498  0.0433
 9617TIP3    H150342   6.677   1.088  16.677  1.5044 -1.6230  0.3081
 9617TIP3    H250343   6.685   1.118  16.825 -1.8111  0.7919  0.0619
 9618TIP3   OH250344   4.051   1.408   0.606 -0.1651  0.5705  0.4263
 9618TIP3    H150345   3.989   1.336   0.599  0.5988  0.0980 -1.7109
 9618TIP3    H250346   4.019   1.474   0.543  0.6675  0.9387  0.3783
 9619TIP3   OH250347   2.945   5.022  11.164 -0.6576 -0.3444  0.2222
 9619TIP3    H150348   2.867   4.974  11.194  0.8127 -2.2905  1.0218
 9619TIP3    H250349   2.982   4.967  11.095  1.4632 -0.7859  1.6530
 9620TIP3   OH250350   0.257   5.463  13.794  0.0346  0.0937  0.4994
 9620TIP3    H150351   0.165   5.486  13.779 -0.4518 -2.2022 -0.1733
 9620TIP3    H250352   0.297   5.463  13.707 -0.2280 -2.5380  0.3448
 9621TIP3   OH250353   0.668   5.715  11.462 -0.8034 -0.0788  0.6518
 9621TIP3    H150354   0.746   5.660  11.454  0.1320  1.1900  0.8998
 9621TIP3    H250355   0.602   5.658  11.501 -0.6783 -1.8155 -1.5480
 9622TIP3   OH250356   0.127   4.936   5.355 -0.5732  0.6524  0.0969
 9622TIP3    H150357   0.104   4.911   5.265 -0.8837  0.1536  0.3093
 9622TIP3    H250358   0.125   4.853   5.404  1.3196  0.6707  0.2083
 9623TIP3   OH250359   5.599   5.992  15.930 -0.1824  0.0582  0.1381
 9623TIP3    H150360   5.691   5.997  15.955  0.1088 -0.2153 -0.8650
 9623TIP3    H250361   5.562   6.077  15.955  0.5934  0.5756 -0.4566
 9624TIP3   OH250362   0.129   0.499  14.291  0.6242 -0.4795  0.2250
 9624TIP3    H150363   0.077   0.545  14.358  0.5465 -0.8485  0.4178
 9624TIP3    H250364   0.124   0.556  14.214 -0.3741 -0.6975  0.1246
 9625TIP3   OH250365   1.575   0.418   0.573  0.6767  0.5503  0.6569
 9625TIP3    H150366   1.505   0.365   0.612  0.7447  0.9584  1.3369
 9625TIP3    H250367   1.627   0.447   0.648 -0.3500  2.9901  0.4672
 9626TIP3   OH250368   5.177   5.534   4.461  0.2861  0.1449 -0.1775
 9626TIP3    H150369   5.183   5.532   4.365  0.7808  0.8689 -0.1666
 9626TIP3    H250370   5.104   5.475   4.482 -1.3152  1.7276 -1.1350
 9627TIP3   OH250371   2.649   0.065  16.594 -0.4888  0.5068 -0.1813
 9627TIP3    H150372   2.737   0.084  16.626 -0.8111  1.0670  0.3702
 9627TIP3    H250373   2.653  -0.027  16.566  0.2965  0.5620 -0.2617
 9628TIP3   OH250374   1.706   2.213  17.237 -0.0589 -0.4364 -0.4093
 9628TIP3    H150375   1.698   2.293  17.185 -0.1560  0.2130  0.5807
 9628TIP3    H250376   1.690   2.142  17.175 -0.9994  0.3523 -1.0868
 9629TIP3   OH250377   4.076   1.056   2.507  0.2950 -0.5137  0.1786
 9629TIP3    H150378   4.055   1.080   2.417  0.5295 -0.7889  0.0538
 9629TIP3    H250379   4.038   0.969   2.518  0.4825 -0.5825  0.2716
 9630TIP3   OH250380   2.367   0.619   4.686 -0.4024 -0.3070  0.5056
 9630TIP3    H150381   2.380   0.532   4.725  1.5170 -0.4584 -0.4124
 9630TIP3    H250382   2.277   0.643   4.709 -1.6427 -3.3713 -0.8565
 9631TIP3   OH250383   3.660   5.412   4.279  0.5686  0.2569 -0.4226
 9631TIP3    H150384   3.746   5.369   4.278 -0.1975 -1.3665  0.7686
 9631TIP3    H250385   3.608   5.363   4.216  0.2395  0.6582 -0.4649
 9632TIP3   OH250386   1.966   6.569   1.405 -0.3510 -0.0234 -0.1857
 9632TIP3    H150387   1.915   6.650   1.410  1.5381  1.1075  1.6982
 9632TIP3    H250388   1.984   6.546   1.497  1.4089 -1.0903 -0.7718
 9633TIP3   OH250389   4.085   1.741   3.027  0.0695 -0.0946  0.2129
 9633TIP3    H150390   4.170   1.713   3.061 -0.2530 -1.6067 -0.2161
 9633TIP3    H250391   4.104   1.825   2.984  1.3178 -0.3550  0.2347
 9634TIP3   OH250392   3.314   5.175   6.108 -0.5802  0.0648 -0.0362
 9634TIP3    H150393   3.254   5.233   6.060  1.4606  1.3589 -1.1194
 9634TIP3    H250394   3.401   5.201   6.076  0.5456 -1.6977  1.5765
 9635TIP3   OH250395   2.206   5.147  16.792  0.1284 -0.1990  0.0475
 9635TIP3    H150396   2.243   5.113  16.873  0.3179  0.0566  0.0678
 9635TIP3    H250397   2.152   5.221  16.819 -1.3848 -1.3141  0.1647
 9636TIP3   OH250398   2.241   6.452  10.748  0.0635 -0.6547  0.6165
 9636TIP3    H150399   2.226   6.372  10.798 -0.0933 -2.0310 -1.5701
 9636TIP3    H250400   2.196   6.437  10.665 -0.7886  2.1034  0.5351
 9637TIP3   OH250401   1.620   6.095   0.332  0.0361 -0.0909 -1.0592
 9637TIP3    H150402   1.681   6.159   0.294  0.3909  0.3131  0.1494
 9637TIP3    H250403   1.632   6.016   0.279  2.1790 -0.2659 -0.3842
 9638TIP3   OH250404   4.751   3.039  16.812  0.1968  0.5383  0.7278
 9638TIP3    H150405   4.806   3.096  16.759  1.0033 -0.1076  0.8468
 9638TIP3    H250406   4.672   3.089  16.829 -0.5927  0.3202 -2.0901
 9639TIP3   OH250407   4.001   0.993   0.166  0.3892 -0.4079  0.2369
 9639TIP3    H150408   3.950   1.019   0.089 -1.9917 -0.8852  1.5892
 9639TIP3    H250409   4.019   1.076   0.211  1.1786 -0.1934 -0.4782
 9640TIP3   OH250410   5.181   5.856   2.111 -0.0960  0.0753  0.1743
 9640TIP3    H150411   5.209   5.862   2.020  1.8780  0.5996  0.7916
 9640TIP3    H250412   5.088   5.833   2.106  0.2330 -0.9020 -1.9467
 9641TIP3   OH250413   1.593   3.361   2.164 -0.2424 -0.0507  0.3162
 9641TIP3    H150414   1.537   3.349   2.087  1.0921  1.2280 -0.8737
 9641TIP3    H250415   1.673   3.400   2.130  1.4638 -1.9780  1.9741
 9642TIP3   OH250416   1.462   4.260   4.096  0.2590 -0.1069 -0.3742
 9642TIP3    H150417   1.527   4.206   4.141 -0.6559  0.3129  1.5077
 9642TIP3    H250418   1.452   4.219   4.010  0.2187 -2.3996  0.7015
 9643TIP3   OH250419   4.362   6.201  10.909  0.1700  0.3469 -0.0274
 9643TIP3    H150420   4.354   6.112  10.876  0.7702  0.3718 -0.2517
 9643TIP3    H250421   4.296   6.251  10.861  0.0237  0.0826 -0.1012
 9644TIP3   OH250422   3.027   0.882  16.147 -0.0379 -0.4634 -0.0562
 9644TIP3    H150423   3.070   0.813  16.197  0.4347  0.1440  0.4011
 9644TIP3    H250424   3.056   0.870  16.057 -0.9461 -1.6105 -0.2102
 9645TIP3   OH250425   4.607   1.367  14.535  0.3676 -0.2044 -0.1998
 9645TIP3    H150426   4.573   1.287  14.494  0.4065  1.0871 -2.8672
 9645TIP3    H250427   4.694   1.342  14.567  0.5593 -1.1272 -1.3999
 9646TIP3   OH250428   2.619   0.954   5.467 -0.3595  0.5877  0.2122
 9646TIP3    H150429   2.656   0.974   5.553 -0.4556  0.1686  0.3487
 9646TIP3    H250430   2.561   0.880   5.482  2.2754 -1.8024 -0.8208
 9647TIP3   OH250431   3.636   0.666   0.681  0.5485  0.1183 -0.3492
 9647TIP3    H150432   3.660   0.742   0.735 -0.1063 -0.5489  0.9041
 9647TIP3    H250433   3.677   0.592   0.726 -0.3514 -0.4938 -0.5449
 9648TIP3   OH250434   1.166   6.781   5.226 -0.2088 -0.0134 -0.0599
 9648TIP3    H150435   1.129   6.805   5.310  1.7839  0.0453  0.8367
 9648TIP3    H250436   1.232   6.714   5.247  0.5366  0.2356 -1.5136
 9649TIP3   OH250437   5.559   0.839   5.777 -0.0286  0.3905 -0.0539
 9649TIP3    H150438   5.503   0.909   5.810 -0.6850  0.2022 -0.7612
 9649TIP3    H250439   5.499   0.779   5.733  0.7472  0.2646 -0.9470
 9650TIP3   OH250440   6.327   0.226   0.440 -0.0530  0.0492  0.2994
 9650TIP3    H150441   6.326   0.155   0.375  0.1637 -0.2915  0.6708
 9650TIP3    H250442   6.234   0.241   0.460 -0.0399 -0.9679  1.1425
 9651TIP3   OH250443   5.385   1.398   2.248 -0.5181  0.8286  0.0718
 9651TIP3    H150444   5.480   1.408   2.245 -0.5517  1.6466  1.5692
 9651TIP3    H250445   5.367   1.324   2.189  0.9687  1.0915 -0.7301
 9652TIP3   OH250446   3.952   1.931   5.270 -0.6306  0.0887 -0.0437
 9652TIP3    H150447   3.919   1.949   5.358 -1.1301  1.5052 -0.4950
 9652TIP3    H250448   3.915   1.846   5.247 -0.4475 -0.3197  1.1345
 9653TIP3   OH250449   6.199   5.109   5.621  0.2038 -0.3201 -0.2811
 9653TIP3    H150450   6.141   5.104   5.697  1.5081 -3.2652  0.6031
 9653TIP3    H250451   6.275   5.159   5.652  0.3796 -0.8240  0.0982
 9654TIP3   OH250452   6.499   5.936   1.527 -0.0262  0.6329  0.4266
 9654TIP3    H150453   6.515   5.847   1.556  1.6628  1.2272  1.4320
 9654TIP3    H250454   6.488   5.986   1.608  1.8263  1.8038 -0.0082
 9655TIP3   OH250455   2.993   6.526  14.841  0.3361  0.0897  0.0489
 9655TIP3    H150456   3.072   6.510  14.789  0.5544 -0.4822  0.5536
 9655TIP3    H250457   3.022   6.515  14.932  0.2135  2.1083  0.3546
 9656TIP3   OH250458   1.289   1.775   5.700 -0.6309  0.5225  0.0147
 9656TIP3    H150459   1.353   1.832   5.743 -0.4526  0.5459 -0.2753
 9656TIP3    H250460   1.321   1.768   5.609 -1.2798  0.8826 -0.2420
 9657TIP3   OH250461   6.249   1.058  16.203 -0.1508  0.0310  0.0335
 9657TIP3    H150462   6.215   0.999  16.270  0.4788 -0.4008 -0.0114
 9657TIP3    H250463   6.344   1.048  16.209 -0.0806  0.1129 -0.8013
 9658TIP3   OH250464   1.363   6.669  14.717 -0.2308 -0.0318  0.6097
 9658TIP3    H150465   1.405   6.589  14.686  0.4359  0.5662 -0.0272
 9658TIP3    H250466   1.415   6.696  14.792 -0.0660  0.1673  0.4234
 9659TIP3   OH250467   4.043   3.936   4.789  0.1570  0.2779 -0.0607
 9659TIP3    H150468   4.015   4.014   4.742 -1.2647 -0.4478 -0.4508
 9659TIP3    H250469   4.073   3.876   4.721 -0.8114 -0.3304  0.0345
 9660TIP3   OH250470   1.794   0.423  13.682 -0.9811 -0.5152  0.6333
 9660TIP3    H150471   1.785   0.345  13.627 -2.1888 -0.5688  0.8992
 9660TIP3    H250472   1.705   0.444  13.710 -0.5900  0.5670  1.1173
 9661TIP3   OH250473   0.955   4.098   5.246  0.3209 -0.1164 -0.3348
 9661TIP3    H150474   0.888   4.136   5.189  1.0184  0.3134 -0.8858
 9661TIP3    H250475   0.910   4.029   5.294 -0.4745  0.0556 -0.8261
 9662TIP3   OH250476   6.477   2.622   0.930  0.1675  0.4648  0.4223
 9662TIP3    H150477   6.493   2.597   0.840 -0.4989  1.9826 -0.1413
 9662TIP3    H250478   6.430   2.547   0.968  1.4017 -0.6225 -0.1630
 9663TIP3   OH250479   6.757   6.051   5.779 -0.2208  0.0626 -0.2040
 9663TIP3    H150480   6.707   6.026   5.702 -0.2425 -1.3283  0.2497
 9663TIP3    H250481   6.730   5.989   5.847  2.8614 -1.4365 -0.2395
 9664TIP3   OH250482   4.531   5.578  10.387 -0.0053 -0.0566 -0.0032
 9664TIP3    H150483   4.620   5.613  10.378 -0.1295  0.5043  0.8200
 9664TIP3    H250484   4.541   5.504  10.448 -0.0901 -0.0257  0.0483
 9665TIP3   OH250485   1.857   3.895   4.108 -0.0004  0.2349  1.1098
 9665TIP3    H150486   1.763   3.878   4.111  0.2412 -1.2000  0.6691
 9665TIP3    H250487   1.885   3.864   4.022  1.1547 -0.8203  1.8521
 9666TIP3   OH250488   3.600   0.746   1.018 -0.6379 -0.4236 -0.0376
 9666TIP3    H150489   3.513   0.780   1.039 -0.7652 -1.0755  0.4987
 9666TIP3    H250490   3.594   0.652   1.038  0.9491 -0.0402  2.4221
 9667TIP3   OH250491   5.486   3.513   1.130  0.3133 -0.1005  0.1628
 9667TIP3    H150492   5.473   3.426   1.091 -2.3743  1.3933 -2.5296
 9667TIP3    H250493   5.544   3.558   1.069 -0.9557  1.0333 -0.2449
 9668TIP3   OH250494   5.192   4.449  11.627 -0.2125  0.4632 -0.3236
 9668TIP3    H150495   5.268   4.483  11.579  1.0239 -1.5877  0.1215
 9668TIP3    H250496   5.203   4.480  11.716  1.0872 -1.3152  0.1579
 9669TIP3   OH250497   2.277   1.156   4.437  0.0324  0.1018 -0.1140
 9669TIP3    H150498   2.303   1.179   4.526 -0.8708 -0.9913  0.4461
 9669TIP3    H250499   2.191   1.116   4.448 -0.4650  0.7582 -1.5774
 9670TIP3   OH250500   0.250   5.265   0.063 -0.0052 -0.4944  0.1119
 9670TIP3    H150501   0.339   5.294   0.046 -0.6850  1.4070 -0.2442
 9670TIP3    H250502   0.216   5.241  -0.024 -0.9333  1.9525 -0.2253
 9671TIP3   OH250503   2.489   2.108  12.978 -0.0906 -0.2416  0.5173
 9671TIP3    H150504   2.450   2.034  12.931 -2.0138  1.1814 -0.1659
 9671TIP3    H250505   2.442   2.110  13.061 -0.3099  0.4530  0.3742
 9672TIP3   OH250506   2.304   1.189   0.621 -0.1164 -0.1998  0.1601
 9672TIP3    H150507   2.335   1.132   0.550 -2.0560 -0.5048 -0.4743
 9672TIP3    H250508   2.319   1.278   0.589 -1.1969 -0.3325 -0.7498
 9673TIP3   OH250509   4.405   4.838  10.644 -0.3057  0.5171  0.1574
 9673TIP3    H150510   4.441   4.750  10.632  0.9916  0.8797  1.2254
 9673TIP3    H250511   4.327   4.825  10.698 -0.0224  0.0213  0.4512
 9674TIP3   OH250512   1.874   1.809  11.599  0.0947  0.1465 -0.3919
 9674TIP3    H150513   1.889   1.761  11.517  1.1443 -1.9384  0.9727
 9674TIP3    H250514   1.920   1.758  11.665 -2.4387  0.6532  1.8644
 9675TIP3   OH250515   5.489   2.880   4.902  0.2941  0.4336  0.5182
 9675TIP3    H150516   5.500   2.948   4.835  0.8193  0.3699  0.5391
 9675TIP3    H250517   5.578   2.861   4.932  0.2140 -0.8107 -0.0202
 9676TIP3   OH250518   1.953   4.207   0.757  0.1096 -0.1801 -0.3466
 9676TIP3    H150519   2.023   4.142   0.757  0.8270  0.5664 -2.0563
 9676TIP3    H250520   1.897   4.181   0.684  0.3334  1.0363 -0.9645
 9677TIP3   OH250521   0.631   2.528   3.250  0.5480  0.1311  0.1241
 9677TIP3    H150522   0.619   2.452   3.308  1.6663  1.7065  2.4946
 9677TIP3    H250523   0.547   2.539   3.206  0.4307 -2.5920 -0.4138
 9678TIP3   OH250524   3.392   2.356  13.451 -0.2392 -0.1769 -0.3462
 9678TIP3    H150525   3.455   2.310  13.508  0.8615  1.5415 -0.1345
 9678TIP3    H250526   3.310   2.310  13.464  0.5363 -1.2476  0.8902
 9679TIP3   OH250527   0.073   5.075   0.632 -0.2575 -0.4360  0.1711
 9679TIP3    H150528   0.162   5.044   0.648 -0.4695 -1.4422 -0.5926
 9679TIP3    H250529   0.017   5.004   0.663 -0.7433 -0.9876 -1.9239
 9680TIP3   OH250530   1.134   3.444   0.256  0.4986 -0.5532 -0.0708
 9680TIP3    H150531   1.169   3.381   0.193  0.8937  0.5362 -0.9634
 9680TIP3    H250532   1.145   3.402   0.341 -0.0003 -2.0334 -0.7186
 9681TIP3   OH250533   2.363   0.749  13.101 -0.5418 -0.1707  0.6825
 9681TIP3    H150534   2.361   0.661  13.140  0.0612 -0.0860  0.9051
 9681TIP3    H250535   2.447   0.754  13.057 -0.8645  0.0545  0.0975
 9682TIP3   OH250536   6.069   0.633  17.134  0.1617 -0.4074 -0.1633
 9682TIP3    H150537   6.072   0.729  17.128  1.1842 -0.3487  1.1518
 9682TIP3    H250538   6.107   0.603  17.052  0.6818  0.3204 -0.1985
 9683TIP3   OH250539   6.630   5.947   2.876  0.0928  0.2617 -0.0021
 9683TIP3    H150540   6.564   5.924   2.811 -0.1392 -1.3327  0.7739
 9683TIP3    H250541   6.600   5.907   2.957  0.2905  2.3935  1.1564
 9684TIP3   OH250542   5.543   2.619   3.630 -0.1950 -0.2128 -0.3760
 9684TIP3    H150543   5.543   2.557   3.558 -1.0336  0.3310 -0.8461
 9684TIP3    H250544   5.459   2.664   3.624  0.2961  0.7893  0.1112
 9685TIP3   OH250545   6.769   5.298  14.820  0.4370  0.1700  0.1748
 9685TIP3    H150546   6.677   5.282  14.803  0.7408 -0.8140 -0.5487
 9685TIP3    H250547   6.808   5.310  14.733  0.7756  1.7718  0.5370
 9686TIP3   OH250548   4.453   1.679  15.320  0.0010  0.0440 -0.5222
 9686TIP3    H150549   4.374   1.675  15.267 -0.1660  1.1183 -0.3717
 9686TIP3    H250550   4.450   1.766  15.362  0.2739 -0.6539  0.9918
 9687TIP3   OH250551   4.938   1.843   3.498  0.1757 -0.0085  0.2470
 9687TIP3    H150552   5.006   1.849   3.566  2.5940  4.0526 -2.2765
 9687TIP3    H250553   4.987   1.827   3.417 -2.1066  0.6962 -1.3118
 9688TIP3   OH250554   5.109   4.499  16.005 -0.2115 -0.6492 -0.2067
 9688TIP3    H150555   5.201   4.480  15.988  0.2257  0.3050  1.0081
 9688TIP3    H250556   5.077   4.423  16.054 -0.2373 -1.2542 -1.1536
 9689TIP3   OH250557   5.228   0.255  16.841  0.3529  0.6810  0.4310
 9689TIP3    H150558   5.234   0.160  16.840 -0.2198  0.6327 -1.5582
 9689TIP3    H250559   5.309   0.284  16.798  0.3762  1.0678  0.7388
 9690TIP3   OH250560   2.467   5.947   6.493 -0.3451  0.5759  0.3958
 9690TIP3    H150561   2.478   6.041   6.480  0.0627  0.6920  1.5330
 9690TIP3    H250562   2.530   5.908   6.433 -2.4886  0.9389 -2.1540
 9691TIP3   OH250563   2.051   6.616   6.357  0.0473  0.7090 -0.0688
 9691TIP3    H150564   2.073   6.677   6.287 -1.5382 -0.0345 -1.2199
 9691TIP3    H250565   2.112   6.543   6.345  0.1440  0.8315 -0.3164
 9692TIP3   OH250566   6.605   4.753  13.013  0.0759  0.2307  0.0412
 9692TIP3    H150567   6.579   4.845  13.021 -0.4011 -0.0078  1.2814
 9692TIP3    H250568   6.590   4.732  12.920  0.4417  1.4711 -0.3144
 9693TIP3   OH250569   6.364   4.258   0.358 -0.0780  0.3837 -0.0307
 9693TIP3    H150570   6.377   4.166   0.382  0.4749  0.6864  0.8623
 9693TIP3    H250571   6.400   4.265   0.270  2.1701  0.2906  0.8494
 9694TIP3   OH250572   3.157   6.531   2.473 -0.2439 -0.4217 -0.1979
 9694TIP3    H150573   3.216   6.552   2.546 -1.0562 -0.4817  0.4730
 9694TIP3    H250574   3.206   6.558   2.395 -0.4362  2.0650  0.5176
 9695TIP3   OH250575   1.271   6.605   4.738 -0.1728  0.4598  0.2658
 9695TIP3    H150576   1.338   6.571   4.798  0.8179  2.7369  0.5023
 9695TIP3    H250577   1.317   6.671   4.686 -1.5882  0.0905 -1.4784
 9696TIP3   OH250578   2.977   0.376   1.692  0.6227 -0.3693 -0.1266
 9696TIP3    H150579   2.929   0.311   1.743  0.2745  0.4634  0.6289
 9696TIP3    H250580   2.912   0.415   1.634  0.6484 -0.1209  0.0088
 9697TIP3   OH250581   6.118   4.752   3.378  0.3148  0.6254 -0.3178
 9697TIP3    H150582   6.138   4.693   3.305  1.2515 -1.2061  1.3757
 9697TIP3    H250583   6.030   4.784   3.360  0.3193 -0.2571 -1.9648
 9698TIP3   OH250584   5.083   4.578   0.633  0.0482 -0.2629  0.5429
 9698TIP3    H150585   5.133   4.503   0.600  1.4085  0.1226  1.7237
 9698TIP3    H250586   5.030   4.605   0.558  1.5491 -0.7141 -0.7152
 9699TIP3   OH250587   6.509   1.521  14.243  0.3215  0.1239 -0.5195
 9699TIP3    H150588   6.490   1.427  14.236  0.5826 -0.2095  2.3081
 9699TIP3    H250589   6.470   1.559  14.165 -0.0661 -2.3057 -1.5746
 9700TIP3   OH250590   2.167   0.056  13.148  0.3598 -0.3695  0.1356
 9700TIP3    H150591   2.192  -0.028  13.109 -0.6979  0.5406 -2.5979
 9700TIP3    H250592   2.247   0.089  13.188  1.5459 -1.2687 -1.4476
 9701TIP3   OH250593   2.185   4.923   4.972 -0.2112 -0.3725  0.2311
 9701TIP3    H150594   2.150   4.873   5.046 -3.3963 -0.0293 -0.9784
 9701TIP3    H250595   2.144   5.009   4.979 -0.3752 -0.2555 -1.7715
 9702TIP3   OH250596   4.261   2.244  12.292  0.3002  0.7275 -0.2308
 9702TIP3    H150597   4.178   2.201  12.314  0.3848  0.1348 -1.0227
 9702TIP3    H250598   4.250   2.270  12.201  1.2680 -0.0662 -0.5865
 9703TIP3   OH250599   1.698   1.671   5.245  0.4339  0.3970  0.5232
 9703TIP3    H150600   1.689   1.588   5.291  1.5980 -0.4144 -0.6544
 9703TIP3    H250601   1.760   1.721   5.297  0.5273  0.1090  0.6917
 9704TIP3   OH250602   0.797   5.085  13.267  0.0799 -0.0329  0.3435
 9704TIP3    H150603   0.833   5.152  13.210  1.5672 -1.0690  0.0355
 9704TIP3    H250604   0.735   5.131  13.323  3.2366  2.1695  2.1672
 9705TIP3   OH250605   4.651   5.065   4.996 -0.6454  0.4514  0.1857
 9705TIP3    H150606   4.607   5.064   4.911 -0.2336  1.0477 -0.0369
 9705TIP3    H250607   4.582   5.084   5.059 -0.8215  0.7666 -0.0980
 9706TIP3   OH250608   1.017   3.983   6.058 -0.1971  0.1281  0.0449
 9706TIP3    H150609   0.979   3.924   5.992  2.4276  0.7978 -2.1347
 9706TIP3    H250610   1.014   4.069   6.018  0.3453  0.7397  1.3015
 9707TIP3   OH250611   6.215   0.302  17.225  0.0484 -0.5306 -0.3422
 9707TIP3    H150612   6.249   0.336  17.308 -0.4219 -0.0822 -0.3335
 9707TIP3    H250613   6.164   0.225  17.250 -0.2494 -0.2864 -0.1946
 9708TIP3   OH250614   1.583   4.278   5.945  0.2615 -0.3069  0.1121
 9708TIP3    H150615   1.640   4.225   6.001 -0.5714 -0.8045  0.4963
 9708TIP3    H250616   1.536   4.215   5.891  1.4444  0.1914 -1.5586
 9709TIP3   OH250617   1.527   6.639   4.956 -0.1976 -0.2290  0.4346
 9709TIP3    H150618   1.506   6.712   5.013  2.9978 -1.0543  2.7536
 9709TIP3    H250619   1.528   6.563   5.014  0.1384 -1.5538 -1.2771
 9710TIP3   OH250620   3.130   4.560  16.065  0.3571 -0.3703  0.1899
 9710TIP3    H150621   3.166   4.562  16.154 -1.6255 -1.3652  1.0270
 9710TIP3    H250622   3.058   4.497  16.069 -0.6681  0.6294 -1.7736
 9711TIP3   OH250623   0.267   4.804  16.318 -0.1454  0.3562  0.5429
 9711TIP3    H150624   0.360   4.807  16.341  0.3116 -0.2954 -1.1774
 9711TIP3    H250625   0.236   4.720  16.353  0.6732 -0.8781 -1.5915
 9712TIP3   OH250626   4.330   4.927   3.353  0.1744  0.4193  0.5504
 9712TIP3    H150627   4.287   4.843   3.333  3.1373 -0.7972 -1.0059
 9712TIP3    H250628   4.276   4.992   3.310 -0.9617 -0.9080 -0.0734
 9713TIP3   OH250629   0.895   4.484   1.778 -0.0116  0.7899 -0.2082
 9713TIP3    H150630   0.902   4.399   1.733 -0.4687 -0.3244  1.7844
 9713TIP3    H250631   0.822   4.474   1.838  1.1965  1.9101  1.5052
 9714TIP3   OH250632   6.264   3.370   3.699 -0.0231 -0.5452 -0.7228
 9714TIP3    H150633   6.266   3.400   3.608 -0.4271  0.7668 -0.3084
 9714TIP3    H250634   6.171   3.353   3.716  0.0988 -1.1750 -0.6760
 9715TIP3   OH250635   3.919   1.345  16.694  0.0907 -0.1621  0.2765
 9715TIP3    H150636   3.847   1.292  16.660 -0.3247 -0.1476  1.1298
 9715TIP3    H250637   3.878   1.402  16.759  0.8173  0.0562  0.5403
 9716TIP3   OH250638   1.056   0.526  11.314 -0.2190 -0.3442  0.3012
 9716TIP3    H150639   1.066   0.471  11.236 -0.5193 -0.2609  0.2034
 9716TIP3    H250640   1.093   0.610  11.289 -0.4629 -0.2689  0.1947
 9717TIP3   OH250641   2.342   5.091  17.031  0.2483 -0.1536 -0.2182
 9717TIP3    H150642   2.408   5.113  16.965 -1.5043  1.1154 -1.6127
 9717TIP3    H250643   2.374   5.130  17.112  1.2867  0.3086 -0.8410
 9718TIP3   OH250644   3.942   5.521  12.915 -0.0701 -0.1101 -0.5011
 9718TIP3    H150645   3.889   5.547  12.990 -0.7137 -1.6066 -0.4168
 9718TIP3    H250646   4.026   5.564  12.929 -0.2872 -0.1134  0.9091
 9719TIP3   OH250647   0.569   1.210   6.867  0.6669 -0.6458  0.5648
 9719TIP3    H150648   0.613   1.185   6.786  2.0315  1.3934  0.6275
 9719TIP3    H250649   0.640   1.238   6.925 -0.3904 -1.0709  2.0964
 9720TIP3   OH250650   1.254   0.175  16.024  0.0345 -0.3389 -0.4786
 9720TIP3    H150651   1.204   0.255  16.039 -1.4293 -1.4065  0.3943
 9720TIP3    H250652   1.193   0.116  15.980  1.2269 -0.8669 -1.4801
 9721TIP3   OH250653   4.925   3.291  14.698  0.0620  0.5963 -0.2561
 9721TIP3    H150654   4.933   3.294  14.793 -0.6118  1.4683 -0.2124
 9721TIP3    H250655   4.831   3.279  14.683  0.2304 -0.0267 -0.8015
 9722TIP3   OH250656   3.085   2.001  13.754  0.2537 -0.2189  0.3481
 9722TIP3    H150657   3.128   1.946  13.820 -0.6467  0.8819  1.9021
 9722TIP3    H250658   3.142   2.077  13.745 -0.2242  0.1956  0.7622
 9723TIP3   OH250659   5.759   5.264  14.039 -0.3115  0.3878  0.0920
 9723TIP3    H150660   5.846   5.226  14.055 -0.4704  0.1693  0.4571
 9723TIP3    H250661   5.726   5.284  14.127 -0.9954 -0.3589  0.0126
 9724TIP3   OH250662   3.778   4.717  12.060 -0.1101 -1.0845 -0.0809
 9724TIP3    H150663   3.802   4.795  12.011  0.0719 -1.2361 -0.2335
 9724TIP3    H250664   3.812   4.734  12.149 -1.0023 -0.5320  0.1653
 9725TIP3   OH250665   1.318   0.966   5.486  0.4438  0.0087  0.0567
 9725TIP3    H150666   1.397   1.015   5.509 -0.7165  0.9499  2.1590
 9725TIP3    H250667   1.321   0.960   5.390  1.9050  2.0061 -0.0613
 9726TIP3   OH250668   2.294   6.178  13.386  0.4434  0.5311 -0.1630
 9726TIP3    H150669   2.238   6.156  13.461  2.9443 -2.3193  0.9724
 9726TIP3    H250670   2.381   6.148  13.412  1.9026  1.9747 -3.1711
 9727TIP3   OH250671   1.775   0.909   6.292 -0.2753  0.0599  0.1057
 9727TIP3    H150672   1.828   0.892   6.370  1.0944  0.1631 -0.7729
 9727TIP3    H250673   1.759   1.004   6.294 -0.5152  0.0110  0.4361
 9728TIP3   OH250674   6.370   0.052   5.810  0.1388  0.0601 -0.2790
 9728TIP3    H150675   6.280   0.046   5.843  0.2548  0.7561  0.1745
 9728TIP3    H250676   6.359   0.056   5.715 -0.2575 -0.8500 -0.2728
 9729TIP3   OH250677   6.471   3.986  17.144  0.1035  0.6997  0.1107
 9729TIP3    H150678   6.502   4.021  17.227  0.1369  1.7847 -0.3572
 9729TIP3    H250679   6.518   4.036  17.077 -0.9424  0.7752 -0.5814
 9730TIP3   OH250680   3.041   4.673  13.167  0.4659  0.2516  0.8965
 9730TIP3    H150681   3.105   4.632  13.226  0.3177 -0.3737  0.6225
 9730TIP3    H250682   2.960   4.676  13.217  0.4632  0.1620  0.8968
 9731TIP3   OH250683   6.811   0.134   0.884  0.1137  0.0059 -0.4226
 9731TIP3    H150684   6.881   0.102   0.942 -1.2361 -0.2022  1.1303
 9731TIP3    H250685   6.734   0.083   0.910 -0.6264  0.2413 -2.1151
 9732TIP3   OH250686   6.243   5.502   5.732 -0.5768 -1.0152  0.5708
 9732TIP3    H150687   6.173   5.559   5.765  0.3114  0.2166  0.3667
 9732TIP3    H250688   6.248   5.522   5.639  0.9181 -0.1304  0.8233
 9733TIP3   OH250689   6.108   0.641  12.597 -0.3540 -0.4293 -0.7761
 9733TIP3    H150690   6.019   0.611  12.577 -0.6819 -0.1847  0.2716
 9733TIP3    H250691   6.143   0.572  12.653 -0.0079 -0.3507 -0.8996
 9734TIP3   OH250692   6.295   0.046  11.355  0.0457  0.1302 -0.1576
 9734TIP3    H150693   6.335   0.131  11.336 -1.2335  1.0824  1.2752
 9734TIP3    H250694   6.290   0.002  11.270  2.4419  0.7025 -0.6281
 9735TIP3   OH250695   5.202   6.453   4.670 -0.3125  0.7281 -0.1321
 9735TIP3    H150696   5.113   6.446   4.705 -0.3296  1.3242 -0.0610
 9735TIP3    H250697   5.205   6.538   4.626  0.3880  0.9548  0.3416
 9736TIP3   OH250698   6.430   0.762  12.711 -0.2918  0.1376  0.4551
 9736TIP3    H150699   6.506   0.723  12.667  0.0965 -0.9838  2.0667
 9736TIP3    H250700   6.376   0.797  12.640  1.4828  0.4936 -0.7405
 9737TIP3   OH250701   2.307   2.105  16.997 -0.2844  0.2155 -0.1736
 9737TIP3    H150702   2.340   2.016  17.007 -1.2169  0.1483  2.7868
 9737TIP3    H250703   2.227   2.096  16.946 -1.4635 -0.9149  1.8280
 9738TIP3   OH250704   1.794   3.543  16.933 -0.3341 -0.3726 -0.0667
 9738TIP3    H150705   1.810   3.598  17.009 -0.4539 -1.8840  1.0795
 9738TIP3    H250706   1.700   3.550  16.917 -0.1109  0.9878 -0.9243
 9739TIP3   OH250707   2.378   0.404   2.147 -0.0530 -0.3528 -0.1277
 9739TIP3    H150708   2.303   0.439   2.195 -1.6727 -3.0004 -0.6730
 9739TIP3    H250709   2.453   0.423   2.203 -1.2412  1.3658  0.9319
 9740TIP3   OH250710   5.807   0.081  11.728 -0.2488  0.4555  0.1664
 9740TIP3    H150711   5.731   0.032  11.760  0.0797 -0.7113 -0.7625
 9740TIP3    H250712   5.835   0.032  11.650  0.6617  1.6178 -0.2472
 9741TIP3   OH250713   2.545   4.027   4.558  0.0119  0.0181 -0.2898
 9741TIP3    H150714   2.559   4.065   4.645 -1.4876 -0.8305  0.3363
 9741TIP3    H250715   2.530   3.934   4.575  0.4637 -0.2961 -1.5377
 9742TIP3   OH250716   2.686   0.560  17.276  0.1560  0.4133  0.5667
 9742TIP3    H150717   2.616   0.515  17.230  1.6627 -0.5645 -0.7994
 9742TIP3    H250718   2.683   0.525  17.365  0.2500 -1.1932 -0.0477
 9743TIP3   OH250719   6.796   6.801   2.887  0.2821  0.1863 -0.0169
 9743TIP3    H150720   6.756   6.819   2.802 -1.1892  1.1043  0.8454
 9743TIP3    H250721   6.836   6.884   2.914 -0.7557  0.3956  0.9457
 9744TIP3   OH250722   0.322   3.885   6.385  0.1384  0.0271  0.1277
 9744TIP3    H150723   0.256   3.841   6.331  1.8377 -0.3298 -1.7316
 9744TIP3    H250724   0.322   3.837   6.468 -1.4477 -0.3921 -0.1099
 9745TIP3   OH250725   5.130   1.093  12.956 -0.4379 -0.8547  0.5315
 9745TIP3    H150726   5.038   1.111  12.973 -0.6127 -0.1252 -1.0546
 9745TIP3    H250727   5.173   1.104  13.041 -1.4913  1.0096  0.8478
 9746TIP3   OH250728   2.889   5.257  14.963 -0.0251  0.2207 -0.8314
 9746TIP3    H150729   2.813   5.267  15.019  0.5928  0.2488  0.0016
 9746TIP3    H250730   2.880   5.169  14.926  0.4791 -0.4876  0.6855
 9747TIP3   OH250731   5.783   3.961  12.335  0.1851  0.3698  0.5164
 9747TIP3    H150732   5.766   3.885  12.391  1.1391  0.2217  0.6166
 9747TIP3    H250733   5.803   4.032  12.396  2.9804 -0.2226  0.3624
 9748TIP3   OH250734   6.510   3.227   2.486  0.2129  0.6803 -0.2563
 9748TIP3    H150735   6.461   3.173   2.548  0.1147  1.2343  0.1572
 9748TIP3    H250736   6.525   3.170   2.411  0.4742 -0.0475  0.3406
 9749TIP3   OH250737   6.755   4.677   1.666  0.4904 -0.1175 -0.1247
 9749TIP3    H150738   6.833   4.623   1.654  1.2193  0.8872  0.0936
 9749TIP3    H250739   6.721   4.652   1.752 -0.2797 -1.6190 -0.8361
 9750TIP3   OH250740   3.337   6.438   5.940  0.0003  0.4147  0.2422
 9750TIP3    H150741   3.409   6.409   5.883 -0.3659 -0.2517  0.1149
 9750TIP3    H250742   3.375   6.509   5.992  1.1648 -0.8601  1.1549
 9751TIP3   OH250743   5.287   2.627   6.732 -0.3304 -0.1539 -0.4506
 9751TIP3    H150744   5.303   2.573   6.809 -1.2614  0.2682  0.0503
 9751TIP3    H250745   5.192   2.630   6.725 -0.2786  1.0922 -0.6954
 9752TIP3   OH250746   4.960   3.754   0.771  0.0268 -0.1205 -0.4961
 9752TIP3    H150747   5.019   3.759   0.847  2.4506 -3.6922 -1.9553
 9752TIP3    H250748   4.898   3.685   0.794 -2.0116  1.8566 -0.0125
 9753TIP3   OH250749   6.244   1.476  13.141 -0.1423 -0.3901  0.0015
 9753TIP3    H150750   6.279   1.394  13.176  1.3144 -0.0669 -0.6756
 9753TIP3    H250751   6.311   1.508  13.081 -0.3201  1.7216  0.8785
 9754TIP3   OH250752   3.719   0.714   2.585 -0.0432 -0.5920 -0.1920
 9754TIP3    H150753   3.632   0.675   2.584  0.1096 -0.9160 -1.8074
 9754TIP3    H250754   3.779   0.639   2.589  0.1748 -0.3376  3.0742
 9755TIP3   OH250755   3.116   5.085   2.581 -0.0280  0.3127  0.0634
 9755TIP3    H150756   3.160   5.026   2.520 -0.4181  0.9088 -0.8009
 9755TIP3    H250757   3.186   5.114   2.640  0.2795 -0.5397  0.1210
 9756TIP3   OH250758   0.100   4.293   5.115 -0.5523  0.2127 -0.2187
 9756TIP3    H150759   0.084   4.290   5.210  1.6753  1.2916  0.2417
 9756TIP3    H250760   0.065   4.378   5.088 -0.0463  0.4632 -0.1049
 9757TIP3   OH250761   1.612   6.811   2.026 -0.4647  0.1893 -0.2637
 9757TIP3    H150762   1.686   6.863   1.993  0.1083 -0.1342  0.4996
 9757TIP3    H250763   1.644   6.721   2.025 -1.1745 -0.0589 -0.8065
 9758TIP3   OH250764   4.266   1.729   3.628  0.1261  0.4222  0.0175
 9758TIP3    H150765   4.285   1.645   3.585 -0.1249 -0.4839  1.6236
 9758TIP3    H250766   4.175   1.721   3.657  1.6135 -0.9033  4.7972
 9759TIP3   OH250767   0.788   5.902   0.895  0.5093  0.0358 -0.3397
 9759TIP3    H150768   0.801   5.813   0.927  0.0534  0.1805  0.2536
 9759TIP3    H250769   0.709   5.897   0.840 -2.6031  1.0420  3.7626
 9760TIP3   OH250770   4.552   3.769  10.993 -0.3449 -0.1687  0.1250
 9760TIP3    H150771   4.614   3.703  10.959  2.5692  1.2811  2.3804
 9760TIP3    H250772   4.535   3.826  10.918  1.1938 -0.4963 -0.5077
 9761TIP3   OH250773   0.100   6.589   2.742 -0.1132 -0.5675  0.1652
 9761TIP3    H150774   0.191   6.559   2.742 -0.6465 -2.2408 -0.1742
 9761TIP3    H250775   0.099   6.661   2.805  1.3625 -0.7908  0.4762
 9762TIP3   OH250776   0.118   4.776  14.796 -0.0158  0.3671  0.0830
 9762TIP3    H150777   0.158   4.753  14.712  0.8521  0.4771  0.4598
 9762TIP3    H250778   0.193   4.788  14.855 -0.6424 -0.4131  1.0434
 9763TIP3   OH250779   4.817   1.690   1.708  0.8639  0.8867  0.1765
 9763TIP3    H150780   4.767   1.737   1.642  1.3426  0.8669 -0.2032
 9763TIP3    H250781   4.908   1.713   1.690  1.0700  0.1643  0.2659
 9764TIP3   OH250782   5.479   4.249   5.355  0.0626  0.1782  0.1158
 9764TIP3    H150783   5.569   4.258   5.386 -0.2517 -1.5290  1.5864
 9764TIP3    H250784   5.488   4.217   5.265  0.9295  0.8144 -0.0296
 9765TIP3   OH250785   2.580   4.940  14.049  0.2208 -0.9130 -0.5039
 9765TIP3    H150786   2.565   4.906  14.137 -0.1889 -1.8970 -0.9462
 9765TIP3    H250787   2.575   5.035  14.059 -0.2923 -1.0323  0.4424
 9766TIP3   OH250788   0.805   2.366   0.419  0.0177 -0.2671 -0.0038
 9766TIP3    H150789   0.783   2.444   0.367  1.4085  0.3164  0.2579
 9766TIP3    H250790   0.892   2.341   0.388 -0.3859 -1.6738 -0.0102
 9767TIP3   OH250791   5.839   6.294  10.689  0.6559  0.0350 -0.7950
 9767TIP3    H150792   5.909   6.331  10.634  0.8240  1.0792  0.1061
 9767TIP3    H250793   5.861   6.321  10.778 -0.5326 -0.1979 -0.4183
 9768TIP3   OH250794   5.839   0.503  13.390  0.0483 -0.5417 -0.2641
 9768TIP3    H150795   5.925   0.522  13.353 -0.1629  0.7327 -0.1276
 9768TIP3    H250796   5.828   0.409  13.377  0.7729 -0.4461 -1.7223
 9769TIP3   OH250797   3.626   2.616   3.916  0.0431 -0.1235  0.0157
 9769TIP3    H150798   3.678   2.684   3.874  0.8189 -0.5642  0.2587
 9769TIP3    H250799   3.684   2.540   3.921 -0.9016 -0.8920 -0.4911
 9770TIP3   OH250800   6.231   3.425   6.830  0.3879  0.0423  0.0277
 9770TIP3    H150801   6.164   3.385   6.775 -0.0832 -0.9239  1.2778
 9770TIP3    H250802   6.294   3.355   6.845  1.5979  0.9001 -0.9953
 9771TIP3   OH250803   5.275   4.851  11.383 -0.0788 -0.8507 -0.2586
 9771TIP3    H150804   5.181   4.867  11.372 -0.0231 -0.7837 -0.6536
 9771TIP3    H250805   5.298   4.796  11.308  0.6304  0.9070 -1.3678
 9772TIP3   OH250806   0.639   5.920  10.395  0.5389  0.1460  0.1828
 9772TIP3    H150807   0.593   5.864  10.458 -0.3426  0.0864 -0.5192
 9772TIP3    H250808   0.592   6.003  10.399  2.5408  1.2609  2.0819
 9773TIP3   OH250809   3.632   0.600   1.800  0.0047 -0.0527 -0.2952
 9773TIP3    H150810   3.670   0.625   1.885 -0.0618  1.0577 -0.5790
 9773TIP3    H250811   3.595   0.682   1.766 -0.0292 -0.5052 -1.3604
 9774TIP3   OH250812   1.806   4.058   0.044  0.2810  1.1517 -0.1700
 9774TIP3    H150813   1.900   4.062   0.063 -0.0036  1.2282  1.2710
 9774TIP3    H250814   1.801   4.061  -0.051  1.7565  0.9289 -0.2713
 9775TIP3   OH250815   4.582   0.568  12.915  0.0391 -0.5141 -0.3248
 9775TIP3    H150816   4.644   0.641  12.915  0.2099 -0.6199 -2.4387
 9775TIP3    H250817   4.546   0.567  13.004 -1.7408  3.6890 -0.8604
 9776TIP3   OH250818   0.170   0.763  16.227  0.1333 -0.1388  0.6991
 9776TIP3    H150819   0.111   0.767  16.152  0.0658 -1.6419  0.6614
 9776TIP3    H250820   0.202   0.853  16.237  1.3676 -0.2085 -2.1084
 9777TIP3   OH250821   4.358   4.141  12.507 -0.0843 -0.4765  0.1620
 9777TIP3    H150822   4.328   4.081  12.439  0.2436 -0.7279  0.2363
 9777TIP3    H250823   4.298   4.215  12.502  0.8593  0.2151 -1.4400
 9778TIP3   OH250824   4.951   5.503  17.084  0.0164 -0.1177  0.4946
 9778TIP3    H150825   4.934   5.449  17.160  0.8799 -0.8546  0.1747
 9778TIP3    H250826   5.046   5.497  17.071 -0.2250 -0.7384 -1.1608
 9779TIP3   OH250827   3.195   0.257   5.610 -0.4424  0.5558 -0.2446
 9779TIP3    H150828   3.140   0.180   5.624  0.0995  0.0925 -0.6235
 9779TIP3    H250829   3.266   0.248   5.674  0.2684  0.1212 -1.0905
 9780TIP3   OH250830   2.835   5.340  12.573 -0.5911  0.1243 -0.3499
 9780TIP3    H150831   2.806   5.422  12.612 -1.5538 -1.0133  1.3734
 9780TIP3    H250832   2.798   5.272  12.629  0.6468 -1.4810 -1.4371
 9781TIP3   OH250833   3.493   2.019  11.807  0.5517 -0.4572  0.0978
 9781TIP3    H150834   3.434   1.956  11.765 -0.8553 -0.5426  2.1310
 9781TIP3    H250835   3.567   2.026  11.747 -0.4171 -2.1769 -1.3503
 9782TIP3   OH250836   3.239   0.165  12.226  0.2184  0.8408  0.4801
 9782TIP3    H150837   3.283   0.185  12.309  0.6963 -0.3033  0.5025
 9782TIP3    H250838   3.308   0.132  12.170 -0.4397 -0.0680  0.2033
 9783TIP3   OH250839   0.205   5.431   5.072  0.9431  0.2553 -0.1560
 9783TIP3    H150840   0.168   5.351   5.109  2.9546 -0.4368  0.4379
 9783TIP3    H250841   0.131   5.492   5.066 -0.3791 -1.2697  0.4311
 9784TIP3   OH250842   3.141   0.392  11.772  0.0697  0.1133 -0.2185
 9784TIP3    H150843   3.170   0.434  11.853 -0.5331  0.6491 -0.2737
 9784TIP3    H250844   3.203   0.423  11.706 -0.6207  1.2848 -0.3440
 9785TIP3   OH250845   4.178   2.047   5.173  0.2398  0.2375  0.4167
 9785TIP3    H150846   4.095   2.083   5.141  0.1374 -0.7113 -0.4110
 9785TIP3    H250847   4.152   1.980   5.237  0.2952 -1.2165 -1.0402
 9786TIP3   OH250848   1.246   1.552  14.975 -0.0446 -0.1602 -0.4772
 9786TIP3    H150849   1.206   1.488  15.034  1.0339 -0.6029 -0.2069
 9786TIP3    H250850   1.195   1.632  14.988 -1.7125 -1.0779 -1.1642
 9787TIP3   OH250851   4.387   2.830  11.716  0.1615  0.5862  0.8889
 9787TIP3    H150852   4.468   2.784  11.734  1.1006  2.1626  0.7611
 9787TIP3    H250853   4.323   2.789  11.774  0.8673 -1.1239  0.4971
 9788TIP3   OH250854   5.362   6.403  13.481  0.2480  0.6875 -0.8040
 9788TIP3    H150855   5.292   6.341  13.500  0.3259  0.5300 -1.0371
 9788TIP3    H250856   5.404   6.370  13.402 -1.9931  2.9443 -3.0298
 9789TIP3   OH250857   0.737   6.170   5.611  0.5649 -0.1933  0.0492
 9789TIP3    H150858   0.653   6.123   5.607 -0.2517  1.3754 -2.0746
 9789TIP3    H250859   0.748   6.207   5.524  2.0996  2.0023  1.1181
 9790TIP3   OH250860   4.422   2.999  11.515  0.3099 -0.0242  0.0090
 9790TIP3    H150861   4.400   2.950  11.594 -0.1880  0.6742  0.3062
 9790TIP3    H250862   4.373   2.955  11.445  0.8976 -0.7565  0.0544
 9791TIP3   OH250863   6.688   4.904  14.934  0.1812  0.3400 -0.3764
 9791TIP3    H150864   6.599   4.935  14.951 -0.0979 -0.1795 -0.8744
 9791TIP3    H250865   6.710   4.939  14.848  0.0313 -0.4608 -0.7481
 9792TIP3   OH250866   4.180   3.874  16.585 -0.2477 -0.5554 -0.2645
 9792TIP3    H150867   4.176   3.966  16.558  0.0746  0.3681  2.6164
 9792TIP3    H250868   4.258   3.840  16.540  1.0972  1.2956  0.5602
 9793TIP3   OH250869   0.784   4.988  12.341 -0.1992  0.2997  0.1032
 9793TIP3    H150870   0.754   4.904  12.377 -1.2332  0.8131  0.4635
 9793TIP3    H250871   0.715   5.013  12.280  0.0755  0.9224  0.0489
 9794TIP3   OH250872   2.859   1.854   5.620 -0.1596 -0.2239 -0.2044
 9794TIP3    H150873   2.881   1.775   5.571 -1.6770 -1.5428  1.2122
 9794TIP3    H250874   2.924   1.919   5.591  2.4697 -2.5882  0.2048
 9795TIP3   OH250875   3.086   2.997  15.278  0.1199  0.4396  0.2507
 9795TIP3    H150876   3.019   2.954  15.226  0.0925  0.6855  0.0826
 9795TIP3    H250877   3.156   2.932  15.286 -0.4215 -0.0586  0.9934
 9796TIP3   OH250878   2.806   4.740   3.757  0.6774 -0.6700  0.2215
 9796TIP3    H150879   2.852   4.801   3.815  2.5329 -1.5960 -0.2307
 9796TIP3    H250880   2.794   4.662   3.810  1.1130 -1.0169 -0.1876
 9797TIP3   OH250881   0.062   6.500  13.120  0.9109  0.2979 -0.3711
 9797TIP3    H150882   0.131   6.539  13.174 -0.7060  0.7527  1.4104
 9797TIP3    H250883   0.080   6.406  13.122  1.4202  0.4053  0.1579
 9798TIP3   OH250884   1.129   0.378   4.906 -0.2065 -0.2558 -0.3250
 9798TIP3    H150885   1.182   0.304   4.935 -2.9883 -2.1268  0.0991
 9798TIP3    H250886   1.097   0.418   4.986 -0.8851 -0.1913 -0.6300
 9799TIP3   OH250887   3.224   6.446   4.178  0.2517  0.4152  0.6928
 9799TIP3    H150888   3.319   6.436   4.184  0.3959  1.5380  0.4645
 9799TIP3    H250889   3.211   6.502   4.102 -0.5496  0.8571  1.1459
 9800TIP3   OH250890   6.040   2.412   5.615 -0.3122  0.0162 -0.1390
 9800TIP3    H150891   6.045   2.342   5.680 -1.5390 -0.1393 -0.2067
 9800TIP3    H250892   6.114   2.395   5.556 -0.0128 -0.6425  0.4243
 9801TIP3   OH250893   6.120   6.021  12.446  0.1521 -0.7047  0.8142
 9801TIP3    H150894   6.034   6.054  12.470 -0.1404 -1.5127  0.8947
 9801TIP3    H250895   6.103   5.939  12.401  0.8200 -0.2751 -0.2277
 9802TIP3   OH250896   4.070   2.391  16.423  0.1659 -0.2610  0.3551
 9802TIP3    H150897   4.075   2.469  16.479  2.2482 -0.5832  0.6483
 9802TIP3    H250898   4.146   2.339  16.448  0.8758 -0.6472 -2.4598
 9803TIP3   OH250899   1.284   2.067   6.024 -0.1455 -0.1254 -0.6532
 9803TIP3    H150900   1.340   2.016   6.083 -0.9914 -1.1494 -0.7284
 9803TIP3    H250901   1.263   2.146   6.075  0.5313 -0.2009 -0.2412
 9804TIP3   OH250902   6.293   1.853   3.755 -0.3513  0.0008 -0.0506
 9804TIP3    H150903   6.213   1.824   3.800 -0.3761 -1.6317 -1.0746
 9804TIP3    H250904   6.343   1.772   3.742  0.0093  0.5353 -2.2240
 9805TIP3   OH250905   4.227   6.385   3.105 -0.0789  0.1256  0.3936
 9805TIP3    H150906   4.169   6.448   3.062  0.0294 -0.6161 -0.8905
 9805TIP3    H250907   4.189   6.299   3.083  0.0682 -0.2778  1.6702
 9806TIP3   OH250908   4.115   6.626   3.791 -0.3565  0.2592  0.1696
 9806TIP3    H150909   4.165   6.661   3.718 -0.1621  1.7468  0.9919
 9806TIP3    H250910   4.025   6.657   3.776 -1.0993 -2.5038 -1.3676
 9807TIP3   OH250911   2.354   4.889   5.705 -0.0338  0.1671 -0.1010
 9807TIP3    H150912   2.383   4.921   5.790  0.7309  0.6668 -0.5399
 9807TIP3    H250913   2.298   4.960   5.671 -1.0853 -0.4260  0.3767
 9808TIP3   OH250914   3.011   3.989   1.486  0.0989 -0.3406  0.0560
 9808TIP3    H150915   2.996   3.921   1.419  0.4502  0.0290 -0.3993
 9808TIP3    H250916   3.098   4.023   1.466 -0.6472  1.2161 -0.5758
 9809TIP3   OH250917   5.536   0.032   4.728 -0.2524  0.5468  0.0272
 9809TIP3    H150918   5.596   0.086   4.778 -0.7230  0.7812  0.3484
 9809TIP3    H250919   5.535  -0.052   4.774  0.2296  0.3677 -0.2844
 9810TIP3   OH250920   1.700   6.052  15.142 -0.1612  0.3292 -0.4856
 9810TIP3    H150921   1.629   6.107  15.176 -0.3972 -0.3936  0.1904
 9810TIP3    H250922   1.660   6.006  15.068 -0.0182  0.9067 -0.9311
 9811TIP3   OH250923   4.332   3.667  10.406  0.6395  0.5946 -0.2357
 9811TIP3    H150924   4.344   3.572  10.406 -2.0468  0.2060 -1.6842
 9811TIP3    H250925   4.323   3.690  10.499  0.6544 -0.6373  0.0798
 9812TIP3   OH250926   0.582   5.501  13.656  0.7214 -0.0471  0.1665
 9812TIP3    H150927   0.497   5.499  13.612  0.2075  0.1388  1.1334
 9812TIP3    H250928   0.576   5.576  13.715  0.8921 -1.0869  1.5242
 9813TIP3   OH250929   1.078   6.535   5.108 -0.3034 -0.0342  0.1399
 9813TIP3    H150930   1.084   6.456   5.162 -1.0840  0.0706  0.3999
 9813TIP3    H250931   1.061   6.605   5.172  0.2790  0.3268 -0.0991
 9814TIP3   OH250932   0.752   0.753  12.774  0.0355  0.1788  0.3492
 9814TIP3    H150933   0.792   0.828  12.818  0.6537  0.0007  0.0949
 9814TIP3    H250934   0.723   0.787  12.690 -0.6902  0.3989  0.6911
 9815TIP3   OH250935   2.901   3.449  16.711 -0.3245  0.1756  0.0724
 9815TIP3    H150936   2.899   3.544  16.704 -1.5494  0.0212 -2.5019
 9815TIP3    H250937   2.989   3.424  16.684 -0.6232  0.4860 -1.2229
 9816TIP3   OH250938   5.722   6.280  17.000  0.6311 -0.6588 -0.1237
 9816TIP3    H150939   5.627   6.276  16.985  0.5371 -0.6150  0.4550
 9816TIP3    H250940   5.738   6.371  17.023  0.6107 -0.9691  1.1323
 9817TIP3   OH250941   4.205   3.662  15.997 -0.1497  0.0704 -0.2741
 9817TIP3    H150942   4.292   3.699  15.982 -1.2871  2.8162 -0.3011
 9817TIP3    H250943   4.181   3.624  15.912  1.5491 -1.9559  0.0986
 9818TIP3   OH250944   0.012   0.625  14.528  0.6744  0.0295  0.4256
 9818TIP3    H150945   0.009   0.635  14.623  0.6226  0.6465  0.3615
 9818TIP3    H250946   0.038   0.712  14.496 -2.1051  0.6260 -0.2939
 9819TIP3   OH250947   1.692   4.291  14.950  0.1869 -0.0294  0.2506
 9819TIP3    H150948   1.661   4.254  15.033  0.2023  0.9913  0.7241
 9819TIP3    H250949   1.746   4.366  14.977  0.7992 -0.1410 -0.6584
 9820TIP3   OH250950   4.028   1.845   4.940  0.3041  0.1729 -0.0904
 9820TIP3    H150951   4.041   1.828   4.846 -0.7029  1.4693 -0.4773
 9820TIP3    H250952   4.113   1.827   4.979  0.9887  0.4868 -1.3937
 9821TIP3   OH250953   5.610   1.417  15.525 -0.2081 -0.9483 -0.3957
 9821TIP3    H150954   5.649   1.391  15.442  0.8162  2.9522 -1.2434
 9821TIP3    H250955   5.515   1.416  15.509 -0.0309 -0.6186 -1.5202
 9822TIP3   OH250956   1.254   5.410  10.782  0.6553  0.4429 -0.1171
 9822TIP3    H150957   1.320   5.425  10.849  0.1493 -0.3392  0.5703
 9822TIP3    H250958   1.224   5.321  10.797 -1.6092  1.2609  0.5389
 9823TIP3   OH250959   3.060   1.343  16.600  0.2355 -0.7591 -0.4210
 9823TIP3    H150960   3.132   1.374  16.656  0.1317 -1.1402 -0.0752
 9823TIP3    H250961   2.993   1.410  16.610  0.7867 -0.0781 -1.2457
 9824TIP3   OH250962   2.736   2.452  14.577  0.0738 -0.0701  0.1959
 9824TIP3    H150963   2.702   2.513  14.642 -1.4403  1.2731 -1.7854
 9824TIP3    H250964   2.661   2.431  14.521  1.5947 -0.1903 -1.8808
 9825TIP3   OH250965   6.458   5.300   4.758 -0.3362  0.7709 -0.4152
 9825TIP3    H150966   6.507   5.222   4.732 -0.0324  0.3922  1.2927
 9825TIP3    H250967   6.411   5.326   4.678 -0.1171 -0.9013 -1.1004
 9826TIP3   OH250968   3.523   5.107   3.386  0.4636 -0.0062  0.3659
 9826TIP3    H150969   3.473   5.030   3.411 -0.7061  1.0548  1.3955
 9826TIP3    H250970   3.480   5.138   3.306  0.0663  0.3634  0.7216
 9827TIP3   OH250971   2.074   3.302  16.211 -0.6157  0.0582  0.4517
 9827TIP3    H150972   2.153   3.354  16.194 -1.2041  1.1344  1.0259
 9827TIP3    H250973   2.011   3.330  16.145 -0.5659 -0.7221  0.0669
 9828TIP3   OH250974   2.774   6.122  13.335 -0.6329  0.1945 -0.4267
 9828TIP3    H150975   2.722   6.057  13.383 -0.3785 -0.1164 -0.5678
 9828TIP3    H250976   2.819   6.171  13.403 -0.4488 -0.0977 -0.3357
 9829TIP3   OH250977   1.908   2.003   5.941 -0.2459  1.0191 -0.3169
 9829TIP3    H150978   2.003   2.012   5.947 -0.2752  0.4448  1.1332
 9829TIP3    H250979   1.879   1.989   6.031 -1.4630 -1.1575 -1.0128
 9830TIP3   OH250980   4.490   4.525   3.341  0.2168  0.3071 -0.2298
 9830TIP3    H150981   4.532   4.597   3.294  1.1980  0.6401  1.1230
 9830TIP3    H250982   4.466   4.463   3.272  1.5698  0.8072 -1.1809
 9831TIP3   OH250983   1.613   6.489  12.775  0.3992 -0.2078  0.0253
 9831TIP3    H150984   1.603   6.470  12.682  0.6384 -0.6632  0.0958
 9831TIP3    H250985   1.611   6.404  12.818  0.4882 -0.0131  0.4233
 9832TIP3   OH250986   0.871   1.229   5.188  0.3118 -0.3095  0.3057
 9832TIP3    H150987   0.809   1.163   5.158  0.6763 -0.8408  0.6997
 9832TIP3    H250988   0.818   1.306   5.206  0.0102 -0.1906 -1.0859
 9833TIP3   OH250989   1.326   5.624   2.972  0.1111 -0.6422  0.2009
 9833TIP3    H150990   1.247   5.597   3.018 -0.8468 -1.4240 -1.8390
 9833TIP3    H250991   1.381   5.665   3.039 -2.1068  0.1253  1.5766
 9834TIP3   OH250992   3.503   5.971   5.630  0.3044 -0.0241 -0.1480
 9834TIP3    H150993   3.439   6.033   5.596 -0.3471 -0.7283 -0.2275
 9834TIP3    H250994   3.554   6.021   5.694 -1.3422  0.1375  1.0752
 9835TIP3   OH250995   0.908   6.683   5.721 -0.1415 -0.1200  0.3459
 9835TIP3    H150996   0.932   6.775   5.714 -1.7595  0.3390  0.5725
 9835TIP3    H250997   0.828   6.683   5.774 -1.6571 -1.4155 -1.8493
 9836TIP3   OH250998   0.373   3.944   2.169 -0.2482  0.3098  0.3991
 9836TIP3    H150999   0.289   3.899   2.176  0.4441 -0.9455  0.7546
 9836TIP3    H251000   0.436   3.885   2.211  1.1161  0.4256 -1.4460
 9837TIP3   OH251001   0.421   0.933   4.753  0.3750 -0.0211 -0.6203
 9837TIP3    H151002   0.382   0.886   4.680 -1.4251  0.5023 -0.0291
 9837TIP3    H251003   0.507   0.961   4.721  0.3141 -1.2753 -1.9250
 9838TIP3   OH251004   0.931   4.048  11.314  0.0850 -0.0647 -0.0842
 9838TIP3    H151005   0.962   3.973  11.365  1.1886 -0.5418 -1.4268
 9838TIP3    H251006   0.845   4.021  11.282  0.1609 -0.4647  0.0477
 9839TIP3   OH251007   0.648   1.810   4.958  0.1141  0.0722 -0.4798
 9839TIP3    H151008   0.603   1.755   5.022  2.0594 -0.2308  0.6704
 9839TIP3    H251009   0.621   1.899   4.979  1.0101  0.0023  0.9920
 9840TIP3   OH251010   4.871   1.571   0.018 -0.3939 -0.3736  0.1247
 9840TIP3    H151011   4.899   1.584  -0.073  0.2264 -4.3568 -0.3553
 9840TIP3    H251012   4.780   1.542   0.011 -0.6311  0.1843  0.8482
 9841TIP3   OH251013   4.060   4.432  16.405 -0.5655  0.3109 -0.3191
 9841TIP3    H151014   3.974   4.390  16.398 -0.6614 -0.0537  2.2779
 9841TIP3    H251015   4.103   4.415  16.321 -2.0697 -1.6821 -0.7225
 9842TIP3   OH251016   3.177   0.779   2.931  0.1876 -0.0054  0.0295
 9842TIP3    H151017   3.230   0.747   3.004  0.5226 -0.2995 -0.3369
 9842TIP3    H251018   3.237   0.780   2.857 -0.3520 -0.4621 -0.4188
 9843TIP3   OH251019   0.662   0.372   1.960 -0.1195  0.1317  0.1346
 9843TIP3    H151020   0.712   0.319   2.023 -1.0916 -1.7192 -0.6037
 9843TIP3    H251021   0.701   0.459   1.966  1.7392 -0.7273  1.1785
 9844TIP3   OH251022   2.589   6.054   3.430 -0.3424  0.0520 -0.1996
 9844TIP3    H151023   2.581   5.960   3.416 -0.3754  0.0540 -0.1920
 9844TIP3    H251024   2.561   6.068   3.520  1.1048 -0.1309  0.2911
 9845TIP3   OH251025   3.423   0.065   5.572  0.0393  0.7602  0.0589
 9845TIP3    H151026   3.430  -0.018   5.619  1.1683  2.2278  2.5518
 9845TIP3    H251027   3.329   0.081   5.568 -0.4092 -2.0959 -3.1697
 9846TIP3   OH251028   5.928   6.456   2.209  0.0180 -0.2358  0.1944
 9846TIP3    H151029   5.948   6.396   2.280  1.5915 -1.7624 -1.5132
 9846TIP3    H251030   6.004   6.453   2.152  0.1025  3.3200 -0.0058
 9847TIP3   OH251031   0.332   3.008  15.299  0.3882 -0.5007 -0.5710
 9847TIP3    H151032   0.369   2.955  15.370 -1.9812  0.6573  1.6401
 9847TIP3    H251033   0.282   2.945  15.246  0.2340 -1.0269  0.1784
 9848TIP3   OH251034   1.466   6.052   4.482 -0.0004 -0.2381  0.1291
 9848TIP3    H151035   1.522   5.978   4.458  2.8603  2.3414 -1.3925
 9848TIP3    H251036   1.518   6.103   4.545 -1.2394  1.4002 -0.1404
 9849TIP3   OH251037   6.574   3.792  13.333  0.5705 -0.0958  0.3976
 9849TIP3    H151038   6.528   3.790  13.417  2.0679 -0.7235  1.2300
 9849TIP3    H251039   6.661   3.757  13.353  1.3531  0.9132 -1.1741
 9850TIP3   OH251040   5.577   6.214   6.152 -0.3544  0.2428 -0.0854
 9850TIP3    H151041   5.561   6.153   6.080 -2.4251  0.1365  0.4475
 9850TIP3    H251042   5.510   6.281   6.143  0.3951  1.1262  0.7860
 9851TIP3   OH251043   2.204   3.463   1.359  0.4503  0.3867  0.1125
 9851TIP3    H151044   2.142   3.505   1.300 -0.7372 -0.7377  0.5498
 9851TIP3    H251045   2.221   3.529   1.426 -0.3226  0.6777  0.0256
 9852TIP3   OH251046   1.967   4.111  14.341 -0.0602  0.1999  0.0059
 9852TIP3    H151047   1.872   4.113  14.329 -0.1364  1.2487  0.6832
 9852TIP3    H251048   1.993   4.203  14.343  0.7427 -0.0438  1.4487
 9853TIP3   OH251049   2.001   6.203  15.487  0.4895  0.0991 -0.0602
 9853TIP3    H151050   1.996   6.273  15.422 -1.9268  0.0651  0.0378
 9853TIP3    H251051   1.912   6.168  15.492  1.6254 -2.9382 -0.0334
 9854TIP3   OH251052   5.384   4.115   1.914 -0.2538  0.8324 -0.2820
 9854TIP3    H151053   5.460   4.159   1.953 -0.1061  0.5244 -0.2221
 9854TIP3    H251054   5.328   4.092   1.989  1.0704 -1.7518 -0.0183
 9855TIP3   OH251055   4.904   5.928  12.867 -0.2060 -0.4440 -0.3710
 9855TIP3    H151056   4.996   5.952  12.874 -0.2132  0.0007 -1.6988
 9855TIP3    H251057   4.905   5.832  12.870  0.3342 -0.4550 -0.7905
 9856TIP3   OH251058   4.730   0.675   1.149  0.6725 -0.0366  0.0071
 9856TIP3    H151059   4.748   0.756   1.102 -0.7918  0.4527  0.2688
 9856TIP3    H251060   4.699   0.703   1.235  3.8969 -0.9166  1.5379
 9857TIP3   OH251061   0.340   6.431   2.059  0.1269 -0.3135  0.1707
 9857TIP3    H151062   0.320   6.524   2.055  1.0129 -0.1707 -1.2941
 9857TIP3    H251063   0.255   6.387   2.053 -0.1881  0.3839 -0.4987
 9858TIP3   OH251064   2.524   3.867   0.931  0.9269  0.0217 -0.9264
 9858TIP3    H151065   2.581   3.824   0.995 -2.3926 -1.1045  1.4095
 9858TIP3    H251066   2.502   3.797   0.869 -1.3487 -0.7268  0.6661
 9859TIP3   OH251067   4.994   3.155   3.976 -0.2366 -0.0386  0.3386
 9859TIP3    H151068   5.053   3.227   3.956 -2.0960  1.1856 -0.8175
 9859TIP3    H251069   5.022   3.124   4.063  2.2344  0.3417 -0.3007
 9860TIP3   OH251070   3.212   6.280  14.048  0.3652  0.1129  0.1776
 9860TIP3    H151071   3.143   6.339  14.021  0.6538 -0.8326 -2.8639
 9860TIP3    H251072   3.229   6.302  14.139 -2.7558  1.4837  0.4830
 9861TIP3   OH251073   5.081   1.732   3.291 -0.0129 -0.9070 -0.7562
 9861TIP3    H151074   5.089   1.736   3.196 -1.4497 -0.7567 -0.8829
 9861TIP3    H251075   5.109   1.643   3.314  1.2540 -0.6265 -1.2168
 9862TIP3   OH251076   4.902   1.513  11.467 -0.6492 -0.1742  0.1482
 9862TIP3    H151077   4.915   1.567  11.545 -0.7710 -0.5372  0.4204
 9862TIP3    H251078   4.888   1.576  11.396  2.2311  0.2507 -0.0928
 9863TIP3   OH251079   4.901   0.032   5.897  0.2190  0.6279 -0.1249
 9863TIP3    H151080   4.910   0.100   5.964 -2.9637  0.5780  0.4008
 9863TIP3    H251081   4.931  -0.048   5.940 -0.1866  0.9122  0.6966
 9864TIP3   OH251082   0.735   1.418  15.970 -0.9997  0.2837 -0.2473
 9864TIP3    H151083   0.722   1.442  16.062 -0.5111  2.6217 -0.7408
 9864TIP3    H251084   0.697   1.491  15.921 -0.0930 -0.3156 -1.8873
 9865TIP3   OH251085   6.740   3.836  12.887 -0.1404  0.4761 -0.1220
 9865TIP3    H151086   6.824   3.855  12.844 -1.0980  0.7431 -1.9109
 9865TIP3    H251087   6.693   3.919  12.885 -0.0994  0.5462  1.6860
 9866TIP3   OH251088   4.698   0.571  16.338  0.8884 -0.3172  0.3198
 9866TIP3    H151089   4.655   0.591  16.421  0.4128  0.9027 -0.2112
 9866TIP3    H251090   4.745   0.490  16.355  2.3594  0.9028  2.3659
 9867TIP3   OH251091   5.496   3.342   4.619  0.1898 -0.2847  0.3325
 9867TIP3    H151092   5.497   3.399   4.542 -1.5249 -0.7119 -0.0147
 9867TIP3    H251093   5.420   3.370   4.669  0.5371 -0.8856  1.2086
 9868TIP3   OH251094   5.988   5.070  14.088  0.0319  0.1203 -0.1212
 9868TIP3    H151095   5.955   5.053  14.177 -1.4071 -1.1664 -0.8840
 9868TIP3    H251096   5.995   4.983  14.048  2.1771  0.5564 -0.7717
 9869TIP3   OH251097   0.457   2.166  16.166  0.4912 -0.7506  0.4631
 9869TIP3    H151098   0.443   2.177  16.072  1.7599  2.9021  0.6252
 9869TIP3    H251099   0.372   2.140  16.201  0.1971 -2.9795 -1.7460
 9870TIP3   OH251100   6.804   6.431  11.004 -0.6384  0.4535  0.0165
 9870TIP3    H151101   6.848   6.434  10.919 -1.8833 -2.0273 -0.7587
 9870TIP3    H251102   6.712   6.446  10.984 -0.8748  0.3007  0.9637
 9871TIP3   OH251103   3.019   5.682   1.638  0.2485  0.1532  0.1097
 9871TIP3    H151104   3.015   5.661   1.545 -3.7948 -1.0101  0.4544
 9871TIP3    H251105   3.048   5.601   1.680 -0.7937 -0.2089  0.1273
 9872TIP3   OH251106   1.657   4.246   2.276  0.2253  0.2004  0.4530
 9872TIP3    H151107   1.652   4.171   2.334  1.0917  0.1846  0.5097
 9872TIP3    H251108   1.750   4.267   2.271 -0.0498  1.5756  0.8267
 9873TIP3   OH251109   0.608   2.975   1.469  0.0108  0.2169  0.2121
 9873TIP3    H151110   0.560   2.935   1.396  0.5362 -0.3794  0.1829
 9873TIP3    H251111   0.675   3.029   1.426  0.6656 -0.5601  0.2494
 9874TIP3   OH251112   3.667   5.920  13.002 -0.8044 -0.4514 -0.1488
 9874TIP3    H151113   3.686   5.994  12.944 -1.8888 -0.7165 -0.8566
 9874TIP3    H251114   3.624   5.959  13.078  0.0613 -0.1740  0.2010
 9875TIP3   OH251115   0.148   3.552   2.170 -0.2226  0.9120 -0.2358
 9875TIP3    H151116   0.182   3.582   2.254 -0.7705  0.7614  0.0426
 9875TIP3    H251117   0.176   3.461   2.164 -0.6551  0.7601  0.0360
 9876TIP3   OH251118   2.525   3.334   4.575  0.3219 -0.1319  0.3906
 9876TIP3    H151119   2.491   3.263   4.521  1.3155 -0.2012 -0.1450
 9876TIP3    H251120   2.620   3.320   4.577  0.4531  0.7812  0.8472
 9877TIP3   OH251121   0.966   0.094   5.057  0.0177 -0.0415 -0.3612
 9877TIP3    H151122   0.968   0.065   4.966  1.0153 -0.4078 -0.2251
 9877TIP3    H251123   1.035   0.043   5.100 -0.6764 -0.1254  0.6733
 9878TIP3   OH251124   0.842   5.317  17.237 -0.7578  0.0885 -0.6843
 9878TIP3    H151125   0.884   5.368  17.306  1.8844 -2.5330 -0.2335
 9878TIP3    H251126   0.883   5.347  17.156  0.1385 -0.6362 -0.5128
 9879TIP3   OH251127   5.218   4.447   0.879 -0.1158 -0.0314 -0.6709
 9879TIP3    H151128   5.180   4.516   0.933 -1.0124 -1.2639  0.3116
 9879TIP3    H251129   5.214   4.481   0.789  1.1078  1.9065 -0.0119
 9880TIP3   OH251130   6.313   1.961  11.310  0.0710  0.0124 -0.4696
 9880TIP3    H151131   6.356   1.917  11.237 -0.9445  0.8273 -1.5682
 9880TIP3    H251132   6.269   2.036  11.270  0.1867  0.9283  1.0984
 9881TIP3   OH251133   5.957   5.054  13.337  0.0246  0.1083 -0.1936
 9881TIP3    H151134   5.999   4.989  13.393 -0.6924  0.0066  0.2310
 9881TIP3    H251135   5.886   5.007  13.294 -0.5166  0.6175  0.1353
 9882TIP3   OH251136   6.479   3.831   1.150 -0.1376 -0.2565  0.0365
 9882TIP3    H151137   6.385   3.848   1.158 -0.1745  0.2708 -1.3766
 9882TIP3    H251138   6.486   3.762   1.084  0.3386 -2.1029  1.9505
 9883TIP3   OH251139   4.061   0.768   2.480  0.1768 -0.7612  0.1167
 9883TIP3    H151140   4.016   0.700   2.529 -0.2647 -0.8696 -0.4263
 9883TIP3    H251141   4.150   0.768   2.514  0.0294 -1.2327  0.5033
 9884TIP3   OH251142   1.831   6.553   4.032  0.1079  0.3220 -0.0504
 9884TIP3    H151143   1.807   6.500   4.109  1.6945  0.2742  0.4206
 9884TIP3    H251144   1.896   6.501   3.986 -1.6291 -0.1447 -2.0673
 9885TIP3   OH251145   0.510   0.239   2.207  0.1853  0.1151  0.0535
 9885TIP3    H151146   0.503   0.278   2.120 -0.0719 -1.8392 -0.8052
 9885TIP3    H251147   0.547   0.152   2.192 -0.7643 -0.6092  1.7908
 9886TIP3   OH251148   0.268   0.188  16.987 -0.2212 -0.8374 -0.2527
 9886TIP3    H151149   0.344   0.146  16.946 -0.2200 -0.2151 -0.8933
 9886TIP3    H251150   0.194   0.132  16.964 -0.0750 -1.0141 -0.2911
 9887TIP3   OH251151   2.523   6.214  13.986 -0.1002  0.2181 -0.5061
 9887TIP3    H151152   2.435   6.180  13.973 -0.4248  1.1867 -0.8279
 9887TIP3    H251153   2.546   6.187  14.075 -1.4490  1.5900  0.2671
 9888TIP3   OH251154   4.138   0.537   0.928 -0.2586 -0.6625 -0.2388
 9888TIP3    H151155   4.085   0.535   0.848 -0.0966  1.3976 -0.4450
 9888TIP3    H251156   4.090   0.597   0.986 -0.0250 -1.6188  0.9551
 9889TIP3   OH251157   3.445   4.789   4.099  0.1297  0.1422  0.0537
 9889TIP3    H151158   3.367   4.801   4.153 -0.5849  2.0012 -1.3480
 9889TIP3    H251159   3.414   4.799   4.009  1.8421  0.1247 -0.5632
 9890TIP3   OH251160   6.377   0.728  14.082 -0.2884 -0.0395  0.3714
 9890TIP3    H151161   6.413   0.759  13.999  1.0102 -3.0512 -0.2455
 9890TIP3    H251162   6.437   0.762  14.148 -0.5215  1.1776 -0.0363
 9891TIP3   OH251163   1.833   6.755  14.034 -0.2590 -0.1300 -0.0857
 9891TIP3    H151164   1.903   6.796  14.084  1.2591 -2.7409 -0.0290
 9891TIP3    H251165   1.772   6.721  14.100 -0.6616  0.5278 -0.1109
 9892TIP3   OH251166   2.143   6.264   4.110 -0.6524 -0.2061 -0.1040
 9892TIP3    H151167   2.067   6.206   4.111 -0.4154 -0.5273 -0.6190
 9892TIP3    H251168   2.217   6.207   4.129 -0.7393  0.4215  2.2985
 9893TIP3   OH251169   4.463   3.187   5.772  0.0518 -0.0787  0.4094
 9893TIP3    H151170   4.441   3.247   5.700 -1.6276 -0.7588  0.3343
 9893TIP3    H251171   4.478   3.103   5.730 -0.7551 -0.4364  0.8305
 9894TIP3   OH251172   5.122   0.861   3.370  0.1797  0.3491  0.2132
 9894TIP3    H151173   5.089   0.776   3.340  0.1080  0.6643 -0.6203
 9894TIP3    H251174   5.217   0.856   3.356  0.2669  0.1237  0.8817
 9895TIP3   OH251175   5.870   6.013   4.531  0.3313  0.7283 -0.4080
 9895TIP3    H151176   5.827   5.992   4.614  0.9395  0.0415 -0.2646
 9895TIP3    H251177   5.846   6.105   4.515 -1.0475  0.4108 -0.2504
 9896TIP3   OH251178   5.944   0.728   0.952  0.0990  0.0444 -0.4193
 9896TIP3    H151179   5.965   0.751   0.862 -0.6694 -0.4485 -0.7275
 9896TIP3    H251180   5.849   0.730   0.956  0.1530  1.2811  0.7096
 9897TIP3   OH251181   4.717   5.413  11.653  0.2684  0.0832  0.4798
 9897TIP3    H151182   4.799   5.451  11.685  0.6048 -1.1841  1.1911
 9897TIP3    H251183   4.651   5.481  11.668  1.4217  1.6349 -1.3923
 9898TIP3   OH251184   0.913   4.716  17.166 -0.8762 -0.4726 -0.1443
 9898TIP3    H151185   0.916   4.660  17.088 -2.9168 -0.1236 -0.5211
 9898TIP3    H251186   0.935   4.803  17.134 -1.8021 -0.3123 -0.3798
 9899TIP3   OH251187   2.995   2.615   4.354  0.0162 -0.0809  0.2001
 9899TIP3    H151188   2.993   2.645   4.263  0.1426  1.0976  0.5731
 9899TIP3    H251189   3.087   2.623   4.380  0.1097 -1.1210  0.2076
 9900TIP3   OH251190   3.228   2.919   3.377  0.1937 -0.0868  0.0851
 9900TIP3    H151191   3.235   2.902   3.471 -0.4394  1.0514  0.3510
 9900TIP3    H251192   3.134   2.932   3.362  0.3901  0.6547 -0.5319
 9901TIP3   OH251193   5.933   6.778   2.522 -0.7601 -0.7863  0.0636
 9901TIP3    H151194   5.894   6.692   2.508 -0.8568 -0.8006  0.4160
 9901TIP3    H251195   6.021   6.771   2.486 -0.5592 -1.2139  0.6392
 9902TIP3   OH251196   1.990   4.514  12.663  0.3219 -0.4713  0.0372
 9902TIP3    H151197   2.064   4.519  12.602 -0.2246  0.2019 -0.5835
 9902TIP3    H251198   1.914   4.495  12.608 -0.1180 -0.2231  0.5493
 9903TIP3   OH251199   0.895   1.691  13.491 -0.1155 -0.1596  0.0860
 9903TIP3    H151200   0.885   1.670  13.584 -1.5588 -0.5644 -0.1423
 9903TIP3    H251201   0.838   1.767  13.478 -1.3603 -1.2447 -0.8520
 9904TIP3   OH251202   5.445   3.540  14.581 -0.4363 -0.0098 -0.4092
 9904TIP3    H151203   5.502   3.610  14.614 -0.2579 -0.5505  0.4706
 9904TIP3    H251204   5.505   3.479  14.539 -0.4590 -0.1782 -0.1980
 9905TIP3   OH251205   6.400   4.029  11.655 -0.6461  0.1185 -0.7565
 9905TIP3    H151206   6.347   4.030  11.734  0.9028  1.2294  0.2972
 9905TIP3    H251207   6.351   3.975  11.593 -1.8796 -0.7399  0.9515
 9906TIP3   OH251208   2.386   4.715   1.641 -0.3545  0.3579 -0.0160
 9906TIP3    H151209   2.336   4.790   1.609 -0.6851 -1.0155 -2.8910
 9906TIP3    H251210   2.477   4.745   1.640 -0.5895  1.0673 -0.1110
 9907TIP3   OH251211   6.597   5.513  16.903 -0.5573  0.7714 -0.6355
 9907TIP3    H151212   6.564   5.547  16.986  0.5792  2.3303 -0.7939
 9907TIP3    H251213   6.654   5.582  16.870 -0.2153 -0.2486 -2.2385
 9908TIP3   OH251214   5.995   6.801  14.233  0.5619 -0.4604  0.0717
 9908TIP3    H151215   5.949   6.717  14.230  0.2500 -0.2743 -0.4787
 9908TIP3    H251216   5.952   6.854  14.166  1.3196 -0.1501 -0.1779
 9909TIP3   OH251217   2.126   1.430  14.012 -0.1899 -0.4321 -0.2151
 9909TIP3    H151218   2.052   1.464  14.063 -0.2663  1.3345 -1.4678
 9909TIP3    H251219   2.203   1.459  14.061 -0.3038 -1.2024  0.4239
 9910TIP3   OH251220   2.493   3.728   0.686 -0.1126 -0.4647 -0.2499
 9910TIP3    H151221   2.399   3.733   0.668 -0.0416  1.6021 -0.2746
 9910TIP3    H251222   2.534   3.774   0.612  0.6224  2.0184  1.6119
 9911TIP3   OH251223   5.012   0.375  17.120  0.4409  0.3081  0.1507
 9911TIP3    H151224   4.995   0.462  17.083 -0.8883  0.0557  0.1547
 9911TIP3    H251225   5.056   0.328  17.050 -0.0474  0.5547 -0.3262
 9912TIP3   OH251226   5.360   6.540  12.119 -0.4376  0.1846 -0.1416
 9912TIP3    H151227   5.327   6.618  12.163  3.0295  1.4290  0.3847
 9912TIP3    H251228   5.350   6.470  12.183 -1.1552  0.7416  0.3554
 9913TIP3   OH251229   2.157   0.153  10.950  0.9602  0.0313 -0.1621
 9913TIP3    H151230   2.184   0.067  10.919 -0.4446 -0.4851  0.0250
 9913TIP3    H251231   2.209   0.214  10.898  1.2064 -0.9092 -1.0340
 9914TIP3   OH251232   6.755   4.748  16.876 -0.4981 -0.3152 -0.0642
 9914TIP3    H151233   6.839   4.702  16.873  0.9151  2.2409 -4.3682
 9914TIP3    H251234   6.700   4.702  16.813 -1.3033 -0.0708  0.4490
 9915TIP3   OH251235   5.872   3.859   3.848 -0.2502  1.2071 -0.3813
 9915TIP3    H151236   5.881   3.882   3.755  0.3940 -0.5017 -0.7510
 9915TIP3    H251237   5.836   3.938   3.888 -1.7591  1.5304 -2.3058
 9916TIP3   OH251238   5.127   0.605   3.008  0.1269 -0.3118  0.1136
 9916TIP3    H151239   5.161   0.640   2.926 -0.0442  0.3711  0.3294
 9916TIP3    H251240   5.188   0.534   3.031  1.3962  0.8562  0.4590
 9917TIP3   OH251241   3.152   2.563   1.039 -0.1239  0.3005  0.7570
 9917TIP3    H151242   3.205   2.641   1.025 -1.3242  0.9466 -0.4389
 9917TIP3    H251243   3.191   2.497   0.981  0.0505  0.4465  0.7071
 9918TIP3   OH251244   2.106   0.444   6.031  0.0507 -0.2368 -0.3289
 9918TIP3    H151245   2.195   0.466   6.003 -0.1960  0.4526 -0.5743
 9918TIP3    H251246   2.113   0.355   6.065  1.2793  0.5710  1.6270
 9919TIP3   OH251247   1.238   4.426   1.880  0.1800 -0.4419 -0.6857
 9919TIP3    H151248   1.149   4.406   1.851 -0.0752 -0.4926  0.1480
 9919TIP3    H251249   1.241   4.399   1.971  0.4484  1.4222 -0.1252
 9920TIP3   OH251250   3.197   0.245  15.818  0.0031  0.1515  0.5175
 9920TIP3    H151251   3.185   0.324  15.870 -0.1583 -0.2909  1.1697
 9920TIP3    H251252   3.131   0.251  15.749  0.2135  0.7430  0.3689
 9921TIP3   OH251253   1.828   4.230   5.084 -0.2781 -0.0514 -0.3376
 9921TIP3    H151254   1.776   4.270   5.013 -1.4018  2.7921  1.9791
 9921TIP3    H251255   1.767   4.169   5.126  0.4580 -1.9143 -1.8602
 9922TIP3   OH251256   1.367   4.612   5.987 -0.1784 -0.1052  0.2289
 9922TIP3    H151257   1.379   4.583   6.077 -2.6727 -3.7341 -0.4611
 9922TIP3    H251258   1.427   4.558   5.936  1.0338  1.7490 -0.3525
 9923TIP3   OH251259   1.396   3.079   2.603  0.5690  0.1078 -0.0316
 9923TIP3    H151260   1.392   3.100   2.510  0.8959 -0.6906 -0.2310
 9923TIP3    H251261   1.409   3.163   2.646 -2.4106  0.8492 -0.4884
 9924TIP3   OH251262   6.546   4.756  12.704 -0.1367 -0.0659  0.1303
 9924TIP3    H151263   6.513   4.824  12.646 -0.7943 -0.3673  0.1463
 9924TIP3    H251264   6.473   4.695  12.714  0.5983 -1.0103 -0.2344
 9925TIP3   OH251265   1.710   2.534  16.558  0.1295 -0.2580  0.1312
 9925TIP3    H151266   1.729   2.478  16.482  1.0659  1.4224 -0.9151
 9925TIP3    H251267   1.657   2.605  16.522  1.5997  1.2014  0.7949
 9926TIP3   OH251268   1.539   1.534   1.552 -0.7719  0.5815 -0.4356
 9926TIP3    H151269   1.451   1.568   1.531 -1.6803  0.6031  3.0491
 9926TIP3    H251270   1.536   1.518   1.646  3.0389  0.6607 -0.2343
 9927TIP3   OH251271   3.750   5.894   2.497 -0.1544  0.0329 -0.2992
 9927TIP3    H151272   3.654   5.891   2.504 -0.1048 -0.0461  0.4527
 9927TIP3    H251273   3.780   5.885   2.588  0.5638  0.1102 -0.5298
 9928TIP3   OH251274   4.283   1.080   5.556  0.5779 -0.5815 -0.3131
 9928TIP3    H151275   4.335   1.160   5.544  2.6414 -1.4418  2.3220
 9928TIP3    H251276   4.285   1.064   5.651 -3.3857 -1.4449 -0.2936
 9929TIP3   OH251277   5.107   5.192  12.067  0.4089  0.1125 -0.6086
 9929TIP3    H151278   5.131   5.099  12.070 -0.8967 -0.2291 -0.4050
 9929TIP3    H251279   5.116   5.222  12.158 -0.9527 -0.2925 -0.3256
 9930TIP3   OH251280   4.510   6.382  11.392  0.1267 -0.1145  0.2746
 9930TIP3    H151281   4.582   6.374  11.330  0.9293  0.7495  1.0731
 9930TIP3    H251282   4.486   6.291  11.412  0.5367 -0.4030 -0.5120
 9931TIP3   OH251283   5.137   4.338  14.468 -0.3116  0.1492  0.1299
 9931TIP3    H151284   5.218   4.383  14.493 -0.1550  0.9211 -1.6083
 9931TIP3    H251285   5.142   4.253  14.510  0.1943  1.1454  2.1381
 9932TIP3   OH251286   5.598   5.181   5.314 -0.2154  0.4870  0.0042
 9932TIP3    H151287   5.514   5.149   5.347 -0.7369  1.4554 -0.3400
 9932TIP3    H251288   5.585   5.189   5.220  1.0813 -1.7361 -0.3967
 9933TIP3   OH251289   1.196   3.786   2.177 -0.0230  0.8458  0.4863
 9933TIP3    H151290   1.163   3.865   2.220 -1.0471  1.7633 -1.8609
 9933TIP3    H251291   1.117   3.738   2.152  0.5883 -0.5795  1.3000
 9934TIP3   OH251292   6.457   2.074   0.206 -0.3268 -0.2998 -0.1763
 9934TIP3    H151293   6.368   2.050   0.232 -0.2718  1.2623  1.5751
 9934TIP3    H251294   6.451   2.094   0.113 -1.7398 -0.4653 -0.1303
 9935TIP3   OH251295   5.401   1.671   4.422 -0.0447 -0.4506  0.0456
 9935TIP3    H151296   5.328   1.641   4.476  0.0764 -0.7688  0.0339
 9935TIP3    H251297   5.392   1.767   4.420  1.1384 -0.2513  2.3180
 9936TIP3   OH251298   6.429   3.033   5.694 -0.2746 -0.2289 -0.0329
 9936TIP3    H151299   6.448   3.110   5.748 -0.7600  0.1878 -0.4564
 9936TIP3    H251300   6.335   3.021   5.701 -0.8813  1.8659 -3.4733
 9937TIP3   OH251301   0.567   6.798  14.629  0.0001 -0.9408 -0.3987
 9937TIP3    H151302   0.624   6.844  14.691 -0.7095 -1.0937  0.3934
 9937TIP3    H251303   0.481   6.800  14.671 -0.4304 -1.3102 -1.2545
 9938TIP3   OH251304   6.006   3.219  14.150 -0.4091  0.8756  0.4205
 9938TIP3    H151305   6.069   3.162  14.106  1.5177  3.0348  0.3319
 9938TIP3    H251306   6.007   3.300  14.100 -1.1296  1.9641  2.1079
 9939TIP3   OH251307   5.027   4.829   1.595 -0.5160  0.1104 -0.1834
 9939TIP3    H151308   5.031   4.751   1.540  0.6027 -0.1748  0.2970
 9939TIP3    H251309   5.028   4.795   1.685  0.8567  0.6993  0.0358
 9940TIP3   OH251310   2.633   5.826   4.844  0.2012 -0.2092  0.1285
 9940TIP3    H151311   2.659   5.871   4.764 -1.2076  0.3100 -0.0558
 9940TIP3    H251312   2.715   5.807   4.889  0.9038  1.0862 -0.5816
 9941TIP3   OH251313   0.077   4.613  13.361 -0.0318  0.7372  0.4387
 9941TIP3    H151314  -0.005   4.653  13.392 -0.6269 -1.7859  2.3080
 9941TIP3    H251315   0.106   4.559  13.435  2.8831  0.9455 -0.5309
 9942TIP3   OH251316   0.554   4.461  13.570  0.6787 -0.1679  0.1183
 9942TIP3    H151317   0.459   4.454  13.561  0.5886  1.8070 -0.7779
 9942TIP3    H251318   0.572   4.429  13.659 -0.7643 -1.0188  0.1124
 9943TIP3   OH251319   5.841   0.220   3.874 -0.4796  0.1310  0.4021
 9943TIP3    H151320   5.842   0.297   3.818 -1.5199  0.6802  1.1010
 9943TIP3    H251321   5.885   0.152   3.824 -1.0397  0.7238 -0.9084
 9944TIP3   OH251322   2.586   0.248   4.018 -0.1670 -0.2032  0.1283
 9944TIP3    H151323   2.498   0.212   4.018  0.2606 -1.2714  0.1261
 9944TIP3    H251324   2.635   0.192   4.078  0.9115 -0.6324 -1.1265
 9945TIP3   OH251325   5.779   1.632  14.756 -0.1717 -0.4323  1.0361
 9945TIP3    H151326   5.702   1.689  14.745 -0.3377 -0.7831  0.3330
 9945TIP3    H251327   5.804   1.643  14.848 -0.0329  0.9886  0.8358
 9946TIP3   OH251328   3.121   2.032   5.481 -0.1560  0.2316 -0.1734
 9946TIP3    H151329   3.185   2.100   5.498 -0.0447 -0.1119  0.8254
 9946TIP3    H251330   3.133   1.969   5.552 -1.3622 -0.0069 -0.1666
 9947TIP3   OH251331   3.918   4.570  11.496  0.0459 -0.2111  0.0166
 9947TIP3    H151332   3.904   4.531  11.410  1.2569  0.5376 -0.5429
 9947TIP3    H251333   3.934   4.663  11.477  0.8761 -0.1490  0.9907
 9948TIP3   OH251334   0.461   5.706  13.790  0.1214  0.2234 -0.5197
 9948TIP3    H151335   0.366   5.705  13.797 -0.0323 -1.4641 -2.4136
 9948TIP3    H251336   0.481   5.783  13.736 -0.1510  0.6475 -0.0195
 9949TIP3   OH251337   2.313   3.540  15.696 -0.1592 -0.3976  0.1652
 9949TIP3    H151338   2.319   3.542  15.792  1.0741 -1.9106  0.1341
 9949TIP3    H251339   2.290   3.450  15.675 -2.8256  0.4825 -0.8773
 9950TIP3   OH251340   1.039   0.916  13.033  0.3821  0.0740  0.3787
 9950TIP3    H151341   1.080   0.978  13.094 -0.3029 -0.9278  1.8796
 9950TIP3    H251342   1.112   0.881  12.982  1.1665 -0.2540  1.7062
 9951TIP3   OH251343   5.876   3.125   2.961  0.1620 -0.3232 -0.8045
 9951TIP3    H151344   5.891   3.045   3.011 -2.6681  1.1619  2.7006
 9951TIP3    H251345   5.952   3.180   2.982  0.7489 -1.0507 -1.0033
 9952TIP3   OH251346   4.710   2.619   6.188 -0.6360  0.0812  0.4342
 9952TIP3    H151347   4.757   2.652   6.265  1.5078  0.8606 -1.1511
 9952TIP3    H251348   4.718   2.524   6.193  1.5057  0.2147 -0.0109
 9953TIP3   OH251349   2.236   6.270   1.402 -0.4324  0.1464  0.3998
 9953TIP3    H151350   2.245   6.341   1.338 -0.8243  0.2646  0.4755
 9953TIP3    H251351   2.286   6.299   1.478 -0.6539  0.3765  0.4580
 9954TIP3   OH251352   3.040   1.656   3.351  0.9369 -0.3847  0.2182
 9954TIP3    H151353   3.132   1.663   3.378  0.7365  0.1053  0.7838
 9954TIP3    H251354   2.991   1.651   3.433  0.5095 -1.3814 -0.0909
 9955TIP3   OH251355   3.081   6.214   5.220 -0.7430 -0.1435 -0.0290
 9955TIP3    H151356   3.086   6.119   5.220 -0.8899 -0.1830 -1.9981
 9955TIP3    H251357   2.987   6.233   5.212 -0.6572  0.1405 -0.4115
 9956TIP3   OH251358   2.092   1.435  15.652 -0.4248 -0.6169  0.8032
 9956TIP3    H151359   2.127   1.387  15.577  1.9515  1.0270  0.8057
 9956TIP3    H251360   2.031   1.374  15.693 -1.4583 -1.6967 -2.1943
 9957TIP3   OH251361   4.847   5.308   3.215  0.0512  0.5213  0.3783
 9957TIP3    H151362   4.895   5.242   3.266  1.3799  3.7937  3.5950
 9957TIP3    H251363   4.757   5.301   3.246 -0.0510 -0.5191 -0.1298
 9958TIP3   OH251364   0.315   3.783  15.495  0.4131  0.3649 -0.1082
 9958TIP3    H151365   0.223   3.808  15.505 -0.2753 -0.8926 -2.9129
 9958TIP3    H251366   0.313   3.698  15.453  2.8901  0.1377  0.1386
 9959TIP3   OH251367   6.115   4.642  11.145 -0.0650  0.0378 -0.5466
 9959TIP3    H151368   6.125   4.547  11.146  0.6196  0.1114 -0.4505
 9959TIP3    H251369   6.139   4.668  11.056  1.0003  0.2571 -0.1986
 9960TIP3   OH251370   1.080   6.190   6.116  0.0765  0.3763  0.5457
 9960TIP3    H151371   1.048   6.208   6.028 -2.2194 -1.5766  0.9173
 9960TIP3    H251372   1.072   6.095   6.126  1.3757  0.4178  2.4784
 9961TIP3   OH251373   1.270   4.391  11.944  0.5509 -0.0672 -0.0298
 9961TIP3    H151374   1.221   4.407  11.864 -1.7060 -0.0954  1.2990
 9961TIP3    H251375   1.280   4.478  11.983 -1.0584 -0.3716  1.1412
 9962TIP3   OH251376   5.257   1.290   3.334 -0.4179  0.2865  0.2314
 9962TIP3    H151377   5.248   1.214   3.391  0.7148  0.2379  0.3441
 9962TIP3    H251378   5.195   1.274   3.262  1.5047 -1.8588 -0.9845
 9963TIP3   OH251379   4.931   1.359   4.483  0.5590  0.2872  0.1582
 9963TIP3    H151380   4.849   1.373   4.436  1.3284 -0.8266 -1.5834
 9963TIP3    H251381   4.943   1.439   4.535 -1.3426  0.6757  0.0183
 9964TIP3   OH251382   1.706   3.019  12.436  0.3044  0.2198 -0.1964
 9964TIP3    H151383   1.614   2.992  12.437  0.0366  1.0843 -0.8949
 9964TIP3    H251384   1.725   3.037  12.344  0.8812  1.0404  0.0782
 9965TIP3   OH251385   1.636   5.440   4.594  0.1016 -0.1286 -0.7617
 9965TIP3    H151386   1.666   5.525   4.628  1.2596 -0.8926  0.1985
 9965TIP3    H251387   1.697   5.420   4.523  0.2668 -0.4635 -0.5302
 9966TIP3   OH251388   2.878   3.235   2.516 -0.2336  0.0765  0.0741
 9966TIP3    H151389   2.807   3.180   2.484 -0.1540  0.1363 -0.2096
 9966TIP3    H251390   2.871   3.316   2.464  0.0439  0.0803  0.0406
 9967TIP3   OH251391   0.859   5.329   1.066 -0.1636  0.3680  0.0801
 9967TIP3    H151392   0.887   5.271   0.995 -0.0588 -0.5170  0.8219
 9967TIP3    H251393   0.774   5.293   1.093 -0.2053  0.7067  0.3900
 9968TIP3   OH251394   2.053   2.532   2.083 -0.0382  0.6355  0.4987
 9968TIP3    H151395   1.991   2.603   2.102  0.8894  1.4283  0.5601
 9968TIP3    H251396   2.044   2.519   1.989 -0.5849  0.4770  0.5677
 9969TIP3   OH251397   4.005   3.160   4.489 -0.4542  0.5635  0.4520
 9969TIP3    H151398   3.964   3.128   4.409  0.7030  0.9509 -0.3055
 9969TIP3    H251399   3.950   3.126   4.559 -1.0843 -0.3593 -0.4761
 9970TIP3   OH251400   2.389   2.566  11.010 -0.7345 -0.2190  0.3456
 9970TIP3    H151401   2.383   2.551  10.916  1.2497  2.5015 -0.2918
 9970TIP3    H251402   2.470   2.522  11.036 -0.1019  0.8775  0.3026
 9971TIP3   OH251403   0.199   0.914   3.318 -0.2559 -0.0405  0.2699
 9971TIP3    H151404   0.280   0.963   3.332  0.1779 -0.8073  0.4588
 9971TIP3    H251405   0.130   0.979   3.327  0.3959  0.8800 -1.1305
 9972TIP3   OH251406   4.166   3.772   6.293 -0.4298  0.4071  0.0771
 9972TIP3    H151407   4.240   3.827   6.319  0.3766  0.0402 -1.4022
 9972TIP3    H251408   4.167   3.700   6.355  1.1215 -0.1636 -0.5904
 9973TIP3   OH251409   0.293   3.144   4.162  0.3854 -0.4800  0.2753
 9973TIP3    H151410   0.287   3.151   4.258  0.5953 -0.5207  0.2923
 9973TIP3    H251411   0.334   3.226   4.135 -2.0234  0.6952 -0.0211
 9974TIP3   OH251412   5.343   6.033  12.221 -0.3513  0.2540 -0.1227
 9974TIP3    H151413   5.437   6.046  12.228 -0.3736 -0.4174  1.5157
 9974TIP3    H251414   5.304   6.109  12.264 -0.5465 -0.1130  0.3558
 9975TIP3   OH251415   1.106   1.786   4.453 -0.3241 -0.0246 -0.2468
 9975TIP3    H151416   1.067   1.742   4.529  1.2672  0.3142  0.7905
 9975TIP3    H251417   1.184   1.830   4.488  0.4717  0.0814 -2.0837
 9976TIP3   OH251418   5.318   3.504   3.981  0.1881  0.0821  0.4261
 9976TIP3    H151419   5.369   3.513   4.061  0.6776 -1.3849  0.2878
 9976TIP3    H251420   5.261   3.581   3.980  0.0644  0.0260  2.2568
 9977TIP3   OH251421   1.103   2.079  15.094 -0.1660 -0.7673 -0.2015
 9977TIP3    H151422   1.034   2.088  15.029  0.5382 -0.1377 -0.8697
 9977TIP3    H251423   1.182   2.059  15.043  0.7321  1.3703  0.3143
 9978TIP3   OH251424   5.909   4.907   5.694  0.0229  0.0482 -0.9139
 9978TIP3    H151425   5.971   4.968   5.735  0.6362 -0.4278 -1.1186
 9978TIP3    H251426   5.843   4.891   5.761  1.0583 -0.7735 -0.0823
 9979TIP3   OH251427   4.979   6.619  10.344  0.2021 -0.2495 -0.2219
 9979TIP3    H151428   4.909   6.560  10.318  0.2906 -0.3095 -0.3246
 9979TIP3    H251429   5.009   6.585  10.428  0.4983 -0.5680 -0.4549
 9980TIP3   OH251430   2.399   3.076  13.239  0.1638  0.0613 -0.2533
 9980TIP3    H151431   2.450   3.015  13.292  1.1448 -1.5218 -2.8945
 9980TIP3    H251432   2.446   3.159  13.246  2.0693 -0.9185 -1.1503
 9981TIP3   OH251433   5.486   5.942   3.362 -0.2345 -0.1451 -0.0500
 9981TIP3    H151434   5.512   5.853   3.338  0.3158  0.1608 -0.6197
 9981TIP3    H251435   5.448   5.978   3.282 -0.0644  0.2706  0.0545
 9982TIP3   OH251436   4.202   1.609   1.538 -0.9170  0.1287  0.0824
 9982TIP3    H151437   4.131   1.607   1.602 -0.9054  0.0208  0.0918
 9982TIP3    H251438   4.170   1.667   1.468 -2.2196 -2.1741 -1.3270
 9983TIP3   OH251439   2.827   1.745  14.391 -0.0101  0.2481 -0.0693
 9983TIP3    H151440   2.862   1.725  14.305 -0.6601 -1.3139  0.0092
 9983TIP3    H251441   2.902   1.738  14.450  0.2767  0.5241 -0.4063
 9984TIP3   OH251442   1.397   0.021   5.936 -0.7264  0.0861  0.2090
 9984TIP3    H151443   1.456  -0.055   5.941 -0.1358  0.2538 -3.0109
 9984TIP3    H251444   1.413   0.069   6.018  2.1287 -0.9614  0.3469
 9985TIP3   OH251445   6.616   2.433  15.317  0.3554  0.5664 -0.4216
 9985TIP3    H151446   6.697   2.478  15.293  0.7564 -0.4198 -0.9516
 9985TIP3    H251447   6.622   2.348  15.273 -0.9662  0.4860 -0.4629
 9986TIP3   OH251448   2.252   2.761   4.126 -0.8705 -0.1458 -0.2158
 9986TIP3    H151449   2.252   2.758   4.222 -1.9235 -0.7954 -0.2226
 9986TIP3    H251450   2.329   2.813   4.103 -0.4125 -0.2857  0.9730
 9987TIP3   OH251451   3.387   4.246   3.079  0.3623  0.0418  0.1252
 9987TIP3    H151452   3.305   4.196   3.074 -0.2325  1.0308 -0.2406
 9987TIP3    H251453   3.448   4.188   3.124 -0.6828 -0.5229  0.8365
 9988TIP3   OH251454   3.870   5.825   1.571 -0.0994 -0.0626 -0.1238
 9988TIP3    H151455   3.811   5.855   1.501  0.2343  0.0814 -0.3441
 9988TIP3    H251456   3.814   5.773   1.629 -0.4456  0.0797 -0.3297
 9989TIP3   OH251457   1.375   0.527   1.285 -0.2729 -0.2259  0.0849
 9989TIP3    H151458   1.442   0.466   1.256 -0.3309 -0.3644  0.2417
 9989TIP3    H251459   1.298   0.473   1.300 -1.0595  0.2160 -2.1639
 9990TIP3   OH251460   5.661   0.712   6.132 -0.2603  0.5804 -0.0050
 9990TIP3    H151461   5.756   0.728   6.128  0.0310 -0.7928  1.1879
 9990TIP3    H251462   5.652   0.638   6.192 -1.9382 -0.5966 -1.6808
 9991TIP3   OH251463   4.334   3.429   2.696 -0.3114  0.0455  0.1008
 9991TIP3    H151464   4.313   3.518   2.670  0.3595  0.1036 -0.2416
 9991TIP3    H251465   4.250   3.382   2.692 -0.1677 -0.0824 -2.6631
 9992TIP3   OH251466   3.644   3.225  14.947 -0.4993  0.2968 -0.7852
 9992TIP3    H151467   3.578   3.192  14.886 -0.4443 -0.8381 -0.2643
 9992TIP3    H251468   3.672   3.147  14.996  3.3781  0.1880 -2.9997
 9993TIP3   OH251469   2.231   5.258   1.023  0.3544  0.2294 -0.1602
 9993TIP3    H151470   2.183   5.177   1.009 -0.7346  0.5805  1.4453
 9993TIP3    H251471   2.292   5.238   1.094 -0.1251  0.8985  0.4492
 9994TIP3   OH251472   5.618   5.935   5.546 -0.5073  0.0840  0.1503
 9994TIP3    H151473   5.636   5.969   5.458  2.4263 -0.2070  0.5889
 9994TIP3    H251474   5.596   6.013   5.598 -0.5439  0.4719 -0.4464
 9995TIP3   OH251475   1.452   6.655  12.222  0.2920 -0.2524 -0.5430
 9995TIP3    H151476   1.387   6.724  12.230 -0.2154 -0.7089 -0.7084
 9995TIP3    H251477   1.504   6.679  12.146 -0.4884 -0.5503 -1.1727
 9996TIP3   OH251478   2.901   3.085   0.521  0.3682 -0.3075  0.7111
 9996TIP3    H151479   2.914   3.149   0.591  1.4688  0.6768 -0.3588
 9996TIP3    H251480   2.989   3.058   0.496  0.2633  2.5180 -3.1132
 9997TIP3   OH251481   0.229   3.130   6.714  0.4484 -0.4731  0.3235
 9997TIP3    H151482   0.211   3.159   6.625  1.4694  0.7759  0.5173
 9997TIP3    H251483   0.154   3.075   6.737  1.0233 -2.3285 -1.9642
 9998TIP3   OH251484   5.237   4.382   3.224  0.5236  0.3478 -0.2301
 9998TIP3    H151485   5.310   4.336   3.184  0.9578  1.3152 -0.5532
 9998TIP3    H251486   5.274   4.426   3.301  0.0919  0.0799  0.1383
 9999TIP3   OH251487   5.948   1.432   0.883 -0.0278  0.1749 -0.0607
 9999TIP3    H151488   5.958   1.338   0.870 -0.2936  0.3593 -1.6490
 9999TIP3    H251489   6.012   1.454   0.950  0.2939 -1.0680  0.0477
10000TIP3   OH251490   0.746   1.739  17.284 -0.2553  0.4534 -0.2349
10000TIP3    H151491   0.813   1.804  17.306  1.7155 -1.1708 -1.2564
10000TIP3    H251492   0.667   1.770  17.328  0.9534  2.8538  0.3311
10001TIP3   OH251493   5.597   1.584  15.068  0.2004 -0.6534 -0.4723
10001TIP3    H151494   5.586   1.610  15.159  0.5305 -0.5311 -0.4669
10001TIP3    H251495   5.686   1.610  15.046  0.7789 -2.3928 -0.2595
10002TIP3   OH251496   3.345   6.498  13.137  0.0511  0.4640  0.4259
10002TIP3    H151497   3.324   6.569  13.075 -0.4012  0.7168  0.8704
10002TIP3    H251498   3.280   6.507  13.206 -0.5492 -0.9392  0.0515
10003TIP3   OH251499   6.246   4.847  16.624  0.9674  0.3375  0.2257
10003TIP3    H151500   6.260   4.758  16.657  0.7326  0.1711 -0.1085
10003TIP3    H251501   6.217   4.897  16.700 -0.1360 -0.1803  0.1628
10004TIP3   OH251502   5.816   4.315  13.799 -0.4012  0.2366 -0.1100
10004TIP3    H151503   5.740   4.317  13.740 -1.2902 -1.2915  0.9286
10004TIP3    H251504   5.783   4.350  13.882 -0.2085 -1.1382  0.5752
10005TIP3   OH251505   2.044   5.685  14.664 -0.3336  0.2229 -0.1669
10005TIP3    H151506   1.982   5.613  14.672 -1.8031  1.2283 -1.9624
10005TIP3    H251507   1.988   5.763  14.652  1.2549  1.2398 -1.1140
10006TIP3   OH251508   3.297   2.593  15.364  0.7685 -0.3753  0.2053
10006TIP3    H151509   3.214   2.575  15.407  0.2104  0.2625 -0.5838
10006TIP3    H251510   3.353   2.520  15.388 -0.8821 -2.2601 -1.4576
10007TIP3   OH251511   5.270   4.743  13.442 -0.3179  0.3512 -0.2298
10007TIP3    H151512   5.221   4.723  13.522  0.5666  0.2690  0.2960
10007TIP3    H251513   5.225   4.820  13.406 -0.3667  0.7454  0.6588
10008TIP3   OH251514   6.373   3.878  15.806  0.5267 -0.3009 -0.2535
10008TIP3    H151515   6.345   3.891  15.715 -2.3756  0.0075  0.6428
10008TIP3    H251516   6.339   3.954  15.853 -0.1071 -1.6719  1.5470
10009TIP3   OH251517   2.615   2.022   3.816 -0.1790 -0.4027  0.4257
10009TIP3    H151518   2.708   2.038   3.829 -0.3507 -0.9987  2.7824
10009TIP3    H251519   2.583   2.100   3.771  1.2620  0.2703  0.5382
10010TIP3   OH251520   2.148   1.811  16.662 -0.1115  0.3585 -0.6241
10010TIP3    H151521   2.138   1.906  16.658 -3.2071  0.0305 -1.4794
10010TIP3    H251522   2.106   1.779  16.583 -1.2321 -1.8749  0.8421
10011TIP3   OH251523   5.970   2.584  15.458  0.6449  0.0102 -0.2015
10011TIP3    H151524   6.017   2.668  15.456 -0.2408  0.5336  0.3713
10011TIP3    H251525   6.013   2.531  15.391  1.0570  1.0053 -0.7464
10012TIP3   OH251526   5.935   4.506   6.461 -0.3470  0.0176  0.2673
10012TIP3    H151527   5.890   4.443   6.406 -0.3294 -1.0949  1.4955
10012TIP3    H251528   5.865   4.554   6.506 -0.3573  0.7901 -0.5547
10013TIP3   OH251529   6.406   5.319   3.131  0.7625 -0.5147  0.9136
10013TIP3    H151530   6.384   5.295   3.041  2.0754 -4.5924  1.5809
10013TIP3    H251531   6.321   5.339   3.172 -0.0570 -0.6250 -0.7030
10014TIP3   OH251532   6.403   2.455   6.342  0.1083 -0.1369 -0.7707
10014TIP3    H151533   6.309   2.454   6.357  0.5086 -2.7225  1.9720
10014TIP3    H251534   6.436   2.524   6.399  0.2647 -1.8910  1.3313
10015TIP3   OH251535   3.194   3.357  17.019  0.6129 -0.5337  0.1312
10015TIP3    H151536   3.121   3.301  16.993 -0.0320  0.1430  0.4699
10015TIP3    H251537   3.249   3.362  16.941  0.4550 -1.2995 -0.0291
10016TIP3   OH251538   2.492   3.313  12.467 -0.2305  0.4255  0.2351
10016TIP3    H151539   2.536   3.394  12.443 -0.9428  0.3916 -1.1931
10016TIP3    H251540   2.517   3.250  12.400  0.9556 -0.7703  1.7651
10017TIP3   OH251541   4.687   1.294  16.122  0.1193  0.0255  0.2738
10017TIP3    H151542   4.603   1.261  16.155  0.3794 -0.5671  0.3595
10017TIP3    H251543   4.709   1.366  16.181 -1.0097  1.1036 -0.6021
10018TIP3   OH251544   6.639   4.117  12.345  0.2691  0.4522  0.4692
10018TIP3    H151545   6.659   4.189  12.405 -0.8236 -0.4022  1.8902
10018TIP3    H251546   6.544   4.118  12.338  0.2389 -0.9489  0.6284
10019TIP3   OH251547   4.027   2.927   4.010  0.2822 -0.7880 -0.2750
10019TIP3    H151548   3.975   2.981   3.950  1.9129  1.2892  0.1591
10019TIP3    H251549   4.058   2.855   3.955 -0.6466 -0.4739 -1.2299
10020TIP3   OH251550   0.694   3.572   2.295 -0.3005 -0.2075 -0.8374
10020TIP3    H151551   0.690   3.584   2.390  1.4306  4.7339 -1.2102
10020TIP3    H251552   0.776   3.525   2.281  0.3358  0.5968  0.0598
10021TIP3   OH251553   5.669   2.889  12.103  0.0347  0.3704  0.0545
10021TIP3    H151554   5.754   2.929  12.085 -0.1407  0.0406 -1.6532
10021TIP3    H251555   5.645   2.847  12.020 -0.2711 -2.3899  1.5003
10022TIP3   OH251556   4.456   0.937   0.799  0.2448 -0.5436 -0.5482
10022TIP3    H151557   4.520   1.007   0.790 -0.1281 -0.2932 -1.2921
10022TIP3    H251558   4.507   0.857   0.790  0.4847 -0.3485 -0.9386
10023TIP3   OH251559   6.102   4.969   6.496  0.2760  0.3446 -0.3141
10023TIP3    H151560   6.106   4.932   6.584 -2.1953 -0.2310 -0.4135
10023TIP3    H251561   6.102   4.893   6.438  0.7515  0.6885 -0.7655
10024TIP3   OH251562   2.168   2.158  12.749 -0.2029  0.1442 -0.5182
10024TIP3    H151563   2.240   2.151  12.811 -1.0138  0.7322  0.5090
10024TIP3    H251564   2.209   2.188  12.668  0.7014  0.5042  0.0657
10025TIP3   OH251565   3.696   3.468   2.931  0.4013  0.3637 -0.9268
10025TIP3    H151566   3.681   3.561   2.947 -2.4367  0.1028 -1.8624
10025TIP3    H251567   3.677   3.457   2.838  0.4462 -1.2203 -0.7539
10026TIP3   OH251568   6.297   2.669   6.181  0.2463 -0.8200 -0.0160
10026TIP3    H151569   6.339   2.593   6.221  0.5365  0.3027  1.8861
10026TIP3    H251570   6.206   2.663   6.208  0.2498 -0.5638  0.0608
10027TIP3   OH251571   4.226   0.232   5.965  0.2250 -0.1136 -0.2329
10027TIP3    H151572   4.182   0.193   6.040 -0.4307 -1.7610 -1.4585
10027TIP3    H251573   4.250   0.320   5.995 -1.4988 -0.1523  1.3372
10028TIP3   OH251574   4.819   2.332   1.004  0.5880  0.3481 -0.3045
10028TIP3    H151575   4.878   2.406   1.016  1.8197 -0.3755 -1.7392
10028TIP3    H251576   4.828   2.282   1.085 -1.7575  2.7413  1.5238
10029TIP3   OH251577   0.402   1.341  12.480 -0.1495 -0.1504 -0.5600
10029TIP3    H151578   0.336   1.366  12.545  0.9087  0.6183  0.2236
10029TIP3    H251579   0.380   1.250  12.458 -1.2676 -0.0107 -0.0722
10030TIP3   OH251580   2.411   3.739   1.414 -0.2619  0.7026  0.1554
10030TIP3    H151581   2.498   3.724   1.378 -0.7154 -2.4705  0.2644
10030TIP3    H251582   2.356   3.759   1.338 -0.2533 -1.2988 -0.3851
10031TIP3   OH251583   2.070   3.188   6.385  0.2690  0.0019  0.1981
10031TIP3    H151584   2.050   3.250   6.315  2.4855 -0.1476 -0.6088
10031TIP3    H251585   2.148   3.223   6.427  0.0404 -0.8984  1.3921
10032TIP3   OH251586   6.487   5.209   6.052  0.3447  0.7371 -0.2357
10032TIP3    H151587   6.566   5.247   6.013  0.8461 -1.0825 -1.0521
10032TIP3    H251588   6.458   5.144   5.988 -1.5883  1.0889  0.2602
10033TIP3   OH251589   5.602   0.656  17.110  0.4423  0.7141  0.0198
10033TIP3    H151590   5.653   0.633  17.033  1.8300  2.6120  0.3456
10033TIP3    H251591   5.577   0.748  17.096 -1.0998  0.4440  0.8443
10034TIP3   OH251592   4.243   2.371   0.392  0.4707 -0.3880  0.3648
10034TIP3    H151593   4.323   2.320   0.405  0.9136  0.5619  1.4284
10034TIP3    H251594   4.210   2.387   0.480 -0.1444  0.4069 -0.0006
10035TIP3   OH251595   3.225   4.366   6.142  0.0350 -0.1582  0.7109
10035TIP3    H151596   3.241   4.376   6.236 -0.1162 -0.9325  0.8222
10035TIP3    H251597   3.244   4.274   6.124  0.1445  0.0075 -0.0371
10036TIP3   OH251598   4.514   2.036   2.093  0.4828 -0.2534 -0.6088
10036TIP3    H151599   4.594   2.025   2.144  1.4848  0.3632 -2.0375
10036TIP3    H251600   4.538   2.011   2.004 -0.7777  0.4075 -1.1529
10037TIP3   OH251601   0.695   5.999   3.008 -0.3391 -0.0230 -0.1730
10037TIP3    H151602   0.719   5.947   3.085  0.8984 -0.4317 -0.8224
10037TIP3    H251603   0.617   5.957   2.974 -0.8991  0.1575  0.8461
10038TIP3   OH251604   1.648   2.200  12.450  0.0666 -0.0345  0.1384
10038TIP3    H151605   1.568   2.251  12.459  0.8514  1.4212 -0.9117
10038TIP3    H251606   1.685   2.199  12.539 -0.8149 -0.2327  0.5089
10039TIP3   OH251607   6.346   5.661  11.488 -0.2147  0.0382  0.4141
10039TIP3    H151608   6.283   5.731  11.475 -0.5114  0.3179  3.0580
10039TIP3    H251609   6.295   5.580  11.477 -0.6716  0.2508  0.9775
10040TIP3   OH251610   0.299   2.794   1.988  0.1201 -0.3421 -0.0818
10040TIP3    H151611   0.334   2.726   1.930 -2.3963 -0.1554 -1.9003
10040TIP3    H251612   0.287   2.870   1.932 -2.5456 -0.2065  0.5777
10041TIP3   OH251613   6.737   3.277  11.709 -0.2911  0.0226  0.0354
10041TIP3    H151614   6.737   3.373  11.701 -0.7087  0.1607  1.4542
10041TIP3    H251615   6.829   3.252  11.697 -0.2357  0.5682 -0.6865
10042TIP3   OH251616   2.747   2.195  11.751 -0.1601 -0.5313 -0.1718
10042TIP3    H151617   2.691   2.272  11.742  0.1210 -0.2657  0.3264
10042TIP3    H251618   2.837   2.229  11.744 -0.0551 -0.9275 -0.7742
10043TIP3   OH251619   4.449   5.499   4.759  0.0115  0.0399 -0.3416
10043TIP3    H151620   4.520   5.563   4.755 -0.1121  0.1449 -0.8607
10043TIP3    H251621   4.396   5.527   4.833  1.0233 -0.5704  0.6370
10044TIP3   OH251622   1.214   5.749   1.621  0.6623 -0.4350  0.2260
10044TIP3    H151623   1.203   5.667   1.574  1.2968 -0.0431 -0.6106
10044TIP3    H251624   1.220   5.816   1.553  2.9310 -0.0164  0.7965
10045TIP3   OH251625   4.628   6.586  12.139  0.3171 -0.5428  0.1083
10045TIP3    H151626   4.716   6.582  12.100 -0.0406 -0.1088 -0.7625
10045TIP3    H251627   4.626   6.515  12.202  0.8457 -1.3961 -0.8197
10046TIP3   OH251628   5.127   0.020  12.134 -0.3424  0.2094  0.2668
10046TIP3    H151629   5.062  -0.007  12.069 -0.0278 -1.1346  0.5037
10046TIP3    H251630   5.204   0.042  12.083  0.2291 -1.7999  0.2346
10047TIP3   OH251631   5.955   3.592  11.247 -0.9754  0.0536  0.2563
10047TIP3    H151632   5.965   3.502  11.219  2.7565 -0.4400  2.8027
10047TIP3    H251633   6.014   3.642  11.191 -0.4393  0.3769  1.0897
10048TIP3   OH251634   0.325   4.064   4.100 -0.2333 -0.6919  0.0413
10048TIP3    H151635   0.269   4.075   4.023 -3.5353  0.9034  2.5335
10048TIP3    H251636   0.352   4.153   4.123  1.9505 -1.2874 -0.0859
10049TIP3   OH251637   4.255   5.022   1.165  0.0342  0.4423  0.2602
10049TIP3    H151638   4.189   4.990   1.226 -0.9814 -0.5967 -1.3439
10049TIP3    H251639   4.215   5.097   1.123 -0.0573 -0.0927 -0.6046
10050TIP3   OH251640   2.449   2.375   0.869  0.2267 -0.1094 -0.3071
10050TIP3    H151641   2.414   2.286   0.877 -1.3988  0.4020 -1.4689
10050TIP3    H251642   2.465   2.385   0.775  0.6143  0.7535 -0.1498
10051TIP3   OH251643   4.556   6.063   4.143  0.4892  1.0581 -0.1388
10051TIP3    H151644   4.590   6.151   4.131  1.8378  0.6811  0.7922
10051TIP3    H251645   4.619   6.006   4.098  0.8474  0.3878  1.1957
10052TIP3   OH251646   5.942   6.664  16.905 -0.0494  1.1936 -0.3617
10052TIP3    H151647   5.857   6.705  16.897 -0.6204 -0.2832 -2.4446
10052TIP3    H251648   5.935   6.608  16.982 -1.8326 -0.7919 -1.8979
10053TIP3   OH251649   0.896   0.047  16.231  0.0523  0.0745 -0.2491
10053TIP3    H151650   0.886  -0.045  16.253  2.0594 -0.7126 -2.5107
10053TIP3    H251651   0.860   0.055  16.143 -1.3236  1.7394  0.4301
10054TIP3   OH251652   2.484   0.184  12.786  0.1483 -0.2335  0.0592
10054TIP3    H151653   2.470   0.264  12.735 -0.6412 -1.7118 -2.1023
10054TIP3    H251654   2.570   0.152  12.757 -0.8487 -1.7404 -1.3150
10055TIP3   OH251655   4.060   0.236   4.409  0.3408 -0.2747  0.0978
10055TIP3    H151656   4.148   0.199   4.399  0.4495 -0.3812  1.2894
10055TIP3    H251657   4.012   0.207   4.331  1.0834 -1.0313 -0.0838
10056TIP3   OH251658   2.114   5.751  13.916 -0.0153 -0.2681  0.3682
10056TIP3    H151659   2.133   5.667  13.959  0.7273 -0.1589  0.2571
10056TIP3    H251660   2.181   5.760  13.848  0.8614  1.1232  1.3734
10057TIP3   OH251661   5.423   5.361   0.468  0.3300  0.1166  0.2080
10057TIP3    H151662   5.337   5.397   0.443  0.7506  1.1646  0.2575
10057TIP3    H251663   5.486   5.416   0.421  0.9970 -0.1862  0.7520
10058TIP3   OH251664   4.929   1.282  15.100 -0.5561  0.0904 -0.1865
10058TIP3    H151665   4.837   1.284  15.075  0.0327 -0.2261 -2.4235
10058TIP3    H251666   4.968   1.212  15.047  0.9484  0.1230  0.8335
10059TIP3   OH251667   1.344   0.686   2.082  0.3661  0.2825  0.7265
10059TIP3    H151668   1.368   0.627   2.010 -0.5483 -0.6085  1.1362
10059TIP3    H251669   1.389   0.651   2.158 -1.6977 -1.0488  1.3715
10060TIP3   OH251670   2.017   3.078  10.987 -0.0779 -0.7134 -0.8140
10060TIP3    H151671   2.093   3.095  10.931 -0.5596  0.8060 -1.0266
10060TIP3    H251672   1.986   3.165  11.013 -0.3011 -1.3610  1.2321
10061TIP3   OH251673   1.381   0.278  10.586 -0.7622  0.2223 -0.1043
10061TIP3    H151674   1.363   0.246  10.497 -1.3944  1.8713 -0.5881
10061TIP3    H251675   1.376   0.200  10.641 -1.6899 -0.6057 -1.3360
10062TIP3   OH251676   2.446   1.099  17.174 -0.6430  0.0086  0.0428
10062TIP3    H151677   2.541   1.097  17.166 -0.7219 -0.8703 -0.7792
10062TIP3    H251678   2.424   1.027  17.232 -0.7510  0.7366  0.9118
10063TIP3   OH251679   0.912   5.360  10.882 -0.2816  0.1849 -0.1280
10063TIP3    H151680   0.936   5.337  10.793  0.6399 -0.9809  0.4208
10063TIP3    H251681   0.817   5.348  10.885 -0.0164 -2.0355 -0.2877
10064TIP3   OH251682   5.737   5.643  15.355  0.3611  0.2787  0.4173
10064TIP3    H151683   5.830   5.655  15.373  0.1179  1.4673  0.8955
10064TIP3    H251684   5.693   5.707  15.411 -0.8467 -1.4689  1.4932
10065TIP3   OH251685   6.603   5.289  13.198 -0.3603 -0.0615 -0.4046
10065TIP3    H151686   6.687   5.247  13.218 -0.2959  0.4587  0.4213
10065TIP3    H251687   6.559   5.227  13.140 -0.1341 -1.1194  0.5470
10066TIP3   OH251688   6.512   3.034  16.245 -0.8308  0.1476  0.1529
10066TIP3    H151689   6.449   2.962  16.237 -0.3620 -0.3606  0.9176
10066TIP3    H251690   6.597   2.991  16.255 -0.5318  0.8043  0.5017
10067TIP3   OH251691   5.555   1.745  17.089  0.4795 -0.2795  0.5981
10067TIP3    H151692   5.494   1.814  17.116  0.2192  0.2143 -1.2057
10067TIP3    H251693   5.505   1.664  17.097  0.0367 -0.0181  0.4725
10068TIP3   OH251694   5.947   6.126   2.747 -0.3157 -0.4510 -0.1383
10068TIP3    H151695   6.020   6.140   2.808  0.7087 -2.7352 -0.7423
10068TIP3    H251696   5.957   6.194   2.680 -0.0696  0.6253  0.9840
10069TIP3   OH251697   6.385   2.499   4.795 -0.0619  0.5325 -0.8925
10069TIP3    H151698   6.390   2.504   4.700 -0.4643 -0.0493 -0.9458
10069TIP3    H251699   6.380   2.405   4.814  3.2647  0.4123 -0.1465
10070TIP3   OH251700   3.538   2.477  17.091 -0.8357 -0.4801 -0.0020
10070TIP3    H151701   3.512   2.535  17.019 -0.3274  0.3932  0.5067
10070TIP3    H251702   3.536   2.533  17.169  0.2250 -1.0006  0.4105
10071TIP3   OH251703   3.226   3.796   3.890 -0.1893 -0.0497 -0.6185
10071TIP3    H151704   3.291   3.827   3.827 -0.1739  4.8469  1.5508
10071TIP3    H251705   3.142   3.824   3.854 -0.4091  0.5038  0.3246
10072TIP3   OH251706   4.482   2.975   5.590  0.0524 -0.5769  0.1455
10072TIP3    H151707   4.409   2.916   5.609 -0.4069 -0.9808 -2.7069
10072TIP3    H251708   4.450   3.031   5.520  0.8476  2.4326  2.1097
10073TIP3   OH251709   5.570   5.541  16.242  0.4659  0.4088 -0.4865
10073TIP3    H151710   5.619   5.462  16.264  2.5970  1.8376  0.1054
10073TIP3    H251711   5.564   5.540  16.146  0.9813 -0.1861 -0.5119
10074TIP3   OH251712   0.499   3.511  11.626 -0.0234  1.0555 -0.0480
10074TIP3    H151713   0.437   3.476  11.690  0.3346 -0.7599 -0.6877
10074TIP3    H251714   0.556   3.569  11.678  0.7346 -0.9708  1.4269
10075TIP3   OH251715   6.332   4.070   5.898  1.1838  0.1920  0.3774
10075TIP3    H151716   6.343   4.143   5.959  0.9709  0.5890 -0.0589
10075TIP3    H251717   6.379   3.997   5.939  1.0170  0.4519  1.0269
10076TIP3   OH251718   5.874   5.974  12.688 -0.0116 -0.1410 -0.2040
10076TIP3    H151719   5.893   6.054  12.638 -0.3041 -0.1332 -0.3005
10076TIP3    H251720   5.822   6.004  12.762  1.2740 -0.0035  0.6716
10077TIP3   OH251721   0.884   3.234  15.224 -0.0045  0.3249 -0.1522
10077TIP3    H151722   0.958   3.205  15.171  1.1299  2.3724  0.2678
10077TIP3    H251723   0.889   3.330  15.222 -1.9229  0.4668  0.8988
10078TIP3   OH251724   4.664   1.906   1.291 -0.1776 -0.0632  0.4794
10078TIP3    H151725   4.595   1.952   1.243  0.1082 -0.1721 -0.0524
10078TIP3    H251726   4.661   1.941   1.379  0.6901  1.7214 -0.1648
10079TIP3   OH251727   4.543   5.328   5.401 -0.6548  0.8285  0.4336
10079TIP3    H151728   4.474   5.392   5.387 -0.4594  0.6643 -1.4998
10079TIP3    H251729   4.622   5.372   5.369 -0.1926  0.3368  0.8972
10080TIP3   OH251730   5.734   3.407  13.263 -0.4004  0.2752 -0.2972
10080TIP3    H151731   5.823   3.440  13.246 -0.7184  1.4272  0.2104
10080TIP3    H251732   5.747   3.333  13.321  0.0996  1.9654  1.8101
10081TIP3   OH251733   0.179   1.703   3.199 -0.1730 -0.4072  0.3781
10081TIP3    H151734   0.128   1.740   3.271 -0.8191 -0.8968  0.1784
10081TIP3    H251735   0.162   1.761   3.125 -2.7830 -2.1780 -0.4800
10082TIP3   OH251736   1.708   2.538  16.867  0.5590  0.5628  0.1521
10082TIP3    H151737   1.663   2.618  16.894 -1.2318  0.0505 -1.2335
10082TIP3    H251738   1.717   2.547  16.772  0.4990 -0.8081  0.0103
10083TIP3   OH251739   4.491   3.388  15.630 -0.3225 -0.4690  0.2758
10083TIP3    H151740   4.540   3.310  15.604  0.1130 -0.6632  1.6315
10083TIP3    H251741   4.442   3.360  15.707  3.2348  1.7717  3.5000
10084TIP3   OH251742   0.414   3.547   3.280 -0.0117 -0.1852  0.6932
10084TIP3    H151743   0.325   3.521   3.255 -0.1425  1.2210 -0.3991
10084TIP3    H251744   0.468   3.471   3.258 -0.6283 -0.2312 -0.7579
10085TIP3   OH251745   2.680   2.416   2.670  0.6438  0.0146 -0.4310
10085TIP3    H151746   2.760   2.468   2.669  1.1728 -0.7808  0.0409
10085TIP3    H251747   2.709   2.327   2.691 -0.4983 -0.0377  1.0219
10086TIP3   OH251748   5.781   2.814  11.675 -0.1300  0.0081  0.1846
10086TIP3    H151749   5.829   2.743  11.633  0.7282 -0.6215  2.1550
10086TIP3    H251750   5.848   2.879  11.699 -0.5061  0.0801  1.0848
10087TIP3   OH251751   2.213   3.176  14.994 -0.2394 -0.1742  0.2243
10087TIP3    H151752   2.235   3.267  14.972 -0.0769 -0.5325 -1.1710
10087TIP3    H251753   2.134   3.158  14.943 -1.1129 -0.3699  1.6149
10088TIP3   OH251754   6.119   3.855   5.837  0.2433 -0.3816 -0.4434
10088TIP3    H151755   6.166   3.772   5.834  0.4774 -0.2966  0.6810
10088TIP3    H251756   6.186   3.920   5.857 -0.0238  0.0177 -0.8294
10089TIP3   OH251757   1.769   3.590   5.479 -0.8978  0.1981 -0.8446
10089TIP3    H151758   1.860   3.606   5.453 -0.6955 -2.0130 -1.5551
10089TIP3    H251759   1.757   3.644   5.557  1.8979 -1.6056  0.9146
10090TIP3   OH251760   1.725   6.142  16.347 -0.1255 -0.4905  0.5169
10090TIP3    H151761   1.635   6.108  16.353 -0.2658 -0.1031  0.6759
10090TIP3    H251762   1.744   6.174  16.435 -0.7461  1.6884 -0.1109
10091TIP3   OH251763   4.204   4.261  15.450  0.3747 -0.0985 -0.5130
10091TIP3    H151764   4.273   4.200  15.476 -1.5320 -2.0205  0.1367
10091TIP3    H251765   4.177   4.303  15.532 -0.1699 -0.3555 -0.5576
10092TIP3   OH251766   5.213   1.734   3.023  0.0387 -0.2747  0.4230
10092TIP3    H151767   5.254   1.679   2.957  0.3990  0.2560  0.1961
10092TIP3    H251768   5.156   1.793   2.973 -1.5054 -1.4296  0.7828
10093TIP3   OH251769   2.676   6.811   2.387 -0.2606  0.3265 -0.2213
10093TIP3    H151770   2.722   6.769   2.315 -1.7110  0.2093 -1.0983
10093TIP3    H251771   2.630   6.884   2.347  0.9848  1.8406  1.0324
10094TIP3   OH251772   0.626   2.823  15.792 -0.2834  0.2086  0.0741
10094TIP3    H151773   0.675   2.837  15.711 -0.3792 -2.0808 -0.3996
10094TIP3    H251774   0.692   2.830  15.862  0.1216  0.3315 -0.3181
10095TIP3   OH251775   6.009   4.084   1.417 -0.3765  0.5392  0.5665
10095TIP3    H151776   5.967   4.152   1.365 -1.0169 -0.1956  0.1109
10095TIP3    H251777   6.099   4.115   1.429 -0.5073  1.1978 -0.1199
10096TIP3   OH251778   0.550   2.042   3.772 -0.0101  0.5281  0.3908
10096TIP3    H151779   0.640   2.060   3.746  0.6399  0.6485  2.5998
10096TIP3    H251780   0.558   1.971   3.837 -1.6200 -0.3754 -0.3596
10097TIP3   OH251781   5.184   0.801   6.659 -0.1749  0.1786  0.6234
10097TIP3    H151782   5.090   0.782   6.657 -0.0711 -0.2916 -0.0299
10097TIP3    H251783   5.201   0.844   6.575 -0.5265  3.7994  2.3396
10098TIP3   OH251784   0.362   5.414  15.897 -0.0661 -0.4445 -0.6354
10098TIP3    H151785   0.405   5.363  15.966 -0.5992 -1.3195 -0.9415
10098TIP3    H251786   0.408   5.498  15.896  1.4272 -1.2643 -0.7596
10099TIP3   OH251787   1.030   5.082  12.343  0.6857  0.8370 -0.1141
10099TIP3    H151788   0.937   5.061  12.340  1.2370 -1.5870 -1.4545
10099TIP3    H251789   1.033   5.172  12.377 -2.1920  1.4406 -1.3074
10100TIP3   OH251790   3.402   3.513  13.402 -0.2706 -0.3610  0.1585
10100TIP3    H151791   3.415   3.605  13.379 -1.1308  0.1076  1.4633
10100TIP3    H251792   3.483   3.488  13.447 -0.1962 -0.1195  0.1600
10101TIP3   OH251793   0.808   1.423  13.421 -0.3544  0.2401  0.6623
10101TIP3    H151794   0.820   1.517  13.432 -0.9090  0.0809  2.8625
10101TIP3    H251795   0.715   1.412  13.401 -0.2278  0.1818  0.0998
10102TIP3   OH251796   1.535   5.136  15.072  0.0298  0.3997  0.1234
10102TIP3    H151797   1.496   5.214  15.112 -3.3132  0.3019 -2.6977
10102TIP3    H251798   1.475   5.065  15.093  0.0032 -0.2784 -2.1189
10103TIP3   OH251799   4.057   0.728   4.697  0.0185  0.7309 -0.2137
10103TIP3    H151800   3.976   0.779   4.693 -1.3968 -1.6007 -2.0450
10103TIP3    H251801   4.038   0.657   4.757  0.5754 -0.0627 -0.9681
10104TIP3   OH251802   4.058   1.218   1.769  0.5691  0.2900  0.0320
10104TIP3    H151803   4.097   1.175   1.844  0.5492 -1.4972 -0.9514
10104TIP3    H251804   4.064   1.154   1.698 -1.6864  0.9735 -0.8362
10105TIP3   OH251805   0.230   1.385   2.798 -0.1468 -0.0633  0.3709
10105TIP3    H151806   0.271   1.468   2.774  0.2846 -0.6356 -0.9127
10105TIP3    H251807   0.263   1.367   2.886  2.1245 -0.3226 -0.4860
10106TIP3   OH251808   1.461   5.476   1.455  0.3048  0.5704  0.0139
10106TIP3    H151809   1.456   5.562   1.413  1.6910  0.9788  0.6366
10106TIP3    H251810   1.483   5.415   1.385 -2.4942  0.3875 -0.7874
10107TIP3   OH251811   0.433   2.012   4.969  0.2254 -0.2389  0.0068
10107TIP3    H151812   0.460   2.058   4.890 -2.2315  0.6672 -0.3428
10107TIP3    H251813   0.365   2.067   5.007  0.6840 -1.1454  2.2597
10108TIP3   OH251814   5.219   1.033   4.240  0.1897  0.2724 -0.2927
10108TIP3    H151815   5.263   1.115   4.215  0.8745 -0.7572 -2.6358
10108TIP3    H251816   5.289   0.978   4.274 -0.2691  0.6160  1.2624
10109TIP3   OH251817   4.101   6.575   6.115 -0.1336 -0.5070 -0.3065
10109TIP3    H151818   4.034   6.510   6.138  1.0439 -0.9352  2.0609
10109TIP3    H251819   4.180   6.546   6.161  1.4564  0.4947 -2.3409
10110TIP3   OH251820   0.770   2.694   5.240 -0.3377  0.0578 -0.7068
10110TIP3    H151821   0.792   2.611   5.284  0.1547 -1.1494 -3.1628
10110TIP3    H251822   0.848   2.748   5.251  0.6368 -1.0607 -1.9802
10111TIP3   OH251823   2.048   4.763   3.226 -0.0622  0.1222 -0.4267
10111TIP3    H151824   2.136   4.725   3.234 -0.6385 -1.2354 -0.4378
10111TIP3    H251825   2.063   4.858   3.225  1.4536 -0.1050 -1.0279
10112TIP3   OH251826   0.582   2.554  16.056  0.1487 -0.1864 -0.3216
10112TIP3    H151827   0.630   2.508  15.987  0.4387  0.6907 -0.7088
10112TIP3    H251828   0.501   2.582  16.014  0.2259  0.1492 -0.2515
10113TIP3   OH251829   0.451   3.438  13.772  0.0047 -0.2686  0.2210
10113TIP3    H151830   0.357   3.452  13.756  0.1361  0.0229 -0.3359
10113TIP3    H251831   0.473   3.499  13.842  0.1423  0.9185 -0.8310
10114TIP3   OH251832   3.045   0.923   2.333  0.3927 -0.4463  0.1681
10114TIP3    H151833   3.010   0.987   2.270 -0.7385 -1.0967  0.1177
10114TIP3    H251834   3.022   0.838   2.296  1.1362 -0.8732  0.6697
10115TIP3   OH251835   1.646   6.540   1.997 -0.2815 -0.0704 -0.1463
10115TIP3    H151836   1.729   6.539   1.949 -0.9660  0.9127 -1.4032
10115TIP3    H251837   1.581   6.560   1.930 -1.3276  0.9249  1.1530
10116TIP3   OH251838   0.219   4.706   4.047  0.5632  0.7235 -0.4720
10116TIP3    H151839   0.189   4.774   4.108 -1.1366 -1.0461  0.7117
10116TIP3    H251840   0.170   4.722   3.967 -1.9558 -0.7594  0.7139
10117TIP3   OH251841   4.641   2.566   4.209  0.1985 -0.5201 -0.2876
10117TIP3    H151842   4.569   2.548   4.149  0.2737  0.0025 -0.5384
10117TIP3    H251843   4.714   2.516   4.173  0.5372  0.6267 -1.2553
10118TIP3   OH251844   2.374   6.487  14.132  0.6760 -0.2099  0.2465
10118TIP3    H151845   2.368   6.515  14.223  1.9944  1.3827 -0.1329
10118TIP3    H251846   2.421   6.404  14.135 -0.8544 -1.0685  1.1522
10119TIP3   OH251847   0.279   3.535   0.567  0.7001 -0.6551 -0.5933
10119TIP3    H151848   0.191   3.503   0.586  1.2944 -3.2012 -1.8405
10119TIP3    H251849   0.265   3.613   0.513 -0.7928 -0.7384 -0.3392
10120TIP3   OH251850   3.911   1.260  14.273  0.1333  0.0572  0.5139
10120TIP3    H151851   3.940   1.172  14.250  0.5786  0.2804  0.2245
10120TIP3    H251852   3.930   1.314  14.196  1.0495  0.6670  1.1545
10121TIP3   OH251853   3.553   3.105  13.298 -0.0577  0.4196  0.2457
10121TIP3    H151854   3.596   3.052  13.231  2.4454  2.2266  0.3071
10121TIP3    H251855   3.482   3.051  13.331  1.6250 -2.3547 -0.5498
10122TIP3   OH251856   0.178   4.191  12.441 -0.2428 -0.1549 -0.3271
10122TIP3    H151857   0.169   4.124  12.374 -1.1102 -2.3025  1.8871
10122TIP3    H251858   0.237   4.153  12.506 -1.4955  0.8353  1.4349
10123TIP3   OH251859   4.387   0.766  16.910  0.2082  0.4297  0.2202
10123TIP3    H151860   4.336   0.700  16.864  2.3344 -0.7576 -0.5146
10123TIP3    H251861   4.407   0.832  16.843  1.4913 -0.2231 -0.0556
10124TIP3   OH251862   6.500   0.891   0.904  0.1575 -0.1748 -0.3236
10124TIP3    H151863   6.562   0.917   0.836  0.3099  0.0781 -0.0868
10124TIP3    H251864   6.535   0.808   0.937  0.1314 -0.2531 -0.4921
10125TIP3   OH251865   1.885   4.399  12.049 -0.0009 -0.0660 -0.8198
10125TIP3    H151866   1.873   4.374  11.957  0.5417 -1.3133 -0.5600
10125TIP3    H251867   1.919   4.489  12.045 -0.2911  0.0060 -1.8201
10126TIP3   OH251868   0.332   5.186  16.447  0.0732 -0.3210 -0.3915
10126TIP3    H151869   0.372   5.140  16.520  0.7713  2.6226  1.1869
10126TIP3    H251870   0.251   5.139  16.429  1.1726 -2.6365  0.5078
10127TIP3   OH251871   1.834   4.339  12.829  0.1541 -0.2266  0.2869
10127TIP3    H151872   1.881   4.406  12.779  0.8633 -0.3734  0.7504
10127TIP3    H251873   1.743   4.348  12.802  0.2864  0.7629  0.1605
10128TIP3   OH251874   0.186   4.632  10.998 -0.0915  0.0575  0.4627
10128TIP3    H151875   0.199   4.629  10.903  1.5645  0.5293  0.6592
10128TIP3    H251876   0.150   4.546  11.020 -1.1636  0.2055 -0.6886
10129TIP3   OH251877   3.644   3.478  13.555 -0.4791 -0.3042  0.7135
10129TIP3    H151878   3.729   3.521  13.541  0.8166 -2.3807  1.8202
10129TIP3    H251879   3.606   3.524  13.629  0.0642  0.1473  0.7143
10130TIP3   OH251880   5.132   3.087   4.561  0.5692 -0.2312 -0.3874
10130TIP3    H151881   5.193   3.023   4.524 -1.4085 -1.2299 -2.0263
10130TIP3    H251882   5.052   3.037   4.577 -0.0149  1.1876  1.1699
10131TIP3   OH251883   3.567   5.167   1.334 -0.2352  0.6941  0.3531
10131TIP3    H151884   3.656   5.139   1.356 -0.0876  0.1139 -0.8865
10131TIP3    H251885   3.521   5.171   1.417  0.4770 -0.7025  0.8205
10132TIP3   OH251886   6.443   6.580   0.246  0.0605  0.1878 -0.8429
10132TIP3    H151887   6.441   6.675   0.233 -0.7555  0.1371 -1.1410
10132TIP3    H251888   6.515   6.549   0.192  0.8572  0.7340 -0.1009
10133TIP3   OH251889   1.417   3.627   4.222  0.2636  0.1140  0.1038
10133TIP3    H151890   1.450   3.717   4.219 -0.8762  0.5419  0.0634
10133TIP3    H251891   1.495   3.573   4.223  0.9707  1.1277  0.6289
10134TIP3   OH251892   3.047   3.453   6.477 -0.0917  0.4709 -0.5759
10134TIP3    H151893   3.124   3.510   6.465 -0.3059  0.3247 -2.7104
10134TIP3    H251894   2.984   3.508   6.524  0.1261  1.6323 -1.6288
10135TIP3   OH251895   1.258   1.114   0.850  0.9859  0.1506  0.3893
10135TIP3    H151896   1.244   1.202   0.813 -0.2584 -1.1340 -2.3799
10135TIP3    H251897   1.179   1.097   0.900  1.0894  0.4917  0.6705
10136TIP3   OH251898   0.650   5.174  14.654  0.2269 -0.0970  0.7408
10136TIP3    H151899   0.588   5.146  14.722  0.2937 -1.4976  0.2440
10136TIP3    H251900   0.594   5.208  14.584  0.1247  0.6500  1.1798
10137TIP3   OH251901   6.378   1.064  15.731  0.1416 -0.1770 -0.1962
10137TIP3    H151902   6.349   1.102  15.648  2.1719  0.0695 -0.8203
10137TIP3    H251903   6.301   1.019  15.765 -1.0754  0.7895 -1.5925
10138TIP3   OH251904   0.503   4.111   6.377 -0.0574  0.3131 -0.0722
10138TIP3    H151905   0.439   4.041   6.376  1.9299 -1.5610 -1.2315
10138TIP3    H251906   0.554   4.097   6.457 -0.0417  0.8040  0.0082
10139TIP3   OH251907   4.789   3.006  14.168 -0.3344 -0.0151  0.0919
10139TIP3    H151908   4.740   2.928  14.142  2.2061 -0.8393 -2.5141
10139TIP3    H251909   4.857   2.973  14.227 -0.4140  0.4926  0.4657
10140TIP3   OH251910   2.839   2.483   0.231 -0.6203 -0.2884 -0.3627
10140TIP3    H151911   2.851   2.417   0.163  0.3505  1.0738 -1.5242
10140TIP3    H251912   2.926   2.491   0.271 -0.6333  0.6054 -0.5189
10141TIP3   OH251913   5.205   0.253   3.456  0.6494  0.1296  0.4181
10141TIP3    H151914   5.167   0.238   3.370  1.7601  0.9300 -0.2316
10141TIP3    H251915   5.256   0.334   3.446  2.6117 -0.9785  1.2163
10142TIP3   OH251916   5.235   0.499  16.950  0.1893  0.0247  0.3893
10142TIP3    H151917   5.258   0.479  17.041 -1.3893 -1.0720  0.5842
10142TIP3    H251918   5.225   0.413  16.909  0.9954  0.5209 -0.8592
10143TIP3   OH251919   3.477   1.773  14.680 -0.2413  0.4760 -0.4636
10143TIP3    H151920   3.443   1.861  14.694  0.3078  0.5696  0.3734
10143TIP3    H251921   3.409   1.715  14.713  0.0132  0.6386  0.3782
10144TIP3   OH251922   3.967   6.527  12.127 -0.6732  0.9645  0.3908
10144TIP3    H151923   3.943   6.438  12.152  0.7680  0.5648  0.3849
10144TIP3    H251924   3.905   6.550  12.057 -1.8479  0.4372  1.2577
10145TIP3   OH251925   4.459   6.180  16.317  0.1865 -0.0847  0.0305
10145TIP3    H151926   4.386   6.226  16.276  0.0766 -1.4177 -1.3338
10145TIP3    H251927   4.417   6.116  16.374  0.2760 -0.5599 -0.4277
10146TIP3   OH251928   5.759   6.694  16.255  0.2015  0.0655 -0.2668
10146TIP3    H151929   5.810   6.623  16.295 -2.5138 -2.8457 -1.7638
10146TIP3    H251930   5.804   6.712  16.173 -0.4873 -1.6860 -1.0462
10147TIP3   OH251931   5.108   3.102   4.223 -0.3156  0.1924 -0.0044
10147TIP3    H151932   5.193   3.139   4.247 -0.2053  0.5471 -0.9210
10147TIP3    H251933   5.064   3.088   4.307  0.4120  0.5640  0.4491
10148TIP3   OH251934   3.522   3.428  13.982  0.8643 -0.3194  0.1397
10148TIP3    H151935   3.502   3.379  14.062 -1.4595 -0.9511 -0.7782
10148TIP3    H251936   3.511   3.364  13.912  1.6155  0.5559 -0.7822
10149TIP3   OH251937   1.534   1.552  14.933  0.6520  0.6199 -0.2927
10149TIP3    H151938   1.480   1.473  14.930  0.8215  0.3817  1.7491
10149TIP3    H251939   1.471   1.624  14.926  0.5097  0.3168 -2.2830
10150TIP3   OH251940   2.469   5.770   0.137  0.0766  0.2539 -0.6475
10150TIP3    H151941   2.543   5.830   0.140 -0.0642  0.3295  1.5908
10150TIP3    H251942   2.395   5.825   0.109  0.1448  0.9292  0.4876
10151TIP3   OH251943   5.870   2.942  16.392  0.1932 -0.5358 -0.4884
10151TIP3    H151944   5.901   3.017  16.442  0.8865 -0.6748 -0.6944
10151TIP3    H251945   5.793   2.911  16.439  0.9538 -0.7864  0.5991
10152TIP3   OH251946   4.730   2.711  10.746 -0.0081 -0.2917 -0.2767
10152TIP3    H151947   4.739   2.806  10.737  1.3480 -0.3329  0.5163
10152TIP3    H251948   4.661   2.687  10.683  1.0523  0.9406 -1.9432
10153TIP3   OH251949   2.476   2.391   2.003  0.1666  0.2945 -0.0646
10153TIP3    H151950   2.427   2.310   2.017 -1.2267  1.0870 -0.2148
10153TIP3    H251951   2.451   2.419   1.914 -0.7313  1.7758  0.6297
10154TIP3   OH251952   3.481   6.298   4.755 -0.4051 -0.0817  0.0870
10154TIP3    H151953   3.530   6.378   4.740  0.4527 -0.1038  2.5705
10154TIP3    H251954   3.400   6.326   4.798  0.4481 -0.6223  2.0970
10155TIP3   OH251955   4.492   3.237   3.248 -0.4822 -0.2670  0.6167
10155TIP3    H151956   4.530   3.156   3.213 -1.3171 -0.5344  0.3222
10155TIP3    H251957   4.441   3.209   3.324  0.0599  0.1159  1.1242
10156TIP3   OH251958   0.924   4.992  11.136  0.1965 -0.6960  0.1765
10156TIP3    H151959   0.832   4.985  11.111  0.0869  0.0455  0.3634
10156TIP3    H251960   0.970   4.937  11.073 -0.3847 -1.1529  0.1468
10157TIP3   OH251961   3.405   0.698   5.299 -0.0266  0.2261 -0.2414
10157TIP3    H151962   3.324   0.744   5.320  0.5089  1.0299  0.0939
10157TIP3    H251963   3.377   0.618   5.255 -1.0489 -0.1402  1.0579
10158TIP3   OH251964   2.810   3.144   4.070 -0.1951  0.0769 -0.1360
10158TIP3    H151965   2.728   3.101   4.046 -1.1891  2.0013 -0.2683
10158TIP3    H251966   2.843   3.093   4.144 -1.4658 -0.7588 -0.1322
10159TIP3   OH251967   6.250   1.881  17.154 -0.3873  0.1739 -0.1507
10159TIP3    H151968   6.328   1.833  17.182 -0.3923  0.9931  1.3047
10159TIP3    H251969   6.202   1.818  17.101 -0.6518 -1.6762  2.1723
10160TIP3   OH251970   1.817   2.458  12.534 -0.5911 -0.8893 -0.1768
10160TIP3    H151971   1.816   2.450  12.629  2.0196  1.5416  0.1075
10160TIP3    H251972   1.741   2.513  12.514 -0.4476 -0.3828  0.6372
10161TIP3   OH251973   2.985   3.698  15.477 -0.8544  0.1039 -0.0987
10161TIP3    H151974   3.005   3.647  15.557 -2.0962 -1.9802 -1.0729
10161TIP3    H251975   2.917   3.759  15.504 -0.3877  0.2575  0.7514
10162TIP3   OH251976   4.147   0.942   5.007 -0.2829  0.1798  0.4457
10162TIP3    H151977   4.149   0.888   5.085  0.3287 -1.9235 -0.9854
10162TIP3    H251978   4.174   0.883   4.936 -2.7172  1.4901 -1.6575
10163TIP3   OH251979   4.387   4.669  12.128  0.0620  0.1696  0.2532
10163TIP3    H151980   4.334   4.736  12.170 -1.1695 -1.5560  1.5628
10163TIP3    H251981   4.333   4.638  12.055 -0.0713 -0.5075  0.6368
10164TIP3   OH251982   1.435   4.600  17.252  0.2514  0.3359 -0.5204
10164TIP3    H151983   1.392   4.647  17.181  1.2774  0.8530 -0.8105
10164TIP3    H251984   1.364   4.574  17.311 -0.6146 -0.1889 -1.7825
10165TIP3   OH251985   3.713   1.412  12.011  0.7946  0.3282  0.7846
10165TIP3    H151986   3.642   1.391  11.951  1.4250  1.0804 -0.2315
10165TIP3    H251987   3.743   1.327  12.045 -0.0018 -0.0429  0.5522
10166TIP3   OH251988   4.025   3.538  15.142 -0.0910 -0.4348  0.3192
10166TIP3    H151989   4.091   3.606  15.155  0.9148 -1.2845 -0.2985
10166TIP3    H251990   3.943   3.577  15.174  0.5493  0.9165  0.3153
10167TIP3   OH251991   4.464   5.007   5.445 -0.0533 -0.5726  0.0636
10167TIP3    H151992   4.433   5.097   5.439  1.1066 -0.2012 -0.6384
10167TIP3    H251993   4.438   4.978   5.532  1.2899  1.1132  1.0640
10168TIP3   OH251994   4.096   5.319   0.818  0.0913 -0.3077  0.1766
10168TIP3    H151995   4.101   5.318   0.913 -0.4128  1.6000  0.2544
10168TIP3    H251996   4.187   5.333   0.789  0.3291 -1.4907  0.3563
10169TIP3   OH251997   2.930   5.834  15.679  0.3711  0.5438  0.2025
10169TIP3    H151998   2.903   5.889  15.753  0.5969 -1.6848  2.0028
10169TIP3    H251999   2.849   5.817  15.631 -0.1027  0.4708  1.0125
10170TIP3   OH252000   4.978   5.731  11.011  0.0616 -0.6310  0.0893
10170TIP3    H152001   5.048   5.725  10.946 -0.9224 -0.1947 -1.0339
10170TIP3    H252002   4.940   5.818  10.997  0.8328  0.0860  2.2924
10171TIP3   OH252003   0.859   1.448  14.399 -0.6026  0.2111  0.2575
10171TIP3    H152004   0.827   1.363  14.370 -0.2270 -0.2879  1.3096
10171TIP3    H252005   0.894   1.488  14.319 -2.6330  0.2382 -0.6441
10172TIP3   OH252006   3.760   4.133  11.717  0.0317  0.1299 -0.1004
10172TIP3    H152007   3.666   4.147  11.709  0.0774  0.8126  0.4457
10172TIP3    H252008   3.798   4.220  11.706  0.5993 -0.1506 -0.3628
10173TIP3   OH252009   6.469   0.715   2.456 -0.1707 -0.2144 -0.0485
10173TIP3    H152010   6.381   0.694   2.486 -0.4400  0.1623 -0.5715
10173TIP3    H252011   6.483   0.657   2.381 -0.0383 -0.1563 -0.0689
10174TIP3   OH252012   5.883   1.797  17.065  0.3536 -0.0651 -0.0137
10174TIP3    H152013   5.806   1.746  17.040  0.0335 -0.5764  1.8920
10174TIP3    H252014   5.956   1.750  17.025 -0.2101 -0.3871 -0.6729
10175TIP3   OH252015   0.596   2.370  16.988  0.3062 -0.2795 -0.2865
10175TIP3    H152016   0.657   2.444  16.994  1.0334 -0.8789 -0.3404
10175TIP3    H252017   0.510   2.412  16.978  0.5555  0.5842  1.0077
10176TIP3   OH252018   3.386   3.930   2.707  0.3480  0.0036  0.1737
10176TIP3    H152019   3.445   3.954   2.778  1.3031 -0.6246 -0.3945
10176TIP3    H252020   3.395   3.835   2.699 -2.1973 -0.3843  1.3441
10177TIP3   OH252021   1.087   5.003  13.347  0.2275  0.7414  0.0554
10177TIP3    H152022   1.088   4.941  13.420  0.6807  0.3245 -0.3017
10177TIP3    H252023   1.000   4.992  13.308  0.8855 -0.8997 -1.0369
10178TIP3   OH252024   2.057   4.706   3.599  0.2364 -0.3443  0.5792
10178TIP3    H152025   2.123   4.699   3.667 -0.1966 -0.4100  0.9999
10178TIP3    H252026   2.019   4.618   3.593  0.2730 -0.3373  0.2594
10179TIP3   OH252027   5.080   6.140  15.225  0.3469 -0.1771  0.3402
10179TIP3    H152028   5.147   6.087  15.268  1.9637  1.9034  0.5021
10179TIP3    H252029   5.052   6.202  15.293  2.1794  2.4633 -1.2088
10180TIP3   OH252030   3.505   4.759  14.312 -0.3709 -0.4339 -0.2579
10180TIP3    H152031   3.426   4.718  14.276 -0.5886  1.4232 -1.9505
10180TIP3    H252032   3.563   4.768  14.236  0.6033  0.2147  0.5653
10181TIP3   OH252033   0.428   0.123  15.069 -0.7445  0.1355  0.1990
10181TIP3    H152034   0.454   0.086  15.153 -0.5647  0.0124  0.0883
10181TIP3    H252035   0.396   0.048  15.018 -1.5913  0.3290  0.4402
10182TIP3   OH252036   5.299   0.241   4.612  0.3613 -0.9223  0.1672
10182TIP3    H152037   5.366   0.197   4.663  1.2315  0.4947  0.2660
10182TIP3    H252038   5.345   0.311   4.566 -1.0364  0.0679  0.2264
10183TIP3   OH252039   3.359   6.519   3.506 -0.2948  0.4256  0.2930
10183TIP3    H152040   3.299   6.528   3.432 -0.5282  1.5938  0.6032
10183TIP3    H252041   3.407   6.602   3.508 -0.4095  0.4742  1.5463
10184TIP3   OH252042   0.426   3.019  11.682  0.4600 -0.2579  0.1027
10184TIP3    H152043   0.346   3.050  11.726  0.2881 -0.5635  0.0051
10184TIP3    H252044   0.418   3.053  11.593  0.4883 -0.1971  0.1236
10185TIP3   OH252045   2.371   6.749   2.833  0.2540 -0.3211  0.1477
10185TIP3    H152046   2.346   6.765   2.742  0.5499 -1.1610 -0.0918
10185TIP3    H252047   2.326   6.817   2.883 -1.2414 -0.8518 -0.4377
10186TIP3   OH252048   4.281   5.512  13.563 -0.4572 -0.0977  0.3808
10186TIP3    H152049   4.207   5.496  13.622 -0.9383 -0.9586 -0.4328
10186TIP3    H252050   4.240   5.530  13.479  0.2256  1.0421  0.2947
10187TIP3   OH252051   5.855   6.077   2.054  0.1176 -0.0928  0.3504
10187TIP3    H152052   5.763   6.058   2.076 -0.5637  1.5426 -0.9482
10187TIP3    H252053   5.897   6.090   2.138 -0.2248 -3.3478  1.1239
10188TIP3   OH252054   5.412   1.679  13.815  0.4790 -0.3484  0.1688
10188TIP3    H152055   5.364   1.651  13.893  1.9256 -1.3477  0.7262
10188TIP3    H252056   5.463   1.602  13.789  3.4110  1.2397  0.8741
10189TIP3   OH252057   0.227   1.636   2.061 -0.1392  0.0541 -0.3813
10189TIP3    H152058   0.159   1.570   2.073 -1.5405  1.7064  1.0406
10189TIP3    H252059   0.192   1.695   1.994 -0.4399  1.2956  0.8467
10190TIP3   OH252060   1.573   2.418  13.661 -0.2727 -0.3837  0.5228
10190TIP3    H152061   1.550   2.436  13.752 -1.6604 -0.2104  0.1576
10190TIP3    H252062   1.534   2.491  13.612 -0.0266 -0.7759 -0.2595
10191TIP3   OH252063   1.564   1.909   2.331  0.0751  0.0874  0.0751
10191TIP3    H152064   1.651   1.922   2.294 -0.2677  0.3072 -0.6671
10191TIP3    H252065   1.536   1.997   2.357  0.0716  0.0181  0.3070
10192TIP3   OH252066   2.058   6.497  12.510 -0.1027 -0.0837 -0.3313
10192TIP3    H152067   2.067   6.550  12.589 -1.8957 -0.7511  0.3606
10192TIP3    H252068   2.019   6.415  12.541 -2.4880  0.3030 -2.1186
10193TIP3   OH252069   6.676   0.265   0.667 -0.0858 -0.0081  0.3863
10193TIP3    H152070   6.593   0.299   0.703 -0.6987 -1.0620 -0.0102
10193TIP3    H252071   6.700   0.194   0.726  0.3524  0.0551  0.2855
10194TIP3   OH252072   1.354   0.383  12.796  0.0042  0.7000  0.9410
10194TIP3    H152073   1.318   0.314  12.741  1.3372  0.5344  0.2601
10194TIP3    H252074   1.392   0.446  12.735  1.1675  0.6986  1.6324
10195TIP3   OH252075   2.464   2.490   1.294 -0.3822 -0.5427 -0.8631
10195TIP3    H152076   2.479   2.397   1.309 -0.8195 -0.5500 -0.4798
10195TIP3    H252077   2.480   2.502   1.200  0.1514 -0.9084 -0.8237
10196TIP3   OH252078   2.815   4.186  14.105  0.3233 -0.1537 -0.5706
10196TIP3    H152079   2.746   4.244  14.072  0.2245  0.0769  0.0376
10196TIP3    H252080   2.788   4.099  14.075 -0.5272 -0.1401  0.1086
10197TIP3   OH252081   6.767   1.395  13.206 -0.1132 -0.3955  0.6298
10197TIP3    H152082   6.813   1.313  13.189 -0.2520 -0.4336  0.4308
10197TIP3    H252083   6.735   1.423  13.120 -0.4675 -0.3739  0.7674
10198TIP3   OH252084   1.177   6.670  16.876 -0.0554 -0.5934 -0.1263
10198TIP3    H152085   1.109   6.736  16.867  1.0645  0.6054  0.0197
10198TIP3    H252086   1.131   6.587  16.869 -1.2589  0.2070 -1.9383
10199TIP3   OH252087   0.696   5.250  16.927 -0.4576 -0.3555 -0.1045
10199TIP3    H152088   0.711   5.155  16.926 -0.4133 -0.3478 -1.0595
10199TIP3    H252089   0.609   5.260  16.967  0.2600 -0.6805  1.5484
10200TIP3   OH252090   2.053   3.162   2.877 -0.4875 -0.3589 -0.2489
10200TIP3    H152091   2.043   3.069   2.897 -0.3577 -0.0966  1.1190
10200TIP3    H252092   1.982   3.182   2.816 -1.5116 -1.0110  0.7067
10201TIP3   OH252093   0.670   2.507   3.855 -0.1794 -0.7718 -0.3633
10201TIP3    H152094   0.612   2.537   3.785 -1.0386 -1.4797  0.0214
10201TIP3    H252095   0.746   2.470   3.809 -0.5108 -0.7906 -0.9061
10202TIP3   OH252096   3.788   4.250  13.952 -0.5587  0.3784 -1.0899
10202TIP3    H152097   3.717   4.188  13.966 -0.6813  0.6290 -0.5783
10202TIP3    H252098   3.842   4.210  13.883 -0.1075 -0.7504 -0.1027
10203TIP3   OH252099   1.763   3.015  13.233 -0.2223 -0.4197 -0.2159
10203TIP3    H152100   1.754   2.938  13.290 -0.1195  0.1450  0.5818
10203TIP3    H252101   1.687   3.069  13.254  0.2581  0.1794 -0.0086
10204TIP3   OH252102   5.627   6.592   1.537 -0.0121  0.1973  0.1471
10204TIP3    H152103   5.606   6.629   1.451  0.6953  0.5475  0.1278
10204TIP3    H252104   5.657   6.503   1.517 -0.8698 -0.0980  0.1257
10205TIP3   OH252105   3.441   1.386   4.398  0.3041  0.0238  0.5739
10205TIP3    H152106   3.519   1.426   4.435 -0.0097 -0.3835  1.7148
10205TIP3    H252107   3.439   1.298   4.437  0.2422 -0.6102 -0.8234
10206TIP3   OH252108   4.321   2.747  17.275 -0.7480 -0.0989 -0.1777
10206TIP3    H152109   4.312   2.669  17.220 -0.1847  0.0938 -0.5523
10206TIP3    H252110   4.343   2.713  17.362  1.2874 -0.2980 -0.7463
10207TIP3   OH252111   0.258   4.582   1.417 -0.5236 -0.3783 -0.3915
10207TIP3    H152112   0.231   4.525   1.488 -2.6042  0.7186 -0.2715
10207TIP3    H252113   0.280   4.665   1.459 -0.7868 -0.0375 -0.9115
10208TIP3   OH252114   4.466   5.392  14.398  0.1623 -0.1028  0.1247
10208TIP3    H152115   4.439   5.437  14.478  0.0695 -0.2254  0.1625
10208TIP3    H252116   4.447   5.299  14.414 -1.5095  0.0750 -0.6992
10209TIP3   OH252117   0.823   6.168   5.105 -0.2216 -0.9270 -0.0657
10209TIP3    H152118   0.804   6.101   5.040 -0.5786 -0.5301 -0.3732
10209TIP3    H252119   0.845   6.119   5.184 -2.8613 -1.4137  0.4036
10210TIP3   OH252120   0.445   2.199  15.907 -0.3096 -0.0427  0.0061
10210TIP3    H152121   0.397   2.280  15.892 -1.5454 -0.5504  1.0719
10210TIP3    H252122   0.452   2.159  15.821 -0.9005  0.5421 -0.3191
10211TIP3   OH252123   2.082   6.277  14.105  0.0473  0.3062 -0.2200
10211TIP3    H152124   2.107   6.251  14.194  0.6076  0.0117 -0.4615
10211TIP3    H252125   2.149   6.341  14.079  0.3346 -0.1924 -0.7215
10212TIP3   OH252126   4.698   1.754   4.062 -0.3163  0.1940 -0.0394
10212TIP3    H152127   4.651   1.767   4.144  0.3683 -1.1646  0.5923
10212TIP3    H252128   4.671   1.667   4.032  0.6188  0.0387 -0.4521
10213TIP3   OH252129   5.212   2.732   4.342 -0.1711  0.4655  0.8647
10213TIP3    H152130   5.147   2.694   4.283  0.4928  0.1344  0.3450
10213TIP3    H252131   5.206   2.678   4.421  0.5265 -0.5212  0.2543
10214TIP3   OH252132   5.894   2.351  14.374 -0.2456  0.0968 -0.3782
10214TIP3    H152133   5.861   2.437  14.347 -0.5917  0.8043  2.1565
10214TIP3    H252134   5.815   2.299  14.390 -0.1413  0.6049  2.0091
10215TIP3   OH252135   0.459   5.258  15.300  0.4807 -0.0288  0.9710
10215TIP3    H152136   0.403   5.334  15.319  1.2831  0.9245 -0.4157
10215TIP3    H252137   0.547   5.294  15.291  0.5134 -0.7343 -2.1057
10216TIP3   OH252138   6.702   5.582   6.136 -0.4310  0.1289 -0.2968
10216TIP3    H152139   6.784   5.537   6.157  0.5751  1.2095 -1.7792
10216TIP3    H252140   6.644   5.562   6.209  1.4100 -0.0213  1.1681
10217TIP3   OH252141   3.286   1.725   3.461  0.1962 -0.1628  0.1184
10217TIP3    H152142   3.331   1.710   3.378 -0.4035  0.0114 -0.2389
10217TIP3    H252143   3.259   1.817   3.457 -1.4487 -0.6613 -0.2811
10218TIP3   OH252144   2.621   5.273   1.163  0.1921  0.2148 -0.4365
10218TIP3    H152145   2.592   5.349   1.112 -1.4508  1.0298  1.6526
10218TIP3    H252146   2.695   5.305   1.214 -0.1182  0.2481 -0.0075
10219TIP3   OH252147   1.007   1.628  14.160  0.2046 -0.1297  0.1415
10219TIP3    H152148   1.062   1.564  14.115 -1.0304  0.4116 -2.2308
10219TIP3    H252149   0.995   1.698  14.095 -3.2615 -0.2523  0.5731
10220TIP3   OH252150   4.518   0.272  15.464  0.3145 -0.2472  0.2684
10220TIP3    H152151   4.438   0.233  15.499  1.0421 -1.4251  0.6479
10220TIP3    H252152   4.569   0.294  15.542  0.9788 -0.8306 -0.0027
10221TIP3   OH252153   6.349   2.393   0.809  0.1448 -0.0483 -0.4487
10221TIP3    H152154   6.401   2.335   0.753  1.1770  1.9981 -1.7028
10221TIP3    H252155   6.336   2.472   0.755  0.5850  1.7173  1.9254
10222TIP3   OH252156   4.418   2.465   4.082  0.4922 -0.3494 -0.2783
10222TIP3    H152157   4.384   2.422   4.161 -2.9012 -0.2479 -1.6220
10222TIP3    H252158   4.340   2.489   4.032  2.5516  0.3245 -3.2925
10223TIP3   OH252159   4.025   1.217   1.464  0.3902  0.0404  0.6054
10223TIP3    H152160   4.062   1.238   1.379 -0.1910 -1.0124  0.0790
10223TIP3    H252161   4.050   1.125   1.479 -1.9306 -0.6714  0.2626
10224TIP3   OH252162   0.791   3.071   5.238 -0.6374  0.2762 -0.0217
10224TIP3    H152163   0.763   3.012   5.168  0.6934 -2.8810  1.9568
10224TIP3    H252164   0.844   3.137   5.194  2.8795 -3.4672 -1.7307
10225TIP3   OH252165   2.940   0.717   4.298  0.5983 -0.2434 -0.0205
10225TIP3    H152166   3.004   0.740   4.365 -0.5499 -0.3294  1.1434
10225TIP3    H252167   2.861   0.765   4.324 -0.2156 -1.2403 -0.6152
10226TIP3   OH252168   2.008   5.898   0.504  0.2327 -0.4368  0.0890
10226TIP3    H152169   2.022   5.919   0.596 -0.9895 -1.5285  0.5415
10226TIP3    H252170   2.092   5.915   0.463  2.0797 -3.7944  2.1714
10227TIP3   OH252171   2.946   1.786  11.653 -0.1640 -0.1803 -0.3567
10227TIP3    H152172   2.941   1.846  11.579 -0.3320 -1.2243 -1.2055
10227TIP3    H252173   2.896   1.709  11.625  3.2430 -2.3206 -0.8444
10228TIP3   OH252174   1.624   2.713  16.163  0.1870 -0.0769 -0.5273
10228TIP3    H152175   1.629   2.743  16.253 -0.3256 -2.4876  0.3256
10228TIP3    H252176   1.709   2.671  16.146  0.2271  0.2322 -1.1331
10229TIP3   OH252177   6.172   2.055  11.833  0.0165  0.0673 -0.3449
10229TIP3    H152178   6.205   2.023  11.749  1.7340 -0.2911  0.4558
10229TIP3    H252179   6.110   2.124  11.809 -2.2217 -2.4188 -2.0406
10230TIP3   OH252180   5.369   5.236   1.733  0.5678  0.8339  0.8104
10230TIP3    H152181   5.320   5.188   1.667  1.5443  1.4155 -0.3400
10230TIP3    H252182   5.399   5.169   1.794  0.8112  0.1355 -0.0729
10231TIP3   OH252183   3.814   0.764  17.242  0.2751 -0.0539  0.2381
10231TIP3    H152184   3.899   0.720  17.241  0.6134  0.6050  0.0673
10231TIP3    H252185   3.770   0.730  17.164 -0.1531 -1.4195  1.0426
10232TIP3   OH252186   1.624   3.196   3.612 -0.1041  0.4028  0.0294
10232TIP3    H152187   1.542   3.246   3.614 -1.0866 -0.9706 -3.0797
10232TIP3    H252188   1.615   3.133   3.684 -2.2845 -0.4338 -0.9150
10233TIP3   OH252189   6.266   5.308   2.606 -0.1408 -0.1146 -0.8081
10233TIP3    H152190   6.259   5.212   2.600 -1.9339 -0.0999  0.6718
10233TIP3    H252191   6.208   5.341   2.538  0.0818 -0.0724 -0.9777
10234TIP3   OH252192   4.166   0.565  15.123  0.8269 -0.3403  0.0864
10234TIP3    H152193   4.134   0.574  15.033  1.8665 -0.3763 -0.3058
10234TIP3    H252194   4.096   0.599  15.178  0.0352 -0.6556 -0.7260
10235TIP3   OH252195   2.260   0.757  17.005 -0.3782  0.0611  0.1486
10235TIP3    H152196   2.268   0.726  16.915 -1.5845  0.6516 -0.1595
10235TIP3    H252197   2.175   0.723  17.035 -0.3483  0.5387  0.7941
10236TIP3   OH252198   4.328   1.514   1.093 -0.2747  0.4087  0.1520
10236TIP3    H152199   4.345   1.572   1.168 -0.0002  0.6452 -0.0911
10236TIP3    H252200   4.242   1.541   1.061 -0.5901  0.0114  0.6505
10237TIP3   OH252201   5.461   5.158  14.066  0.0585 -0.0915  0.0010
10237TIP3    H152202   5.387   5.209  14.099 -0.3792  0.9677 -2.5068
10237TIP3    H252203   5.536   5.217  14.075  0.1435 -0.2245  0.1659
10238TIP3   OH252204   0.112   5.445  14.029  0.1133  0.3089  0.0424
10238TIP3    H152205   0.024   5.477  14.009 -1.2743 -2.5251  1.2577
10238TIP3    H252206   0.155   5.440  13.944 -1.4798  0.1504 -0.7875
10239TIP3   OH252207   2.692   3.585  14.033  0.0468  0.3708 -0.3535
10239TIP3    H152208   2.752   3.511  14.044  0.7776  1.1938  1.3192
10239TIP3    H252209   2.706   3.640  14.110 -3.8228 -0.0855  0.7811
10240TIP3   OH252210   2.711   6.523   4.635  0.5591 -0.1275  0.1445
10240TIP3    H152211   2.756   6.562   4.710  0.5631 -0.2057  0.1828
10240TIP3    H252212   2.628   6.491   4.670 -0.1893  1.3832 -0.2472
10241TIP3   OH252213   5.245   4.241   2.366 -0.8863  0.1164 -0.4435
10241TIP3    H152214   5.241   4.239   2.462 -0.0989 -2.6331 -0.4408
10241TIP3    H252215   5.316   4.303   2.347  0.9008 -1.4763  0.8296
10242TIP3   OH252216   4.424   6.168   3.819 -0.3030  0.3823  0.1870
10242TIP3    H152217   4.339   6.123   3.814 -0.8244  1.3936 -0.2784
10242TIP3    H252218   4.479   6.109   3.870 -1.4192 -0.1033  0.8617
10243TIP3   OH252219   6.600   4.155   2.501 -0.4546 -0.2291 -0.2060
10243TIP3    H152220   6.676   4.108   2.469  0.7375  1.5625 -0.0856
10243TIP3    H252221   6.525   4.111   2.460  0.7343 -1.0863 -1.4963
10244TIP3   OH252222   5.672   5.260   1.772 -0.3279  0.4422  0.3573
10244TIP3    H152223   5.578   5.244   1.764  0.2223 -4.6458  2.0076
10244TIP3    H252224   5.712   5.197   1.712  2.0537  0.3151  2.0053
10245TIP3   OH252225   0.937   3.466  11.231 -0.1568 -0.1663  0.3009
10245TIP3    H152226   0.894   3.399  11.284 -0.0459 -1.3367 -1.0362
10245TIP3    H252227   0.882   3.543  11.241 -1.2601 -0.9567  0.5001
10246TIP3   OH252228   2.844   4.379   2.922 -0.5927  0.0447  0.1735
10246TIP3    H152229   2.786   4.314   2.882  2.4010 -3.8723  1.8026
10246TIP3    H252230   2.900   4.408   2.850  0.7555 -2.3581  0.2158
10247TIP3   OH252231   6.023   2.173  14.534  0.1441  0.0249 -0.2612
10247TIP3    H152232   5.997   2.250  14.484  1.1297 -1.0094 -2.4153
10247TIP3    H252233   6.092   2.205  14.593 -0.9960  1.2311  0.4422
10248TIP3   OH252234   3.766   6.209   2.448  0.3312 -0.5000  0.0267
10248TIP3    H152235   3.751   6.304   2.439 -0.5392 -0.3803  2.4324
10248TIP3    H252236   3.718   6.185   2.526 -0.0903 -3.1193 -1.0119
10249TIP3   OH252237   1.293   4.143  13.036 -0.0149  0.2232 -0.0735
10249TIP3    H152238   1.382   4.108  13.041 -0.4349 -0.6996  1.1007
10249TIP3    H252239   1.302   4.225  12.988  1.4398  0.0216 -0.1529
10250TIP3   OH252240   5.660   1.362   1.501 -0.0019 -0.3324  0.0219
10250TIP3    H152241   5.613   1.405   1.428  1.5653 -0.2976 -0.9810
10250TIP3    H252242   5.669   1.271   1.472  0.7924 -0.2734  0.0952
10251TIP3   OH252243   2.273   5.822   2.268  0.2705  0.1288  0.0442
10251TIP3    H152244   2.261   5.812   2.174  0.9678  1.4219 -0.1906
10251TIP3    H252245   2.218   5.896   2.293  1.4009  0.8819  0.3498
10252TIP3   OH252246   3.070   0.046   3.636  0.3205 -0.5096 -0.2190
10252TIP3    H152247   3.133   0.107   3.674 -1.1672  0.1323  1.2723
10252TIP3    H252248   3.039  -0.006   3.710 -0.8532 -0.8357 -0.9213
10253TIP3   OH252249   5.468   3.882  16.586  0.5119  0.5163 -0.1706
10253TIP3    H152250   5.447   3.947  16.519 -2.1925 -1.4074 -1.2733
10253TIP3    H252251   5.431   3.801  16.553 -2.0012 -0.2948  4.1624
10254TIP3   OH252252   3.027   0.837   0.566  0.3538 -0.4705  0.5195
10254TIP3    H152253   3.031   0.867   0.475  0.0026  0.2786  0.7541
10254TIP3    H252254   3.023   0.917   0.618  0.4142 -0.9015  1.1916
10255TIP3   OH252255   1.659   5.499  16.361  0.5754  0.5456  0.4111
10255TIP3    H152256   1.638   5.422  16.413 -1.2888  1.1936  0.6829
10255TIP3    H252257   1.749   5.521  16.385  1.1025 -1.4773  0.3806
10256TIP3   OH252258   3.293   1.138  11.484 -0.0783 -0.3952 -0.2239
10256TIP3    H152259   3.352   1.090  11.540  0.5399  0.6772  0.0531
10256TIP3    H252260   3.267   1.215  11.535 -0.8648 -0.3000 -0.7431
10257TIP3   OH252261   1.374   6.157   3.199  0.6702  0.1619  0.2286
10257TIP3    H152262   1.321   6.145   3.120  0.4276  0.0081  0.4154
10257TIP3    H252263   1.416   6.072   3.213  0.9171  0.2644  0.1181
10258TIP3   OH252264   5.112   5.620   1.890  0.1165  0.7058  0.6356
10258TIP3    H152265   5.187   5.572   1.925 -0.8664 -1.2810  0.0813
10258TIP3    H252266   5.101   5.586   1.801 -0.6592  1.8977  0.2658
10259TIP3   OH252267   3.399   6.228   6.130 -0.4536 -0.5280  0.4315
10259TIP3    H152268   3.365   6.279   6.056 -0.7149 -3.0361 -1.2302
10259TIP3    H252269   3.444   6.293   6.185  0.2805  1.2956 -2.2074
10260TIP3   OH252270   0.061   4.819  17.215 -0.6393 -0.0929 -0.0971
10260TIP3    H152271   0.120   4.867  17.274 -2.0979  0.3353  1.0502
10260TIP3    H252272   0.101   4.829  17.128  0.5456  0.8543  0.5345
10261TIP3   OH252273   3.494   2.951  17.001  0.0432  0.6230 -0.2088
10261TIP3    H152274   3.499   2.873  17.057 -0.0290 -0.3207 -1.4855
10261TIP3    H252275   3.409   2.944  16.958  0.7045  0.5545 -1.5307
10262TIP3   OH252276   2.144   0.451   3.818 -0.7864 -0.3003  0.4658
10262TIP3    H152277   2.137   0.411   3.905  0.1841  1.7825  1.5415
10262TIP3    H252278   2.074   0.410   3.767 -1.3972 -1.5208  2.2258
10263TIP3   OH252279   5.873   5.415   2.477  0.0183  0.5196 -0.3581
10263TIP3    H152280   5.803   5.411   2.412 -0.4623  2.0839  0.0483
10263TIP3    H252281   5.947   5.455   2.430 -0.5746  2.3781  0.2385
10264TIP3   OH252282   5.848   2.467   3.608 -0.1816  0.7560  0.2400
10264TIP3    H152283   5.903   2.480   3.685  0.5318  0.0890 -0.1514
10264TIP3    H252284   5.847   2.553   3.564  1.5507  0.4635 -0.4005
10265TIP3   OH252285   0.138   5.051  16.320 -0.1226 -0.2844  0.2268
10265TIP3    H152286   0.079   5.074  16.248 -1.9048 -0.4002  1.6129
10265TIP3    H252287   0.192   4.981  16.284 -0.4872  0.1458 -1.2342
10266TIP3   OH252288   5.655   6.616   4.462  0.4714 -0.2164 -0.3888
10266TIP3    H152289   5.683   6.572   4.382  0.6734 -0.6343 -0.0959
10266TIP3    H252290   5.604   6.549   4.509  0.1941  0.0850 -0.2586
10267TIP3   OH252291   0.903   2.785  14.427  0.2014  0.4990  0.2913
10267TIP3    H152292   0.851   2.864  14.410  1.3494  0.8396 -1.8953
10267TIP3    H252293   0.844   2.713  14.406 -0.7822  0.7722  2.0828
10268TIP3   OH252294   3.557   6.163  14.994  0.4495 -0.2231 -0.0167
10268TIP3    H152295   3.485   6.134  15.049  1.7558 -2.3506  0.6292
10268TIP3    H252296   3.532   6.136  14.905  1.4774 -3.1564  0.5203
10269TIP3   OH252297   1.924   4.106   2.128  0.8364 -0.0221  0.0919
10269TIP3    H152298   2.001   4.113   2.071  1.1138 -0.8006  0.3575
10269TIP3    H252299   1.940   4.027   2.180 -0.3736 -0.4788 -0.2113
10270TIP3   OH252300   3.520   2.981   3.366 -0.2885 -0.3764  0.6193
10270TIP3    H152301   3.560   2.938   3.291 -2.1167  1.7380 -1.6569
10270TIP3    H252302   3.425   2.970   3.353 -0.7376  2.5712  0.9592
10271TIP3   OH252303   3.316   1.586   2.473  0.1013 -0.6013 -0.2408
10271TIP3    H152304   3.269   1.602   2.555  0.0593  1.9313 -0.7291
10271TIP3    H252305   3.322   1.490   2.467 -0.9561 -0.8422  2.1015
10272TIP3   OH252306   6.542   4.639  11.719 -0.0286 -0.2024 -0.5019
10272TIP3    H152307   6.630   4.640  11.757 -0.4014  0.1475  0.3786
10272TIP3    H252308   6.485   4.670  11.790 -0.8267 -0.1694 -1.1467
10273TIP3   OH252309   4.683   1.871   4.975 -0.5542 -0.0349 -0.3923
10273TIP3    H152310   4.769   1.847   5.010 -0.5150  0.4222 -0.1776
10273TIP3    H252311   4.638   1.915   5.047 -0.9839 -0.3056 -0.4937
10274TIP3   OH252312   2.040   6.405   3.906 -0.2338  0.1677 -0.1030
10274TIP3    H152313   2.086   6.426   3.824  0.8164  1.9353  0.8911
10274TIP3    H252314   2.110   6.399   3.971 -1.0546 -1.3509  0.6540
10275TIP3   OH252315   1.016   5.502   0.082  0.7622  0.1596 -0.0569
10275TIP3    H152316   1.010   5.593   0.053 -0.7264 -0.6214 -2.4311
10275TIP3    H252317   1.109   5.489   0.104  1.1233  2.0247 -0.4444
10276TIP3   OH252318   0.247   2.517   3.297 -1.0277  0.4166 -0.5138
10276TIP3    H152319   0.160   2.482   3.280 -0.2438 -1.9658  0.2685
10276TIP3    H252320   0.280   2.466   3.371  1.0872  1.1965 -0.8792
10277TIP3   OH252321   0.380   4.292  16.631 -0.2955  0.0882  0.6483
10277TIP3    H152322   0.460   4.318  16.585 -0.8629 -2.9854 -2.3290
10277TIP3    H252323   0.397   4.202  16.661 -2.7875 -0.8839 -0.6531
10278TIP3   OH252324   4.155   4.074  11.994 -0.0331  0.5693  0.2253
10278TIP3    H152325   4.194   4.159  11.973 -0.2555  0.4258 -0.7894
10278TIP3    H252326   4.110   4.047  11.913 -0.0257 -0.4760  0.5591
10279TIP3   OH252327   3.049   6.334   0.012 -0.0046 -0.1085  0.1028
10279TIP3    H152328   2.998   6.361  -0.064 -1.4995 -0.7997  0.8540
10279TIP3    H252329   3.136   6.316  -0.024 -0.8470 -1.0006 -1.5608
10280TIP3   OH252330   2.520   2.841   4.069  0.0149 -0.1591 -0.0728
10280TIP3    H152331   2.498   2.925   4.029  1.1192  0.2633  0.1822
10280TIP3    H252332   2.592   2.807   4.017 -0.0332 -0.6701  0.1868
10281TIP3   OH252333   1.936   6.066  12.430 -0.2332  0.6600  0.1192
10281TIP3    H152334   1.933   6.104  12.342  0.1928  1.1580  0.3119
10281TIP3    H252335   1.881   5.988  12.425 -2.1483  1.9911  0.0531
10282TIP3   OH252336   1.787   6.555   2.831 -0.1968 -0.3046  0.0073
10282TIP3    H152337   1.832   6.475   2.857 -0.1287  0.7587  3.3477
10282TIP3    H252338   1.696   6.528   2.818  0.2121 -1.2864 -0.9097
10283TIP3   OH252339   2.991   2.274  10.859  0.6567  0.5297  0.0199
10283TIP3    H152340   3.069   2.220  10.874  0.4266  0.9051  2.6568
10283TIP3    H252341   2.918   2.214  10.870  0.4664  0.9137  0.8375
10284TIP3   OH252342   0.902   0.486   0.416 -0.1251 -0.3974  0.2602
10284TIP3    H152343   0.854   0.564   0.387 -1.8508 -2.1057 -1.6998
10284TIP3    H252344   0.987   0.492   0.371 -0.6292 -0.1410 -0.6699
10285TIP3   OH252345   1.267   1.140  12.046  0.3651  0.3614  0.3717
10285TIP3    H152346   1.353   1.153  12.086  0.8399 -1.1218 -0.1112
10285TIP3    H252347   1.270   1.050  12.014 -0.7937  0.8170 -1.0543
10286TIP3   OH252348   1.956   2.411  10.880  0.0937 -0.1508  0.4035
10286TIP3    H152349   1.902   2.338  10.912 -1.1026  0.4170 -0.2716
10286TIP3    H252350   2.022   2.370  10.825 -0.0279 -0.8027  0.7410
10287TIP3   OH252351   1.458   1.281  17.202  0.4538  0.2884 -0.9259
10287TIP3    H152352   1.498   1.266  17.116  1.1818  1.3496 -0.7858
10287TIP3    H252353   1.531   1.276  17.263 -0.4060 -2.8222 -0.0732
10288TIP3   OH252354   3.958   0.929   5.483 -0.3803  0.0406 -0.1747
10288TIP3    H152355   3.906   0.993   5.531  1.1795  0.3034  1.2032
10288TIP3    H252356   3.941   0.846   5.527 -1.9583 -0.4290 -1.6076
10289TIP3   OH252357   2.608   6.070   5.330 -0.1358 -0.2693 -0.2923
10289TIP3    H152358   2.670   6.005   5.363 -1.3650 -0.6239  1.3410
10289TIP3    H252359   2.548   6.020   5.275  0.8892  0.0510 -1.7503
10290TIP3   OH252360   4.536   2.890  11.987  0.0089  0.3373  1.1842
10290TIP3    H152361   4.545   2.951  12.061  0.2541  0.0052  1.4310
10290TIP3    H252362   4.458   2.838  12.009 -0.7223  1.1520  0.5437
10291TIP3   OH252363   5.425   4.765  12.215  0.1462 -0.0118 -0.6959
10291TIP3    H152364   5.420   4.705  12.141 -0.4881 -0.6703 -0.1189
10291TIP3    H252365   5.358   4.735  12.275 -0.5794  1.6350 -0.6640
10292TIP3   OH252366   4.007   1.440   1.198  0.4191 -0.2873  0.7139
10292TIP3    H152367   3.966   1.482   1.274 -0.2042 -0.8697  0.6988
10292TIP3    H252368   4.030   1.513   1.140 -1.1054  0.0075  0.4711
10293TIP3   OH252369   0.263   6.660  16.459  0.4228  0.2882 -0.2843
10293TIP3    H152370   0.319   6.685  16.532  1.4401 -0.9158 -0.6336
10293TIP3    H252371   0.176   6.651  16.498  1.3432 -2.4680  1.2563
10294TIP3   OH252372   2.149   2.572   0.240 -0.3698 -0.1227 -0.3478
10294TIP3    H152373   2.231   2.577   0.190 -0.6142  0.1426 -0.7289
10294TIP3    H252374   2.086   2.534   0.178 -0.7748  0.5775 -0.3709
10295TIP3   OH252375   0.406   1.040  14.096 -0.5735  0.4918  0.5628
10295TIP3    H152376   0.440   1.100  14.163  0.0884  1.1504 -0.3528
10295TIP3    H252377   0.316   1.022  14.124 -0.4595  1.1465  1.3709
10296TIP3   OH252378   3.618   5.133  11.230  0.3656  0.3213 -0.0867
10296TIP3    H152379   3.708   5.111  11.207 -0.1987  0.0308 -2.0281
10296TIP3    H252380   3.577   5.161  11.148 -1.0321  1.4486  0.9609
10297TIP3   OH252381   2.146   5.414   4.065 -0.2549 -0.1223 -0.7545
10297TIP3    H152382   2.202   5.389   4.138  0.2778  0.0169 -1.1169
10297TIP3    H252383   2.096   5.334   4.045  0.3572 -0.4580 -0.9316
10298TIP3   OH252384   1.429   4.788  14.862  0.0419 -0.1665 -0.6437
10298TIP3    H152385   1.414   4.737  14.941 -2.5734 -0.4369 -1.2647
10298TIP3    H252386   1.389   4.873  14.879 -0.2223 -0.0993 -1.5355
10299TIP3   OH252387   6.660   0.635  16.171  0.4522  0.0490  0.3298
10299TIP3    H152388   6.600   0.673  16.235 -0.1923  1.0031 -0.8034
10299TIP3    H252389   6.690   0.710  16.119 -0.4399 -0.8986 -1.6138
10300TIP3   OH252390   1.744   4.039  11.491 -0.8229  0.2246  0.4017
10300TIP3    H152391   1.665   3.984  11.496 -0.9479  0.4712  1.2073
10300TIP3    H252392   1.721   4.107  11.428 -1.8165  1.1666  1.7430
10301TIP3   OH252393   0.678   3.649   3.893 -0.3230 -0.0395 -0.0674
10301TIP3    H152394   0.707   3.573   3.843 -1.6503 -0.9704  0.5387
10301TIP3    H252395   0.713   3.724   3.846  1.8091 -1.0573 -0.1567
10302TIP3   OH252396   0.181   4.226   3.302 -0.4527  0.2186  0.3085
10302TIP3    H152397   0.248   4.277   3.256  0.9367 -1.1062  0.8196
10302TIP3    H252398   0.228   4.184   3.374 -2.1055  0.2859  1.4577
10303TIP3   OH252399   1.350   1.853   4.553  0.0432 -0.2613  0.2277
10303TIP3    H152400   1.427   1.854   4.497 -0.9576  2.0786 -1.2226
10303TIP3    H252401   1.342   1.944   4.584 -1.1289 -0.8563  1.7629
10304TIP3   OH252402   2.846   6.799   2.967 -0.1881 -0.7928 -0.1084
10304TIP3    H152403   2.773   6.757   2.922 -0.1047 -0.2523 -0.7418
10304TIP3    H252404   2.823   6.891   2.971  0.3584 -0.6513 -0.1129
10305TIP3   OH252405   1.032   4.835   3.086  0.3742  0.0298 -0.3796
10305TIP3    H152406   1.118   4.858   3.121  0.2031 -0.4913  0.3981
10305TIP3    H252407   1.003   4.914   3.041  0.1765  1.0574  1.5084
10306TIP3   OH252408   4.461   1.964  15.964 -0.4180 -0.5618  0.9569
10306TIP3    H152409   4.403   1.895  15.931 -1.5056 -0.1383  1.9695
10306TIP3    H252410   4.411   2.045  15.955  1.1617  0.2422 -0.9809
10307TIP3   OH252411   1.175   5.848  15.021  0.1441 -0.2055  0.3009
10307TIP3    H152412   1.246   5.826  15.081 -0.1896 -3.3419 -0.3631
10307TIP3    H252413   1.100   5.864  15.078  0.4807 -0.5518  0.8471
10308TIP3   OH252414   5.087   2.495   2.666 -0.0263 -0.3785 -0.0744
10308TIP3    H152415   5.118   2.422   2.720  2.0351  0.7330  0.2846
10308TIP3    H252416   5.166   2.531   2.625 -0.9506  1.9014  0.0461
10309TIP3   OH252417   6.610   3.676  10.752  0.4461 -0.3251  0.1504
10309TIP3    H152418   6.635   3.618  10.680 -2.8204 -3.5976  1.5234
10309TIP3    H252419   6.558   3.745  10.710 -0.5215 -1.6156 -0.8093
10310TIP3   OH252420   0.728   2.838   1.794  0.0026  0.0097  0.6666
10310TIP3    H152421   0.706   2.824   1.702  2.2217 -0.2166  0.1561
10310TIP3    H252422   0.736   2.933   1.802 -1.5264  0.1316  0.9667
10311TIP3   OH252423   3.530   0.336  15.755 -0.0652 -0.3213  0.0574
10311TIP3    H152424   3.461   0.385  15.711 -0.4570  1.0738  2.1311
10311TIP3    H252425   3.502   0.245  15.750 -0.3875 -0.1211 -2.0134
10312TIP3   OH252426   1.740   5.538   5.340  0.4846  0.3182 -0.2049
10312TIP3    H152427   1.780   5.549   5.254 -0.8455  1.6965 -0.6684
10312TIP3    H252428   1.672   5.605   5.343 -0.7408 -0.9689  1.1737
10313TIP3   OH252429   1.661   2.893   0.035  0.0352 -0.0919  0.5498
10313TIP3    H152430   1.567   2.898   0.017 -0.3243 -2.9919  1.4200
10313TIP3    H252431   1.695   2.833  -0.032  1.4207  1.5527 -0.2509
10314TIP3   OH252432   2.230   5.719   1.097  0.0925 -0.0909  0.1165
10314TIP3    H152433   2.189   5.805   1.102 -0.1566 -0.1052 -1.5056
10314TIP3    H252434   2.303   5.730   1.037  0.6605 -0.7823  0.6676
10315TIP3   OH252435   0.181   5.276   6.448  0.3301 -0.3401 -0.4983
10315TIP3    H152436   0.188   5.195   6.499 -2.2484 -1.0808 -1.2498
10315TIP3    H252437   0.182   5.346   6.513 -0.2907 -1.1403  0.3881
10316TIP3   OH252438   4.406   4.397   5.657  0.0925 -0.1469  0.5386
10316TIP3    H152439   4.384   4.352   5.576 -0.3984 -0.4728  0.8526
10316TIP3    H252440   4.469   4.339   5.700  0.2284 -0.0516  0.4705
10317TIP3   OH252441   5.680   4.607  16.689  0.0881  0.1399 -0.0052
10317TIP3    H152442   5.629   4.624  16.768  0.6360  0.5783  0.2550
10317TIP3    H252443   5.614   4.596  16.620 -0.3684  0.3986  0.3846
10318TIP3   OH252444   2.810   0.111   0.704  0.4255 -0.1269 -0.2480
10318TIP3    H152445   2.892   0.160   0.704  0.6171 -0.4457  0.0191
10318TIP3    H252446   2.837   0.020   0.719  0.1429 -0.4268 -1.5076
10319TIP3   OH252447   0.611   1.787  14.104 -0.2389  0.4639  0.0904
10319TIP3    H152448   0.576   1.846  14.038  1.1918  0.2179 -0.9099
10319TIP3    H252449   0.701   1.816  14.117 -0.0489 -0.4286  0.8303
10320TIP3   OH252450   5.645   2.895  15.261 -0.1359  0.2020  0.0086
10320TIP3    H152451   5.737   2.895  15.288 -0.3853  0.2465  0.8733
10320TIP3    H252452   5.633   2.978  15.216  0.3202  0.0675 -0.3671
10321TIP3   OH252453   5.124   5.482   2.924  0.0858  0.3094 -0.1108
10321TIP3    H152454   5.200   5.535   2.900  1.7626 -0.9452  2.2036
10321TIP3    H252455   5.084   5.530   2.996  0.4774 -0.5584  0.6944
10322TIP3   OH252456   1.528   2.146   0.159  0.2168  0.0566  0.3943
10322TIP3    H152457   1.591   2.166   0.090  1.5639  0.8684  1.8062
10322TIP3    H252458   1.568   2.182   0.239 -1.3103 -0.8141  1.5869
10323TIP3   OH252459   0.176   3.486  13.039 -0.0324  0.0566 -0.3500
10323TIP3    H152460   0.082   3.471  13.035  0.0287 -0.8054  1.0718
10323TIP3    H252461   0.210   3.442  12.961 -0.5121 -2.1706  0.6532
10324TIP3   OH252462   3.825   0.181  13.315  0.2130  0.0719  0.0607
10324TIP3    H152463   3.751   0.198  13.258  0.0169 -0.4422  0.1574
10324TIP3    H252464   3.833   0.085  13.316 -2.1403 -0.1588  3.8801
10325TIP3   OH252465   1.380   5.083   4.467 -0.3976 -0.3589 -0.1192
10325TIP3    H152466   1.310   5.146   4.454 -2.6069 -2.2679  2.1119
10325TIP3    H252467   1.427   5.114   4.545  0.3939  0.1339 -0.7783
10326TIP3   OH252468   1.384   4.377  14.006 -0.3694 -0.1445 -0.4266
10326TIP3    H152469   1.416   4.287  13.997  0.6297  0.1298  0.2534
10326TIP3    H252470   1.434   4.413  14.079  0.4804  1.5021 -1.7714
10327TIP3   OH252471   4.939   2.204   3.836 -0.5667 -0.1655  0.2563
10327TIP3    H152472   4.961   2.270   3.901  2.4390 -0.8463  0.0010
10327TIP3    H252473   4.914   2.127   3.888  0.7462 -0.3636  0.5960
10328TIP3   OH252474   1.097   0.918  12.408 -0.1196  0.4358 -0.1894
10328TIP3    H152475   1.171   0.972  12.379  1.3699 -1.1073  0.6531
10328TIP3    H252476   1.125   0.828  12.389 -1.2782 -0.2434  1.2906
10329TIP3   OH252477   3.232   2.535   2.731 -0.0300  0.2579  0.2372
10329TIP3    H152478   3.295   2.472   2.695 -0.6599  0.0636 -0.5185
10329TIP3    H252479   3.227   2.512   2.824 -0.5458 -1.0571 -0.1018
10330TIP3   OH252480   4.360   6.137  13.197 -0.2675  0.0695 -0.5814
10330TIP3    H152481   4.284   6.192  13.175  0.0573  0.5233 -0.5706
10330TIP3    H252482   4.343   6.110  13.287  0.2088  1.2368 -0.1248
10331TIP3   OH252483   0.880   2.977   2.617 -0.7696  0.2319 -0.0736
10331TIP3    H152484   0.822   2.920   2.566 -2.2786  1.0365  0.6921
10331TIP3    H252485   0.873   3.063   2.575  1.3241 -0.0703 -1.0877
10332TIP3   OH252486   4.254   6.721  15.277  0.1348 -0.0551 -0.3839
10332TIP3    H152487   4.204   6.767  15.209 -0.1126  1.9771  1.1328
10332TIP3    H252488   4.343   6.716  15.243 -0.4952 -1.2465 -1.9134
10333TIP3   OH252489   2.642   0.021  12.177  0.4843 -0.1386 -0.1747
10333TIP3    H152490   2.641   0.053  12.087  1.0471  0.2714 -0.0406
10333TIP3    H252491   2.586  -0.056  12.176  4.4723 -3.1456 -1.9647
10334TIP3   OH252492   2.095   5.422  16.828 -0.1296  0.0992 -0.3632
10334TIP3    H152493   2.136   5.450  16.746  0.0545  1.6978  0.2483
10334TIP3    H252494   2.156   5.451  16.896 -0.3069 -1.1703  0.3462
10335TIP3   OH252495   1.306   0.691   6.151 -0.1175  0.2343 -0.3824
10335TIP3    H152496   1.217   0.709   6.178  0.7506  2.3892  1.1901
10335TIP3    H252497   1.314   0.734   6.066  0.2272  2.5363  0.7654
10336TIP3   OH252498   2.795   6.594  15.575  0.6940 -0.3228  0.3547
10336TIP3    H152499   2.854   6.667  15.596  0.2216  0.4926 -1.1036
10336TIP3    H252500   2.719   6.609  15.631  0.3124  0.6798 -0.4231
10337TIP3   OH252501   0.172   1.403  13.698  0.5173  0.0738  0.1197
10337TIP3    H152502   0.241   1.469  13.708 -0.2641  0.7662  1.0692
10337TIP3    H252503   0.214   1.321  13.722  0.9412  0.5313  0.9815
10338TIP3   OH252504   2.754   0.566  16.396 -0.0393 -0.7799  0.3239
10338TIP3    H152505   2.827   0.504  16.409  0.9584  0.1611 -0.6341
10338TIP3    H252506   2.790   0.651  16.420 -0.7714 -0.2777 -0.3243
10339TIP3   OH252507   0.864   2.308   2.511  0.3558  0.4312  0.0072
10339TIP3    H152508   0.927   2.379   2.523 -0.0131  0.9979 -1.3789
10339TIP3    H252509   0.883   2.273   2.424 -0.8327  0.1972 -0.1690
10340TIP3   OH252510   1.251   6.814   3.124 -0.3554 -0.2291 -0.1703
10340TIP3    H152511   1.200   6.874   3.178 -0.7861  0.1830 -1.0333
10340TIP3    H252512   1.207   6.814   3.039  1.0907  0.1560 -0.9395
10341TIP3   OH252513   4.049   2.392   2.353 -0.0168  0.4163  0.1684
10341TIP3    H152514   4.047   2.480   2.390 -4.5178 -0.5719  2.5885
10341TIP3    H252515   4.115   2.346   2.405  2.5795  2.2732 -1.2992
10342TIP3   OH252516   0.227   4.826  10.785 -0.1578  0.0253  0.3947
10342TIP3    H152517   0.284   4.749  10.784  0.2309  0.3050  0.9035
10342TIP3    H252518   0.158   4.805  10.722 -0.6595 -1.2095  1.3110
10343TIP3   OH252519   1.100   0.224   3.255  0.0583  0.5101  0.2032
10343TIP3    H152520   1.061   0.216   3.168 -0.3765  1.1381  0.3349
10343TIP3    H252521   1.108   0.318   3.270  1.3247  0.3843  0.3237
10344TIP3   OH252522   4.203   2.259  16.172  0.2080  0.1158  0.1026
10344TIP3    H152523   4.213   2.174  16.214 -0.7207  0.6852  1.5149
10344TIP3    H252524   4.171   2.317  16.241  1.7519  1.8540 -0.5823
10345TIP3   OH252525   0.438   3.207  15.917 -0.8560 -0.4620 -0.1033
10345TIP3    H152526   0.357   3.248  15.888  0.7668  2.5964 -0.5293
10345TIP3    H252527   0.413   3.159  15.996 -2.5373  2.9359  1.5309
10346TIP3   OH252528   2.285   5.488  17.002  0.3500  0.9160 -1.0318
10346TIP3    H152529   2.257   5.448  17.084  2.0084 -0.0584 -0.9223
10346TIP3    H252530   2.325   5.571  17.029  1.6506  0.2139 -0.7586
10347TIP3   OH252531   6.185   1.690   1.196 -0.6476  0.0923  0.0332
10347TIP3    H152532   6.224   1.773   1.168 -1.1388 -0.1867 -1.4853
10347TIP3    H252533   6.101   1.715   1.235 -0.3052  0.4060  0.5837
10348TIP3   OH252534   2.815   1.206  11.104  0.3754  0.3614  0.0198
10348TIP3    H152535   2.742   1.189  11.164  1.4334 -1.0776  0.9299
10348TIP3    H252536   2.857   1.285  11.138 -0.6117  1.0702 -0.3816
10349TIP3   OH252537   1.524   1.750  10.684 -0.0998  0.3081 -0.0713
10349TIP3    H152538   1.527   1.842  10.655 -0.7836  0.8533  1.5079
10349TIP3    H252539   1.505   1.756  10.778 -0.2445 -1.4608  0.0167
10350TIP3   OH252540   5.784   6.507   2.888 -0.5863  0.0843  0.9993
10350TIP3    H152541   5.766   6.415   2.907  0.5606 -0.5695 -0.9288
10350TIP3    H252542   5.717   6.532   2.825  0.1933  0.0177  0.1230
10351TIP3   OH252543   5.027   3.867  16.081  0.5077 -0.3261  0.0575
10351TIP3    H152544   5.026   3.942  16.141  0.8778  0.6349 -1.1147
10351TIP3    H252545   5.080   3.896  16.007  1.3473 -2.0503 -0.0356
10352TIP3   OH252546   1.044   5.959  12.369  0.0511 -0.6600  0.5026
10352TIP3    H152547   1.018   5.883  12.316  0.6752 -0.7588  0.3401
10352TIP3    H252548   0.966   6.015  12.370 -0.4802 -1.3945  0.7907
10353TIP3   OH252549   1.927   4.279  12.427  0.0291 -0.2828  0.3590
10353TIP3    H152550   2.003   4.337  12.425  0.2907 -0.4598  3.0701
10353TIP3    H252551   1.955   4.200  12.381 -0.1903  1.5178 -3.0096
10354TIP3   OH252552   5.140   5.151   2.142 -0.0363 -0.0778  0.1196
10354TIP3    H152553   5.140   5.131   2.236 -0.1253  0.8414  0.3156
10354TIP3    H252554   5.066   5.211   2.131 -1.0380 -1.4464 -0.8144
10355TIP3   OH252555   3.458   2.292   3.022  0.3968  1.2226  0.2204
10355TIP3    H152556   3.423   2.218   2.973 -1.1503  1.5629  0.8036
10355TIP3    H252557   3.486   2.255   3.106 -0.4423  1.3041  0.5405
10356TIP3   OH252558   2.771   1.823   3.544 -0.1190  0.4998 -0.3049
10356TIP3    H152559   2.677   1.830   3.555 -0.1427  0.5289 -0.5156
10356TIP3    H252560   2.785   1.834   3.449 -0.2425 -3.2126 -0.8387
10357TIP3   OH252561   3.889   2.375   2.674 -0.2468  0.2048 -0.3248
10357TIP3    H152562   3.822   2.368   2.741  1.1480 -1.7559  0.9135
10357TIP3    H252563   3.901   2.286   2.642  3.2478  0.0869  1.0169
10358TIP3   OH252564   0.821   1.074   1.424 -0.7607 -0.6511  0.7068
10358TIP3    H152565   0.834   1.083   1.330 -1.8839  1.6441  0.7353
10358TIP3    H252566   0.810   0.980   1.438 -0.6180 -1.0143 -1.4483
10359TIP3   OH252567   4.937   5.232  15.880  0.6498 -0.2865  0.1016
10359TIP3    H152568   4.893   5.149  15.863 -1.3349  0.4852  1.2361
10359TIP3    H252569   4.877   5.299  15.847  0.1783  0.8713  3.0974
10360TIP3   OH252570   0.498   1.372  16.647 -0.2088  0.8557  0.5257
10360TIP3    H152571   0.414   1.388  16.690  1.5238  2.0309  3.6366
10360TIP3    H252572   0.532   1.293  16.689  0.8205  1.1374  0.2432
10361TIP3   OH252573   2.616   2.764   4.917  0.0813  0.2203  0.1799
10361TIP3    H152574   2.697   2.754   4.966 -0.7623  0.4297  1.6411
10361TIP3    H252575   2.641   2.750   4.826  1.7401  0.2157  0.6246
10362TIP3   OH252576   2.714   3.524  16.249 -0.2893 -0.0107  0.4377
10362TIP3    H152577   2.805   3.545  16.270 -0.4344  0.4112  0.6682
10362TIP3    H252578   2.679   3.606  16.213 -0.7805  0.0511  1.0446
10363TIP3   OH252579   4.509   4.045  12.248 -0.7249  0.2959  0.0726
10363TIP3    H152580   4.527   3.955  12.221 -1.3169  0.1956 -0.0145
10363TIP3    H252581   4.576   4.066  12.312  0.4798  0.3924 -1.1857
10364TIP3   OH252582   1.061   2.586   2.841  0.1943 -0.0034  0.1455
10364TIP3    H152583   1.132   2.615   2.898  0.8069 -3.7033  1.4007
10364TIP3    H252584   1.082   2.495   2.820 -2.6474 -0.2640 -1.8996
10365TIP3   OH252585   6.805   0.188   4.007 -0.3987 -0.4134  0.1636
10365TIP3    H152586   6.735   0.243   4.044 -0.5199  0.3862 -1.2264
10365TIP3    H252587   6.884   0.242   4.014 -0.1817 -0.7581  0.4064
10366TIP3   OH252588   1.960   2.187  14.185 -0.4823  0.0651 -0.2716
10366TIP3    H152589   1.906   2.225  14.116 -1.0901 -0.5536 -0.1475
10366TIP3    H252590   1.896   2.148  14.246  0.1016 -0.6097 -0.0889
10367TIP3   OH252591   2.441   3.375   0.615 -0.2233 -0.0563  0.3522
10367TIP3    H152592   2.432   3.390   0.709 -0.9838 -0.0975  0.2890
10367TIP3    H252593   2.405   3.454   0.575  0.1345 -0.0228  0.0965
10368TIP3   OH252594   0.962   6.421  13.192  0.2022  0.5262  0.1997
10368TIP3    H152595   1.052   6.445  13.216 -0.2184  0.9746  1.3369
10368TIP3    H252596   0.916   6.504  13.185 -0.8308  0.1635  2.4371
10369TIP3   OH252597   6.798   5.796   4.290 -0.2508  0.5542 -0.7782
10369TIP3    H152598   6.832   5.876   4.251  0.3567  0.3625 -0.6539
10369TIP3    H252599   6.838   5.793   4.377 -1.4052  0.8552 -0.2404
10370TIP3   OH252600   3.882   0.858   1.756 -0.7070 -0.1271 -0.5354
10370TIP3    H152601   3.965   0.820   1.784 -0.0093  0.8634 -1.2234
10370TIP3    H252602   3.838   0.884   1.836 -1.1256 -2.2162 -0.0540
10371TIP3   OH252603   2.888   5.451   0.748 -0.8821 -0.3097  0.4292
10371TIP3    H152604   2.975   5.417   0.730 -0.4787  1.4589 -1.1198
10371TIP3    H252605   2.864   5.499   0.669 -2.6362  0.4747  1.4134
10372TIP3   OH252606   1.480   1.748  16.639 -0.4267  0.3314  0.3042
10372TIP3    H152607   1.398   1.794  16.622 -0.0630  0.7937 -0.2062
10372TIP3    H252608   1.547   1.816  16.640  0.2326 -0.2549 -1.3286
10373TIP3   OH252609   3.941   3.448  13.982 -0.4400 -0.4555  0.7209
10373TIP3    H152610   3.914   3.422  14.070  1.1243 -0.9864  1.0430
10373TIP3    H252611   4.031   3.417  13.974 -0.3994  0.0589 -0.8761
10374TIP3   OH252612   2.115   3.280   0.582  0.5414  0.2477 -0.4230
10374TIP3    H152613   2.070   3.363   0.564 -0.7116 -0.1913  0.6081
10374TIP3    H252614   2.098   3.263   0.674  0.5692 -1.2747 -0.6776
10375TIP3   OH252615   3.000   4.158  12.947  0.3762 -0.8534 -0.1529
10375TIP3    H152616   3.022   4.217  12.875  1.5989  0.4048  1.2367
10375TIP3    H252617   3.076   4.100  12.955  0.8090 -0.1486  0.9623
10376TIP3   OH252618   4.353   4.027  12.764  0.6332 -0.5257 -0.2702
10376TIP3    H152619   4.372   4.031  12.670  1.2004 -1.6731 -0.2186
10376TIP3    H252620   4.291   4.098  12.780  1.0120  0.0606 -1.4018
10377TIP3   OH252621   4.861   1.812  12.454 -0.2850 -0.6598  0.2286
10377TIP3    H152622   4.787   1.844  12.505  0.0457  0.3954  0.0476
10377TIP3    H252623   4.918   1.888  12.444  0.3016 -1.2016 -0.5605
10378TIP3   OH252624   3.463   3.268  16.003  0.3950 -0.0916 -0.2729
10378TIP3    H152625   3.451   3.279  16.097 -1.5241 -0.1033 -0.4889
10378TIP3    H252626   3.430   3.180  15.985  2.5841 -0.8733 -0.6822
10379TIP3   OH252627   5.029   3.674   6.729  0.0253  0.0874  0.2420
10379TIP3    H152628   5.118   3.659   6.762  0.0917 -1.9454 -0.7902
10379TIP3    H252629   5.041   3.735   6.656  0.4021  0.9088  0.9804
10380TIP3   OH252630   5.408   2.071  11.201 -0.5311 -0.2441  0.2944
10380TIP3    H152631   5.428   2.025  11.283 -0.0961  2.0664  1.5348
10380TIP3    H252632   5.491   2.073  11.154 -0.5792 -0.8122  0.1767
10381TIP3   OH252633   6.515   0.846  14.693 -0.6077 -0.3978  0.1220
10381TIP3    H152634   6.480   0.867  14.607  0.1762 -0.7869 -0.2974
10381TIP3    H252635   6.491   0.754  14.707 -1.1490 -0.1926  0.5168
10382TIP3   OH252636   1.800   5.806  11.080  0.0939 -0.0441  0.0285
10382TIP3    H152637   1.761   5.886  11.115  1.0690  0.8580 -0.9424
10382TIP3    H252638   1.747   5.736  11.119 -1.3800  1.0864  0.1403
10383TIP3   OH252639   2.483   5.358   6.474  0.0674 -0.5077 -0.1362
10383TIP3    H152640   2.556   5.318   6.428  0.9684 -0.9496  1.6537
10383TIP3    H252641   2.523   5.425   6.530 -1.3025  2.2774 -2.3194
10384TIP3   OH252642   6.700   4.478  14.508  0.1845  0.4026  0.6526
10384TIP3    H152643   6.652   4.488  14.425 -0.1831 -3.4800  0.2890
10384TIP3    H252644   6.632   4.471  14.575  0.2152 -2.3467  0.4738
10385TIP3   OH252645   4.842   2.772  16.790  0.5881  0.1940 -0.0007
10385TIP3    H152646   4.832   2.867  16.788 -0.0577  0.1425  0.5601
10385TIP3    H252647   4.851   2.747  16.698 -0.6439  0.6679 -0.2659
10386TIP3   OH252648   5.462   0.321  11.695  0.1896  0.3396 -0.1912
10386TIP3    H152649   5.376   0.325  11.652  0.4554  0.7747 -0.6937
10386TIP3    H252650   5.524   0.348  11.627  0.8911 -1.4916 -0.2993
10387TIP3   OH252651   4.956   0.713   4.394 -0.1697 -0.3305  0.9204
10387TIP3    H152652   4.951   0.718   4.299  1.2945 -0.9411  0.7887
10387TIP3    H252653   5.039   0.669   4.411 -1.4573 -2.2473  2.4474
10388TIP3   OH252654   0.881   6.051  11.204  0.4166  0.5468 -0.6597
10388TIP3    H152655   0.805   6.035  11.148 -1.4476  2.1013  1.3632
10388TIP3    H252656   0.928   6.123  11.161 -0.2465  0.8071 -0.9451
10389TIP3   OH252657   4.926   2.984   5.963 -0.4524 -0.3440  0.3438
10389TIP3    H152658   4.893   2.918   5.902 -2.3548  0.6776  0.2311
10389TIP3    H252659   4.854   2.997   6.025 -0.3465  2.0808 -0.0107
10390TIP3   OH252660   1.172   3.961   3.724  0.1868 -0.0331 -0.0184
10390TIP3    H152661   1.108   3.918   3.781  1.3355 -0.2841  1.1027
10390TIP3    H252662   1.143   3.940   3.635  0.7621 -3.2666  0.4987
10391TIP3   OH252663   6.795   4.413   4.589  0.4282  0.0510  0.2023
10391TIP3    H152664   6.887   4.439   4.582  0.3474 -0.1717 -1.9817
10391TIP3    H252665   6.798   4.319   4.608  0.6491  0.2262  1.0573
10392TIP3   OH252666   5.368   2.287  12.531  0.5465  0.1463  0.2019
10392TIP3    H152667   5.338   2.213  12.478  1.1106 -0.3149  0.5254
10392TIP3    H252668   5.411   2.345  12.469  1.7984 -0.7089  0.2608
10393TIP3   OH252669   2.771   2.989   0.783  0.4193 -0.3210 -0.0871
10393TIP3    H152670   2.789   3.082   0.793 -1.2206  0.1309 -1.2368
10393TIP3    H252671   2.765   2.975   0.689  1.1127 -1.6917  0.0508
10394TIP3   OH252672   6.081   3.698  12.265  0.4310  0.3165 -0.2270
10394TIP3    H152673   6.008   3.761  12.273  0.9938  1.2198 -1.9629
10394TIP3    H252674   6.131   3.710  12.346 -0.2105  1.1707  0.0581
10395TIP3   OH252675   0.884   1.893   4.138 -0.1304  0.4311  0.1850
10395TIP3    H152676   0.908   1.811   4.094 -1.8503 -0.3107  0.5789
10395TIP3    H252677   0.960   1.915   4.191  0.6819 -0.4463 -0.6044
10396TIP3   OH252678   5.820   6.457   6.478  0.2230  0.2899 -0.0975
10396TIP3    H152679   5.809   6.383   6.418 -0.5197  1.0411 -0.9136
10396TIP3    H252680   5.842   6.530   6.421  0.4432  0.8101  0.6519
10397TIP3   OH252681   2.864   3.180  13.448  0.4353 -0.2629  0.2185
10397TIP3    H152682   2.837   3.132  13.369  0.4860  1.0076 -0.5915
10397TIP3    H252683   2.783   3.195  13.496  0.1705  0.3772 -0.4088
10398TIP3   OH252684   5.184   0.960   1.943  0.1533  0.1830  0.6226
10398TIP3    H152685   5.113   0.960   1.879 -0.0770  1.5040  0.8753
10398TIP3    H252686   5.256   0.916   1.898 -0.0407  0.9945 -0.5107
10399TIP3   OH252687   6.491   2.893   0.926 -0.1131  0.2511  0.4730
10399TIP3    H152688   6.546   2.920   1.000  3.1273 -1.0302 -1.3144
10399TIP3    H252689   6.488   2.797   0.933  0.4256  0.0988 -1.1446
10400TIP3   OH252690   6.707   0.850   1.800 -0.3054 -0.2777 -0.5116
10400TIP3    H152691   6.639   0.811   1.744 -0.1733  1.7575 -2.1471
10400TIP3    H252692   6.662   0.922   1.845  0.2863 -0.1931 -0.0581
10401TIP3   OH252693   3.223   3.533  16.088  0.5410 -0.7840 -0.6578
10401TIP3    H152694   3.174   3.615  16.079 -0.0300 -1.1325 -0.7842
10401TIP3    H252695   3.158   3.465  16.069  0.2864 -1.3884  2.1771
10402TIP3   OH252696   6.476   5.539  12.481 -0.7429 -0.0832 -0.2066
10402TIP3    H152697   6.451   5.587  12.560  0.7394 -1.1411  0.9265
10402TIP3    H252698   6.537   5.472  12.511  1.2073  0.5857 -2.4937
10403TIP3   OH252699   3.573   1.565   2.605  0.5569 -0.0867 -0.7654
10403TIP3    H152700   3.612   1.516   2.677  0.2319 -1.4646 -1.5119
10403TIP3    H252701   3.556   1.499   2.538  1.9790  1.3367 -2.5854
10404TIP3   OH252702   0.146   4.462   6.144  0.1237  0.4650 -0.3388
10404TIP3    H152703   0.167   4.386   6.197 -0.1149  0.8683  0.3402
10404TIP3    H252704   0.229   4.506   6.130  0.1390  0.5338 -0.0255
10405TIP3   OH252705   1.457   2.721   0.352  0.3515 -0.5480  0.3363
10405TIP3    H152706   1.431   2.630   0.336  0.3904 -0.2745 -1.3961
10405TIP3    H252707   1.423   2.740   0.440 -0.3269 -1.9872  0.4151
10406TIP3   OH252708   2.475   2.282  16.886  0.1594 -0.0511  0.0028
10406TIP3    H152709   2.422   2.214  16.928  1.0314 -1.0299 -0.4505
10406TIP3    H252710   2.517   2.238  16.813  1.1095  0.8602 -0.0223
10407TIP3   OH252711   6.156   3.344  14.578  0.3868 -0.4562 -0.0491
10407TIP3    H152712   6.213   3.267  14.575 -0.4945 -1.3199  3.3861
10407TIP3    H252713   6.071   3.312  14.549  0.4706 -0.2865 -0.4978
10408TIP3   OH252714   6.379   2.064   5.065  0.6354  0.2465 -0.1790
10408TIP3    H152715   6.298   2.028   5.100  0.2425 -0.3241 -1.6131
10408TIP3    H252716   6.442   1.992   5.070 -0.1252 -0.6849 -2.9626
10409TIP3   OH252717   2.456   3.747  14.037  0.1257 -0.6012 -0.2554
10409TIP3    H152718   2.524   3.681  14.023  0.8115 -0.2236  1.2226
10409TIP3    H252719   2.375   3.706  14.005  1.4060 -0.1567 -4.3153
10410TIP3   OH252720   0.065   0.343  11.904  0.7421 -0.1193  0.0696
10410TIP3    H152721  -0.030   0.343  11.894  0.7262 -0.3241  0.2302
10410TIP3    H252722   0.096   0.403  11.836  0.4453  0.5228  0.4887
10411TIP3   OH252723   4.304   0.260  13.692  0.2624  0.6033  0.4758
10411TIP3    H152724   4.270   0.188  13.744 -0.5633  0.5199 -0.1637
10411TIP3    H252725   4.343   0.320  13.755  1.5244 -0.6995  0.9592
10412TIP3   OH252726   1.189   2.054  12.293 -0.3551 -0.0263 -0.2275
10412TIP3    H152727   1.153   2.133  12.333  0.1056 -0.9462  2.0624
10412TIP3    H252728   1.264   2.084  12.242  0.5889  0.8598  1.6546
10413TIP3   OH252729   0.903   0.859  11.219  0.5564  0.2044  0.5020
10413TIP3    H152730   0.874   0.914  11.146 -0.4641 -0.6485  0.2467
10413TIP3    H252731   0.824   0.811  11.245  1.2216 -0.4631  1.3082
10414TIP3   OH252732   1.640   2.395  15.105  0.4103 -0.6641 -0.9189
10414TIP3    H152733   1.634   2.465  15.170  1.2591 -0.6170 -0.8863
10414TIP3    H252734   1.706   2.335  15.141 -2.3658 -3.0413  0.5312
10415TIP3   OH252735   1.319   5.788   0.561 -0.0664 -0.1152 -0.2616
10415TIP3    H152736   1.313   5.853   0.631 -1.3964  0.8065 -1.2103
10415TIP3    H252737   1.296   5.836   0.482 -1.6204 -1.8608 -0.9099
10416TIP3   OH252738   6.291   0.939   4.577 -0.1762  0.3713 -0.0024
10416TIP3    H152739   6.292   0.843   4.567  2.0172  0.4042 -0.2972
10416TIP3    H252740   6.295   0.953   4.671 -1.0864  0.1698  0.0673
10417TIP3   OH252741   1.339   4.662  11.674  0.0317 -0.0894 -0.3252
10417TIP3    H152742   1.400   4.731  11.648 -0.2553 -0.0419 -0.8908
10417TIP3    H252743   1.294   4.697  11.750  0.7757 -0.1600  0.1552
10418TIP3   OH252744   0.158   3.265  12.600  0.1478  0.5129  0.5053
10418TIP3    H152745   0.070   3.236  12.623 -0.5243  1.2386 -1.0266
10418TIP3    H252746   0.145   3.352  12.561  1.2640 -0.3093 -1.7849
10419TIP3   OH252747   4.607   1.948  15.119 -0.2123 -0.1129  0.3169
10419TIP3    H152748   4.652   1.898  15.188  1.2243  0.0176 -0.4996
10419TIP3    H252749   4.550   2.008  15.166  0.6950 -0.0769  1.3920
10420TIP3   OH252750   6.784   1.204   2.147 -0.2226 -0.1317 -0.2359
10420TIP3    H152751   6.784   1.217   2.242  1.6659  1.3785 -0.4082
10420TIP3    H252752   6.727   1.128   2.133 -0.2917 -0.5585  2.1274
10421TIP3   OH252753   0.893   3.845   2.422 -0.0479  0.3569 -0.2253
10421TIP3    H152754   0.844   3.921   2.453 -0.4125 -0.1128  0.3601
10421TIP3    H252755   0.862   3.773   2.476 -1.0815 -0.5969 -2.0578
10422TIP3   OH252756   1.876   6.762  12.141 -0.4534 -0.3611  0.0351
10422TIP3    H152757   1.921   6.752  12.225 -1.7949  0.0822  0.8255
10422TIP3    H252758   1.924   6.831  12.096 -0.3755  0.1491  0.8897
10423TIP3   OH252759   2.463   2.588   5.822 -0.2374 -0.2259  0.3362
10423TIP3    H152760   2.526   2.657   5.801  0.4079 -1.0810 -0.6102
10423TIP3    H252761   2.504   2.539   5.893  0.1840 -0.7863 -0.2839
10424TIP3   OH252762   2.232   2.160   3.836  0.3243 -0.3354 -0.5166
10424TIP3    H152763   2.216   2.111   3.917  1.9753  0.3317  0.2357
10424TIP3    H252764   2.162   2.225   3.833  0.1382 -0.4929  0.2693
10425TIP3   OH252765   2.454   4.370   6.080 -0.0565 -0.3925  0.0352
10425TIP3    H152766   2.497   4.299   6.127  0.4172 -0.3655 -0.3509
10425TIP3    H252767   2.509   4.385   6.003 -0.8398 -0.4600 -0.5443
10426TIP3   OH252768   4.334   4.608   4.329 -0.3182 -0.0383  0.4255
10426TIP3    H152769   4.290   4.525   4.349 -0.3451 -0.0257  0.4198
10426TIP3    H252770   4.340   4.653   4.413 -2.2223  0.8887  0.0995
10427TIP3   OH252771   0.842   5.095   4.144 -0.1771 -0.4610 -0.6780
10427TIP3    H152772   0.813   5.018   4.094  1.1430 -1.2858 -0.1979
10427TIP3    H252773   0.923   5.067   4.186 -0.4421  0.7419  0.6613
10428TIP3   OH252774   0.969   5.449  15.317 -0.4078  0.4713 -0.7552
10428TIP3    H152775   1.039   5.387  15.337 -0.2142  0.5182 -1.2911
10428TIP3    H252776   0.957   5.498  15.398  0.0943  0.3816 -0.6258
10429TIP3   OH252777   0.229   1.759   6.226  0.0048  0.0719 -0.4964
10429TIP3    H152778   0.300   1.780   6.287  0.9797 -1.0937 -1.2090
10429TIP3    H252779   0.203   1.670   6.250 -1.5335  0.6508  0.0511
10430TIP3   OH252780   6.713   3.566  13.680  0.2805 -0.2720  0.1059
10430TIP3    H152781   6.671   3.559  13.766  1.2005 -1.7774  0.4664
10430TIP3    H252782   6.750   3.654  13.678  0.2803 -0.2331  1.2763
10431TIP3   OH252783   6.433   1.026   5.582 -0.0842 -0.0086 -0.0187
10431TIP3    H152784   6.392   0.939   5.585  0.1676 -0.1790 -1.1493
10431TIP3    H252785   6.492   1.021   5.506 -0.2135  1.2151 -0.1954
10432TIP3   OH252786   6.510   3.648   0.952 -0.0087  0.9344 -0.0679
10432TIP3    H152787   6.472   3.676   0.869  0.1306 -0.7529 -0.7237
10432TIP3    H252788   6.492   3.554   0.956  4.8950 -0.1546 -0.8729
10433TIP3   OH252789   5.270   4.842   4.235 -0.2526 -0.0379 -0.4171
10433TIP3    H152790   5.326   4.772   4.202 -0.5629 -0.6054  0.2650
10433TIP3    H252791   5.224   4.874   4.157 -2.1136 -2.3882 -0.3351
10434TIP3   OH252792   2.301   4.398  12.769 -0.0711  0.7057  0.4328
10434TIP3    H152793   2.265   4.481  12.802  0.7808  0.6686  1.4708
10434TIP3    H252794   2.328   4.351  12.847  2.0205  0.6285 -0.2999
10435TIP3   OH252795   4.059   3.596   1.995  0.1226  0.1724  0.0999
10435TIP3    H152796   3.983   3.560   2.040  0.7907 -1.8939 -0.4040
10435TIP3    H252797   4.027   3.678   1.956 -2.0925 -1.1338 -0.8997
10436TIP3   OH252798   1.301   5.769   3.357  0.8308 -0.3082 -0.6272
10436TIP3    H152799   1.319   5.675   3.360  1.2062 -0.2550 -1.3853
10436TIP3    H252800   1.340   5.800   3.276 -1.3200  0.0695 -1.5700
10437TIP3   OH252801   3.209   0.481   0.452  0.7800  0.1307 -0.4034
10437TIP3    H152802   3.235   0.525   0.372  1.5088  1.6265  0.6481
10437TIP3    H252803   3.278   0.501   0.515 -0.0531 -0.5842  0.7618
10438TIP3   OH252804   3.972   0.188   0.337  0.1518 -0.1918  0.3254
10438TIP3    H152805   4.029   0.150   0.404  1.0545 -1.2743 -1.0291
10438TIP3    H252806   4.026   0.256   0.296 -0.6799  1.0389  1.2034
10439TIP3   OH252807   6.069   2.701   2.773 -0.8200  0.0879 -0.2408
10439TIP3    H152808   6.103   2.736   2.855  1.6697 -0.7715 -0.8343
10439TIP3    H252809   6.043   2.778   2.723  0.9103  0.8823  0.0301
10440TIP3   OH252810   2.090   2.406  11.112 -0.0544  0.1472 -0.1124
10440TIP3    H152811   2.042   2.398  11.029 -0.1424 -0.0947 -0.0372
10440TIP3    H252812   2.174   2.444  11.087 -0.5015  1.1000 -0.1653
10441TIP3   OH252813   5.822   4.080   4.015 -0.0497  0.7305 -0.3290
10441TIP3    H152814   5.917   4.091   4.025  0.1976 -2.1495  1.2338
10441TIP3    H252815   5.786   4.100   4.101 -0.5951 -0.4379 -0.2732
10442TIP3   OH252816   2.538   4.399   4.067 -0.1736 -0.5990  0.0260
10442TIP3    H152817   2.512   4.365   4.153  0.6654 -0.8302  0.1896
10442TIP3    H252818   2.523   4.326   4.007 -0.5271 -0.5169  0.0123
10443TIP3   OH252819   5.701   3.478   4.434  0.6770 -0.3700 -0.1834
10443TIP3    H152820   5.779   3.529   4.454  1.3361 -1.2967 -0.3423
10443TIP3    H252821   5.716   3.444   4.346 -0.2808  0.1392 -0.5500
10444TIP3   OH252822   4.843   6.370   1.004 -0.3900 -0.3467  0.2163
10444TIP3    H152823   4.798   6.290   1.029 -0.8123 -0.3440 -0.5212
10444TIP3    H252824   4.774   6.437   1.004  0.0907  0.1883  1.5755
10445TIP3   OH252825   5.615   2.770  16.418  0.0271  0.4787  0.3316
10445TIP3    H152826   5.594   2.718  16.341  0.2361  0.3896  0.3340
10445TIP3    H252827   5.543   2.833  16.425  0.1855  0.7149 -0.1440
10446TIP3   OH252828   2.732   5.792   5.807 -0.2924  0.9988 -0.3225
10446TIP3    H152829   2.758   5.810   5.898  0.0109  0.7241 -0.3528
10446TIP3    H252830   2.790   5.846   5.754 -0.7618  1.4927 -0.3423
10447TIP3   OH252831   5.593   4.110   1.544 -0.2020  0.4096 -0.4421
10447TIP3    H152832   5.569   4.196   1.581  0.6584  0.9452 -1.1216
10447TIP3    H252833   5.678   4.091   1.582  0.0811  0.3395 -1.1205
10448TIP3   OH252834   5.167   0.943  13.488 -0.1081 -0.2263  1.1097
10448TIP3    H152835   5.222   0.945  13.410 -0.2304  2.3470  1.0266
10448TIP3    H252836   5.112   0.866  13.477  1.7299 -1.3990 -0.0384
10449TIP3   OH252837   3.089   5.941  15.096 -0.4794  0.2009 -0.1184
10449TIP3    H152838   3.014   5.970  15.148  0.0655 -1.4958  1.6678
10449TIP3    H252839   3.152   6.012  15.103 -0.3190 -0.1227  1.7558
10450TIP3   OH252840   1.017   0.725   6.195  0.0947 -0.2606  0.1981
10450TIP3    H152841   1.018   0.664   6.269 -1.0739 -1.5822 -0.8473
10450TIP3    H252842   0.932   0.768   6.200  1.3351  2.1242  1.5659
10451TIP3   OH252843   0.354   5.590   3.302 -0.2922  0.5861  0.1316
10451TIP3    H152844   0.295   5.642   3.247 -0.9396 -2.9378 -2.6773
10451TIP3    H252845   0.303   5.512   3.324  2.4387 -1.3402 -0.2172
10452TIP3   OH252846   4.983   1.859   1.192  0.5289 -0.2010  0.1588
10452TIP3    H152847   4.996   1.828   1.282  2.5134 -0.8125 -0.3122
10452TIP3    H252848   4.955   1.950   1.202 -1.7438 -0.9818  1.4495
10453TIP3   OH252849   2.571   0.300  14.064 -0.1710  0.2326 -0.0967
10453TIP3    H152850   2.623   0.266  14.137  0.0029  0.8375  0.0603
10453TIP3    H252851   2.481   0.302  14.097 -0.1190  0.3369  0.0376
10454TIP3   OH252852   1.460   4.337   1.745 -0.0789  0.2418 -0.0216
10454TIP3    H152853   1.456   4.417   1.692  1.4803  0.7585  0.6162
10454TIP3    H252854   1.373   4.329   1.783 -0.8967  0.4507 -1.8023
10455TIP3   OH252855   3.069   2.665   0.601  0.0360  0.4645 -0.3265
10455TIP3    H152856   3.035   2.709   0.524  0.5725  2.1613  0.3851
10455TIP3    H252857   3.034   2.714   0.675  0.4294 -0.4612  0.4881
10456TIP3   OH252858   0.612   0.070   4.248 -0.8351 -0.5557  0.4660
10456TIP3    H152859   0.565   0.150   4.272  1.2067  0.7571  0.2104
10456TIP3    H252860   0.688   0.101   4.198  0.4783 -2.5862  1.1529
10457TIP3   OH252861   1.531   2.598  14.336  0.0541 -0.5070 -0.3238
10457TIP3    H152862   1.490   2.674  14.294  1.6925 -0.5251 -2.0549
10457TIP3    H252863   1.609   2.634  14.379  0.2621 -1.0548 -0.2350
10458TIP3   OH252864   5.060   6.783  12.803 -0.4036  0.2844 -0.1225
10458TIP3    H152865   5.078   6.828  12.720  0.9628  1.3920  0.7456
10458TIP3    H252866   4.971   6.811  12.827  0.2903  2.2739  0.2200
10459TIP3   OH252867   0.257   4.061   5.628  0.0874 -0.1189  0.0609
10459TIP3    H152868   0.240   3.969   5.651 -0.8546 -0.1639 -0.7889
10459TIP3    H252869   0.175   4.106   5.649  0.7720  0.6588  1.1146
10460TIP3   OH252870   6.387   5.813   4.942  0.1149  0.1033  0.4782
10460TIP3    H152871   6.339   5.896   4.937  1.6798  0.9725 -0.7174
10460TIP3    H252872   6.357   5.763   4.866  1.2151  0.7272 -0.3808
10461TIP3   OH252873   5.779   3.451  14.504 -0.0838 -0.4426  0.0299
10461TIP3    H152874   5.761   3.545  14.516  0.3770 -0.2440 -0.7826
10461TIP3    H252875   5.708   3.421  14.447  0.0259 -0.4848 -0.0852
10462TIP3   OH252876   2.539   3.999  17.105  0.7426 -1.0954  0.0840
10462TIP3    H152877   2.470   4.028  17.164  0.8061  0.4034 -0.5616
10462TIP3    H252878   2.619   4.002  17.158  0.7635  0.0426  0.0123
10463TIP3   OH252879   1.317   2.529  16.141  0.1103 -0.0639 -0.1629
10463TIP3    H152880   1.291   2.574  16.221  1.1222  0.9897 -0.4127
10463TIP3    H252881   1.267   2.572  16.071  0.3933  0.0672 -0.2879
10464TIP3   OH252882   0.058   5.654  14.566  0.3558 -0.0554  0.7973
10464TIP3    H152883   0.100   5.617  14.644  0.0610  0.6071  1.2657
10464TIP3    H252884   0.030   5.741  14.592  2.3379  1.0905 -0.7316
10465TIP3   OH252885   2.587   6.274   2.624 -0.4728 -0.1930 -0.0916
10465TIP3    H152886   2.620   6.283   2.534  1.6301 -1.4255  0.5301
10465TIP3    H252887   2.638   6.338   2.674 -1.5358  0.3789  0.2838
10466TIP3   OH252888   2.985   2.925   2.241 -0.0748 -0.4974 -0.0422
10466TIP3    H152889   2.956   2.860   2.305  0.9767 -1.2948 -0.3632
10466TIP3    H252890   2.904   2.960   2.204 -0.6611 -1.0842  0.6679
10467TIP3   OH252891   4.760   1.331   0.539 -0.2631 -0.0750  0.2917
10467TIP3    H152892   4.710   1.358   0.616 -2.3063 -1.9492 -0.3021
10467TIP3    H252893   4.836   1.389   0.538 -1.4236  1.5728  2.3430
10468TIP3   OH252894   4.956   1.499  10.382 -0.0514  0.1956  0.5484
10468TIP3    H152895   5.023   1.445  10.423  0.5782 -0.5123 -1.3222
10468TIP3    H252896   4.989   1.589  10.391 -0.3363  0.1365  2.2813
10469TIP3   OH252897   3.242   6.019  14.818  0.0431 -0.5082  0.2335
10469TIP3    H152898   3.235   6.025  14.913  1.1093 -1.6652  0.4087
10469TIP3    H252899   3.218   6.106  14.786  3.7442  1.1903  1.8020
10470TIP3   OH252900   0.920   2.040  15.359 -0.3107  0.7712  0.2369
10470TIP3    H152901   0.844   1.989  15.387  0.1309 -0.5965 -1.0058
10470TIP3    H252902   0.954   2.078  15.440 -0.5379 -1.0706  1.2249
10471TIP3   OH252903   3.376   2.680  11.355 -0.0191 -0.5627  0.6314
10471TIP3    H152904   3.450   2.678  11.295 -1.0566 -2.4503 -0.6724
10471TIP3    H252905   3.396   2.614  11.421 -0.2254 -0.5968  0.6623
10472TIP3   OH252906   5.273   3.310  12.084  0.2157 -0.6259  0.3415
10472TIP3    H152907   5.355   3.263  12.098 -0.2759 -2.1950 -1.7566
10472TIP3    H252908   5.207   3.241  12.074 -0.9446  0.5598 -0.3731
10473TIP3   OH252909   3.517   2.265  12.134 -0.1099  0.0911 -0.4388
10473TIP3    H152910   3.450   2.242  12.198  0.4275  0.8789  0.4388
10473TIP3    H252911   3.487   2.347  12.095  0.4626  0.5953  0.1589
10474TIP3   OH252912   5.449   4.760  15.174 -0.0046  0.6760 -0.5473
10474TIP3    H152913   5.442   4.693  15.106  1.0427 -1.4066  1.3399
10474TIP3    H252914   5.359   4.788  15.188 -0.6966 -1.5974 -0.1777
10475TIP3   OH252915   0.813   1.689   3.000 -0.3341 -0.2653  0.1727
10475TIP3    H152916   0.908   1.701   2.998 -0.4110  0.3426  0.1788
10475TIP3    H252917   0.787   1.721   3.087 -0.6113  0.0554 -0.0298
10476TIP3   OH252918   5.369   1.410   3.578  0.3294  0.0588  0.1408
10476TIP3    H152919   5.334   1.345   3.517  0.8402  0.8805 -1.0293
10476TIP3    H252920   5.351   1.494   3.537  2.3294  0.5494  0.2319
10477TIP3   OH252921   4.213   0.085  10.181 -0.3565  0.5192 -0.2846
10477TIP3    H152922   4.216   0.076  10.276 -0.9067  0.0278 -0.3071
10477TIP3    H252923   4.120   0.079  10.160 -0.2395  0.6803 -0.8482
10478TIP3   OH252924   6.112   2.758  15.111  0.6403  0.0688  0.1552
10478TIP3    H152925   6.044   2.765  15.044  0.9205  0.8551 -0.0479
10478TIP3    H252926   6.104   2.668  15.143  1.2675 -0.7046 -1.7472
10479TIP3   OH252927   2.858   0.051  10.541 -0.0533  0.5561  1.0188
10479TIP3    H152928   2.835  -0.042  10.540 -0.4960  0.6667  0.4583
10479TIP3    H252929   2.954   0.051  10.543 -0.0914  0.0957  3.9741
10480TIP3   OH252930   3.719   5.261   0.964  0.0215  0.7972 -0.0275
10480TIP3    H152931   3.651   5.197   0.943  0.9107 -0.5024  0.9918
10480TIP3    H252932   3.677   5.318   1.030  0.2537 -0.6716  1.4292
10481TIP3   OH252933   2.434   2.685  12.705  0.2124 -0.6462 -0.4404
10481TIP3    H152934   2.365   2.659  12.765  0.9992 -2.7307 -0.4154
10481TIP3    H252935   2.467   2.603  12.667  3.9230  0.0994  0.9203
10482TIP3   OH252936   6.360   0.627  14.453 -0.0514  0.6922  0.1587
10482TIP3    H152937   6.264   0.625  14.449  0.0137  0.6462 -3.7021
10482TIP3    H252938   6.384   0.544  14.494 -1.6397  0.0647 -0.1399
10483TIP3   OH252939   4.428   5.024  10.876  0.1033 -0.0305 -0.5197
10483TIP3    H152940   4.480   4.958  10.831  1.9736  0.7265  0.4726
10483TIP3    H252941   4.424   5.098  10.815  2.7391  1.0434  0.5459
10484TIP3   OH252942   0.210   2.184  14.139 -0.2824  0.0337  0.7158
10484TIP3    H152943   0.263   2.177  14.218  1.0682 -1.7643 -0.2838
10484TIP3    H252944   0.246   2.259  14.092 -1.0977  1.1070  1.8118
10485TIP3   OH252945   6.153   3.432  13.822  0.3994  0.5286  0.5292
10485TIP3    H152946   6.151   3.484  13.741  1.3409 -1.4108 -0.7784
10485TIP3    H252947   6.083   3.368  13.810 -0.4142  1.1409  1.9171
10486TIP3   OH252948   4.101   5.600  16.415 -0.3618  0.9297  1.0616
10486TIP3    H152949   4.145   5.671  16.462 -2.2309  2.3798  0.7064
10486TIP3    H252950   4.171   5.554  16.370  1.1132  1.3378  2.8766
10487TIP3   OH252951   1.182   4.553  13.462  0.0179  0.0672  0.0037
10487TIP3    H152952   1.247   4.522  13.525  0.6089  0.5565 -0.3528
10487TIP3    H252953   1.160   4.476  13.411  0.1651 -0.1491  0.2652
10488TIP3   OH252954   1.614   6.210   3.668  0.1216 -0.4815  0.0577
10488TIP3    H152955   1.628   6.147   3.738  0.5718  1.1016  1.4170
10488TIP3    H252956   1.538   6.261   3.696  0.4545  0.3245 -0.4795
10489TIP3   OH252957   1.679   3.310  13.642 -0.1877 -0.2302 -0.1030
10489TIP3    H152958   1.588   3.312  13.670 -0.0683 -0.3251  0.2884
10489TIP3    H252959   1.703   3.402  13.631 -0.6097 -0.2278 -1.1220
10490TIP3   OH252960   6.029   6.281  11.814 -0.1503  0.3786  0.2604
10490TIP3    H152961   5.940   6.311  11.830 -0.1613  1.0406 -1.0134
10490TIP3    H252962   6.019   6.198  11.769 -0.1212  0.1776  0.6233
10491TIP3   OH252963   4.566   4.145   5.434 -0.2975 -0.2803 -0.3362
10491TIP3    H152964   4.575   4.097   5.352 -0.7906 -0.2911 -0.3863
10491TIP3    H252965   4.610   4.229   5.418  0.4437 -0.6557 -0.2929
10492TIP3   OH252966   0.445   2.927  12.202 -0.0944 -0.4807  0.0330
10492TIP3    H152967   0.416   2.867  12.134  0.1710 -0.3861 -0.1617
10492TIP3    H252968   0.406   3.011  12.179  1.1989 -0.1026 -0.8162
10493TIP3   OH252969   0.835   5.770   6.522 -0.4645  0.7457  0.9696
10493TIP3    H152970   0.804   5.809   6.604  1.9235  1.5829  1.4917
10493TIP3    H252971   0.828   5.841   6.458  0.4493  0.9760  1.1167
10494TIP3   OH252972   5.989   5.272   5.103  0.3630 -0.9789 -0.8024
10494TIP3    H152973   5.926   5.205   5.078  0.4538 -1.2152 -0.4042
10494TIP3    H252974   6.070   5.247   5.058  0.5511 -1.4536 -0.2048
10495TIP3   OH252975   2.436   6.092   5.748 -0.1611  0.2719  0.1057
10495TIP3    H152976   2.382   6.124   5.820 -1.5664 -1.9015  0.0424
10495TIP3    H252977   2.398   6.132   5.670 -1.0809 -0.4675  0.1689
10496TIP3   OH252978   1.906   4.529   3.817  0.3056  0.0338  0.6820
10496TIP3    H152979   1.967   4.548   3.745 -0.1470  0.6309  0.4540
10496TIP3    H252980   1.930   4.441   3.846  0.4469 -0.2409 -0.2448
10497TIP3   OH252981   1.231   1.945  12.561 -0.5312 -0.4956  0.1364
10497TIP3    H152982   1.186   1.974  12.482  0.0863 -1.4057 -0.5650
10497TIP3    H252983   1.320   1.924  12.531 -0.3756 -1.1222  1.0222
10498TIP3   OH252984   0.844   1.043   3.736 -0.1513  0.1387  0.4866
10498TIP3    H152985   0.828   1.129   3.776 -0.8249 -0.0966  0.7275
10498TIP3    H252986   0.783   1.039   3.663  0.3070  0.1107  0.0999
10499TIP3   OH252987   1.879   0.540  12.901  0.2912  0.0295 -0.4227
10499TIP3    H152988   1.801   0.488  12.881 -1.1014  2.2332 -0.8035
10499TIP3    H252989   1.917   0.497  12.978 -1.5890 -0.7405  0.0985
10500TIP3   OH252990   3.530   2.734  14.042 -0.2085  0.8125 -0.4800
10500TIP3    H152991   3.463   2.740  14.110  0.1478 -2.6520  0.2371
10500TIP3    H252992   3.598   2.678  14.079  2.0053  2.3299 -2.0944
10501TIP3   OH252993   5.205   1.478   2.440  1.0180  0.1902 -1.2439
10501TIP3    H152994   5.129   1.488   2.382  0.9382 -0.8047 -1.3185
10501TIP3    H252995   5.272   1.438   2.384  0.9220 -0.8270 -0.6275
10502TIP3   OH252996   3.945   2.570  15.605  0.5737 -0.4855 -0.3281
10502TIP3    H152997   3.964   2.487  15.649 -1.6684 -0.8015  0.0773
10502TIP3    H252998   4.021   2.625  15.624  1.5039 -2.0096  0.4692
10503TIP3   OH252999   0.521   2.267  12.602  0.5474  0.9166 -0.2114
10503TIP3    H153000   0.485   2.247  12.688 -0.4832 -0.8514 -1.0150
10503TIP3    H253001   0.449   2.310  12.555  0.7931  1.0389 -0.4739
10504TIP3   OH253002   5.498   0.322  12.378 -0.0196 -0.3465  0.0895
10504TIP3    H153003   5.547   0.264  12.436  1.2244  1.0368  0.4733
10504TIP3    H253004   5.565   0.378  12.338 -1.0557 -0.0299 -1.2430
10505TIP3   OH253005   4.800   4.423   2.493 -0.5844  0.0621 -0.2945
10505TIP3    H153006   4.762   4.475   2.564  0.1825 -0.7778  0.7464
10505TIP3    H253007   4.887   4.461   2.480 -1.4790  1.5050 -2.1632
10506TIP3   OH253008   1.898   1.190  14.761  0.1433 -0.1348  0.1238
10506TIP3    H153009   1.825   1.134  14.734  0.3314  0.0815 -0.8210
10506TIP3    H253010   1.856   1.267  14.800 -0.1296  0.0760 -0.5876
10507TIP3   OH253011   3.479   5.491  16.744 -0.5064 -0.4262 -0.1489
10507TIP3    H153012   3.526   5.476  16.662  0.4021 -0.3896  0.3638
10507TIP3    H253013   3.397   5.532  16.717  0.6528  1.4619 -0.8888
10508TIP3   OH253014   3.747   4.829   3.679 -0.0579 -0.0329 -0.3456
10508TIP3    H153015   3.732   4.924   3.684  1.7665  0.2333  0.1925
10508TIP3    H253016   3.832   4.820   3.636  1.1939 -1.3291  2.2950
10509TIP3   OH253017   2.024   6.666  12.737  0.4438  0.3810  0.2951
10509TIP3    H153018   2.112   6.690  12.768  0.8058 -0.6991  0.1024
10509TIP3    H253019   1.965   6.726  12.784  1.3832  2.0361 -0.5851
10510TIP3   OH253020   1.529   1.720   3.416  0.7635  0.3187 -0.6231
10510TIP3    H153021   1.496   1.630   3.417 -1.4124  0.9400 -4.2874
10510TIP3    H253022   1.607   1.718   3.471  0.3176 -3.6271  0.0218
10511TIP3   OH253023   6.260   6.334  14.615 -0.0784  0.3872 -0.2571
10511TIP3    H153024   6.325   6.264  14.625  0.0200  0.5418  0.1977
10511TIP3    H253025   6.202   6.324  14.691 -0.7952  0.0361 -0.8402
10512TIP3   OH253026   2.164   2.212   0.780  0.0955  0.4020  0.2144
10512TIP3    H153027   2.091   2.150   0.784  0.0542  0.1999 -2.4954
10512TIP3    H253028   2.242   2.159   0.795  0.0769 -0.4345 -2.3103
10513TIP3   OH253029   2.397   5.292   5.124 -0.1205  0.3186  0.6374
10513TIP3    H153030   2.482   5.327   5.097  0.0598  0.7687  1.7279
10513TIP3    H253031   2.417   5.208   5.164 -0.1480  0.5617  1.1686
10514TIP3   OH253032   4.787   0.349   1.868 -0.7552  0.1219  0.2547
10514TIP3    H153033   4.764   0.339   1.960 -1.6907  0.9024  0.1150
10514TIP3    H253034   4.728   0.289   1.822  0.3474 -0.9572  0.2381
10515TIP3   OH253035   3.012   4.808   2.931 -0.1533 -0.6767  0.6448
10515TIP3    H153036   3.097   4.774   2.902 -0.5469 -1.8710  0.8955
10515TIP3    H253037   2.948   4.762   2.876 -0.6343  0.3805  0.3043
10516TIP3   OH253038   1.892   6.099   5.895 -0.3714  0.0693  0.1047
10516TIP3    H153039   1.798   6.085   5.885 -0.4450  1.3773 -1.1967
10516TIP3    H253040   1.933   6.034   5.838 -0.4465 -0.9557  1.1914
10517TIP3   OH253041   4.121   3.230   1.520 -0.2236  0.0355  0.0854
10517TIP3    H153042   4.162   3.149   1.549 -2.9713 -1.1970  0.5967
10517TIP3    H253043   4.186   3.298   1.540  1.8988 -1.9330  0.0966
10518TIP3   OH253044   1.030   3.704   5.204 -0.0217  0.6019 -0.3829
10518TIP3    H153045   1.031   3.687   5.109  1.0638  0.0099 -0.2686
10518TIP3    H253046   1.053   3.796   5.212  1.5925  0.2281 -0.6118
10519TIP3   OH253047   2.170   4.445  12.486 -0.6020 -0.0901 -0.1418
10519TIP3    H153048   2.252   4.401  12.507  0.5013  2.1051  0.3161
10519TIP3    H253049   2.159   4.433  12.392  2.6441  3.4109 -1.0693
10520TIP3   OH253050   1.128   1.315  11.523  0.2177 -0.3432  0.7730
10520TIP3    H153051   1.183   1.368  11.466  1.4499 -0.2958  1.9697
10520TIP3    H253052   1.092   1.247  11.466 -1.8467  2.0511 -0.9151
10521TIP3   OH253053   2.075   6.563   0.436  0.2179  0.9190  0.3945
10521TIP3    H153054   2.030   6.489   0.476 -0.9706  0.9556 -0.8344
10521TIP3    H253055   2.168   6.538   0.436  0.0052  0.0981  1.3819
10522TIP3   OH253056   0.619   3.843   0.771 -0.0308  0.3263 -0.5138
10522TIP3    H153057   0.616   3.775   0.703  1.1936  0.0980 -0.3474
10522TIP3    H253058   0.711   3.847   0.796 -0.1392  1.8885 -0.3535
10523TIP3   OH253059   1.372   5.275  12.618  0.0465  0.1636 -0.1520
10523TIP3    H153060   1.313   5.235  12.554 -0.4106  1.2418 -0.4275
10523TIP3    H253061   1.459   5.263  12.582 -0.2023  0.6613 -0.9322
10524TIP3   OH253062   1.300   0.764  13.089 -0.2650 -0.0421  0.2205
10524TIP3    H153063   1.333   0.789  13.003 -1.6545  0.8463 -0.0784
10524TIP3    H253064   1.264   0.676  13.076 -3.2222  1.2493 -0.9091
10525TIP3   OH253065   3.225   5.666   1.953 -0.4803 -0.3308  0.2083
10525TIP3    H153066   3.162   5.603   1.918 -0.8487 -0.9086  1.8395
10525TIP3    H253067   3.305   5.616   1.966 -0.2856 -0.0752 -0.0140
10526TIP3   OH253068   3.295   3.593  14.024  0.7453 -0.1957  0.0370
10526TIP3    H153069   3.290   3.647  14.103 -1.2999 -0.0029 -0.2024
10526TIP3    H253070   3.370   3.536  14.039  1.4654  1.0528  1.3455
10527TIP3   OH253071   0.186   2.251  12.393  0.4218  0.2460  0.2971
10527TIP3    H153072   0.188   2.197  12.472 -0.5724  1.4461  1.1553
10527TIP3    H253073   0.250   2.320  12.410 -0.9262  1.4141  0.7364
10528TIP3   OH253074   4.446   2.128   4.252 -0.1232 -0.5565 -0.3108
10528TIP3    H153075   4.420   2.037   4.240 -1.6598 -0.5575  2.5163
10528TIP3    H253076   4.507   2.146   4.180  1.4258 -4.2738 -0.0229
10529TIP3   OH253077   6.175   3.630  14.032 -0.2441 -0.6541 -0.3297
10529TIP3    H153078   6.165   3.550  13.980 -0.8634 -0.2688 -0.8118
10529TIP3    H253079   6.137   3.609  14.117  0.8143 -1.3060 -0.0078
10530TIP3   OH253080   4.577   2.308  11.085  0.9437 -0.3648 -0.4028
10530TIP3    H153081   4.632   2.245  11.040  0.2837 -1.6460  0.5602
10530TIP3    H253082   4.635   2.383  11.103  1.7323 -0.7118 -1.5039
10531TIP3   OH253083   4.871   2.507  16.908 -0.1510  0.3122  0.6944
10531TIP3    H153084   4.868   2.596  16.873  0.1645  0.3620  0.7948
10531TIP3    H253085   4.952   2.470  16.873  0.0045  0.2547  1.1159
10532TIP3   OH253086   4.431   5.170   5.159 -0.1060 -0.7001 -0.1683
10532TIP3    H153087   4.359   5.212   5.113  1.4211  1.7289 -0.4185
10532TIP3    H253088   4.425   5.205   5.248  1.9895  1.1406 -0.7265
10533TIP3   OH253089   6.701   4.431   6.356 -0.1788 -0.0735 -0.0130
10533TIP3    H153090   6.628   4.490   6.334 -0.6603  0.5081  2.9837
10533TIP3    H253091   6.771   4.490   6.385  0.1125 -0.8462  0.8709
10534TIP3   OH253092   2.165   6.089  16.018 -0.2146  0.2873  0.6234
10534TIP3    H153093   2.090   6.034  16.043 -1.2660  2.0131  1.3551
10534TIP3    H253094   2.126   6.169  15.986  1.3278  0.9986  0.4842
10535TIP3   OH253095   6.317   5.200   2.870 -0.1246 -0.0228 -0.3012
10535TIP3    H153096   6.272   5.216   2.787 -0.7407  0.5705  0.1387
10535TIP3    H253097   6.324   5.104   2.875  0.5564 -0.0321 -1.3677
10536TIP3   OH253098   5.198   6.033  13.166  0.2779  0.2082 -0.3711
10536TIP3    H153099   5.113   6.008  13.201  0.1488  0.3144 -0.6103
10536TIP3    H253100   5.190   6.127  13.146  0.2790  0.1020 -0.8909
10537TIP3   OH253101   1.705   6.090   1.247 -0.3138 -0.2152  0.0917
10537TIP3    H153102   1.677   6.132   1.166 -0.4578  1.9807  1.2462
10537TIP3    H253103   1.791   6.127   1.264 -1.0179  0.6530  1.8405
10538TIP3   OH253104   4.088   5.553  10.763  0.5903  0.7565  0.0672
10538TIP3    H153105   4.161   5.577  10.705 -0.7116  0.3277 -1.8085
10538TIP3    H253106   4.020   5.618  10.744 -0.2756 -0.0812  0.2582
10539TIP3   OH253107   4.115   0.891   3.839  0.4629  0.5277 -0.5500
10539TIP3    H153108   4.068   0.828   3.892  0.4135  0.6409 -0.4590
10539TIP3    H253109   4.123   0.849   3.753  0.6520  0.2957 -0.4181
10540TIP3   OH253110   1.004   5.496  13.727  0.2802  0.0739 -0.2908
10540TIP3    H153111   1.091   5.514  13.691  0.4093  0.6683  0.3094
10540TIP3    H253112   0.950   5.568  13.695  0.1927  0.1308 -0.0135
10541TIP3   OH253113   1.290   6.256  15.757 -0.1513 -0.5166  0.4680
10541TIP3    H153114   1.333   6.330  15.713 -0.5553  0.5735  1.8454
10541TIP3    H253115   1.261   6.199  15.686 -0.5206  1.0380 -0.6545
10542TIP3   OH253116   4.833   1.020  12.660 -0.1040  0.4443 -0.3000
10542TIP3    H153117   4.920   1.013  12.620  0.4082 -1.9515  1.1624
10542TIP3    H253118   4.850   1.023  12.754 -1.6519 -1.1736  0.0485
10543TIP3   OH253119   0.394   3.393   2.308  0.1889  0.1499  0.1111
10543TIP3    H153120   0.349   3.358   2.385 -1.0158 -0.4367 -0.8467
10543TIP3    H253121   0.397   3.488   2.324  0.5908 -0.0396  1.2072
10544TIP3   OH253122   4.344   0.851  16.482 -0.4280  0.0158  0.1532
10544TIP3    H153123   4.302   0.768  16.503  3.7621 -2.3284 -0.0584
10544TIP3    H253124   4.347   0.898  16.565 -0.3803 -1.2548  0.8763
10545TIP3   OH253125   1.592   3.611  14.877 -0.0871 -0.2608 -0.6639
10545TIP3    H153126   1.540   3.571  14.807  0.4494 -1.6043 -0.3287
10545TIP3    H253127   1.579   3.552  14.952  0.6387  0.2673 -0.1213
10546TIP3   OH253128   2.809   5.713   4.468 -0.3524 -0.0235 -0.2712
10546TIP3    H153129   2.795   5.618   4.467  1.2421 -0.2831 -0.4299
10546TIP3    H253130   2.752   5.746   4.537 -0.2914 -1.2078  0.3490
10547TIP3   OH253131   3.688   6.797  15.835  0.4202 -0.2641 -0.2607
10547TIP3    H153132   3.697   6.850  15.914 -0.1771 -0.1297 -0.2811
10547TIP3    H253133   3.778   6.777  15.809  0.6488  0.7298 -0.2517
10548TIP3   OH253134   5.779   0.911   1.267  0.0950 -0.1931  0.3474
10548TIP3    H153135   5.868   0.946   1.272  0.2982 -0.3929 -1.4603
10548TIP3    H253136   5.753   0.925   1.176 -1.5584 -0.5491  0.7502
10549TIP3   OH253137   6.424   6.528  16.287  0.2921 -0.1166 -0.2548
10549TIP3    H153138   6.388   6.617  16.294  0.0150 -0.1860 -0.8226
10549TIP3    H253139   6.351   6.471  16.311  0.2997 -0.2186 -0.4740
10550TIP3   OH253140   3.906   1.334   4.788 -0.0071 -0.7145  0.2619
10550TIP3    H153141   3.883   1.320   4.696 -0.6945  0.0127  0.3131
10550TIP3    H253142   3.917   1.429   4.795  0.3745 -0.7991  0.8587
10551TIP3   OH253143   4.836   2.277  11.328  0.6462 -0.7450  0.3461
10551TIP3    H153144   4.803   2.334  11.258 -1.5556  0.1350  2.0113
10551TIP3    H253145   4.881   2.337  11.388  1.7214 -1.3585  0.1637
10552TIP3   OH253146   0.983   2.202   6.410  0.3359  0.0038  0.7001
10552TIP3    H153147   0.922   2.176   6.479 -0.7924  1.7790  0.3901
10552TIP3    H253148   0.955   2.289   6.384  2.5895  0.5763  0.0576
10553TIP3   OH253149   3.889   3.790   6.306 -0.2802 -0.2089  0.1035
10553TIP3    H153150   3.855   3.864   6.255  0.4439  1.8031  2.4392
10553TIP3    H253151   3.981   3.783   6.281 -0.7454 -1.4266 -1.3451
10554TIP3   OH253152   3.323   6.340  14.295  0.2758 -0.5647 -0.5539
10554TIP3    H153153   3.346   6.423  14.253 -1.1700 -0.3874 -1.0189
10554TIP3    H253154   3.404   6.310  14.336  0.8217  1.0295 -0.4640
10555TIP3   OH253155   2.996   6.159   5.563 -0.0694 -0.0702 -0.5622
10555TIP3    H153156   2.939   6.184   5.636  0.7977  2.3228 -0.6691
10555TIP3    H253157   2.976   6.222   5.494  0.8555 -0.8241 -1.5392
10556TIP3   OH253158   4.697   5.884   6.621  0.7225 -0.1697 -0.5801
10556TIP3    H153159   4.702   5.965   6.570 -1.1680 -0.5546 -1.4344
10556TIP3    H253160   4.631   5.903   6.688 -1.0312 -1.5354 -1.8538
10557TIP3   OH253161   3.471   5.192   4.619  0.1503  0.3385  0.1646
10557TIP3    H153162   3.472   5.287   4.611 -0.4484  0.4070  0.8619
10557TIP3    H253163   3.535   5.172   4.686  1.4593  0.1233 -1.1190
10558TIP3   OH253164   5.309   0.158   0.087 -0.6978 -0.0117  0.1730
10558TIP3    H153165   5.254   0.219   0.135 -1.6302 -0.3857 -0.4127
10558TIP3    H253166   5.363   0.117   0.154 -0.9751  0.5108  0.7235
10559TIP3   OH253167   0.344   1.401  12.973  0.4356  0.6355  0.2029
10559TIP3    H153168   0.289   1.476  12.995 -0.2803 -0.2379  1.4968
10559TIP3    H253169   0.433   1.430  12.991  0.1628  1.1859  0.6946
10560TIP3   OH253170   3.389   4.120   6.162 -0.3609 -0.0836  0.3736
10560TIP3    H153171   3.390   4.025   6.152  1.2622 -0.1987  1.4191
10560TIP3    H253172   3.469   4.139   6.212 -0.5734  1.8434 -0.0106
10561TIP3   OH253173   0.966   6.188   5.844 -0.1437 -0.2572 -0.0921
10561TIP3    H153174   0.938   6.108   5.889  1.9247 -0.6383  0.5614
10561TIP3    H253175   0.979   6.161   5.753 -0.7773 -0.3359 -0.1625
10562TIP3   OH253176   1.459   0.204   2.880  0.0480 -0.4925 -0.0116
10562TIP3    H153177   1.537   0.188   2.826  1.4346  1.8339  1.2139
10562TIP3    H253178   1.391   0.228   2.817 -0.0034 -3.5130 -1.1829
10563TIP3   OH253179   5.598   1.674   5.660  0.7574 -0.0915 -0.0844
10563TIP3    H153180   5.581   1.750   5.716  3.0720  0.0177  0.5284
10563TIP3    H253181   5.555   1.695   5.577  0.4830  1.4204  0.4192
10564TIP3   OH253182   3.306   2.944   0.023 -0.0957  0.1212 -0.7956
10564TIP3    H153183   3.313   2.878   0.092  0.1594 -0.6139 -1.5132
10564TIP3    H253184   3.354   3.020   0.056 -2.1457  0.7054  0.9292
10565TIP3   OH253185   3.112   4.193  15.079  0.7097  0.6462  0.5543
10565TIP3    H153186   3.177   4.122  15.076  0.5083  0.4977 -0.6674
10565TIP3    H253187   3.039   4.159  15.028 -0.3797  0.7761  1.9987
10566TIP3   OH253188   0.336   3.573  16.875 -0.3110  0.4368  0.1503
10566TIP3    H153189   0.396   3.597  16.945 -0.3328  1.7245 -0.2570
10566TIP3    H253190   0.295   3.492  16.905  0.3026  0.5231  1.2365
10567TIP3   OH253191   4.530   4.332   4.782  0.3725 -0.1002  0.3198
10567TIP3    H153192   4.500   4.244   4.804  1.5788 -0.0269  2.4560
10567TIP3    H253193   4.622   4.321   4.759  0.7274  0.6852  1.3122
10568TIP3   OH253194   5.696   0.810  13.746 -0.2999  0.1937  0.0634
10568TIP3    H153195   5.681   0.830  13.838 -0.6814  0.4457 -0.0543
10568TIP3    H253196   5.630   0.860  13.699  1.3267  1.8687 -0.5070
10569TIP3   OH253197   3.529   3.366   4.857 -0.0091  0.0280 -0.0692
10569TIP3    H153198   3.439   3.384   4.883  0.1834 -0.0031  0.6459
10569TIP3    H253199   3.566   3.319   4.931 -0.6114 -3.7549 -2.0782
10570TIP3   OH253200   3.260   3.346  10.392  0.3645 -0.3058 -0.0266
10570TIP3    H153201   3.313   3.280  10.347  0.5993  1.0310 -1.7022
10570TIP3    H253202   3.304   3.358  10.476  1.9500 -0.2077 -0.8595
10571TIP3   OH253203   6.132   6.753  15.838  0.0780 -0.2485 -0.0868
10571TIP3    H153204   6.111   6.660  15.827 -0.8190 -0.0433 -0.1532
10571TIP3    H253205   6.157   6.783  15.751  0.4914 -0.4563 -0.0416
10572TIP3   OH253206   3.350   2.017  14.782 -0.2352  0.1056 -0.0621
10572TIP3    H153207   3.274   2.003  14.838 -0.3982 -0.1019 -0.3352
10572TIP3    H253208   3.391   2.096  14.817 -0.8022  0.4472 -0.1604
10573TIP3   OH253209   0.059   1.672  14.825 -0.0809  0.5383  0.5991
10573TIP3    H153210   0.061   1.655  14.919 -0.5167  1.0808  0.7105
10573TIP3    H253211   0.013   1.597  14.788  2.4143 -1.0005  0.5086
10574TIP3   OH253212   6.721   5.592  15.226 -0.1650 -0.2845  0.5530
10574TIP3    H153213   6.707   5.685  15.241 -3.1906 -0.4996 -0.5240
10574TIP3    H253214   6.735   5.585  15.131 -0.2208 -0.9199  0.5882
10575TIP3   OH253215   0.956   1.109   3.124  0.3593  0.2245  0.0843
10575TIP3    H153216   0.894   1.038   3.104  0.9062 -0.5741  1.1438
10575TIP3    H253217   1.040   1.077   3.092  0.4506  0.7491 -0.1880
10576TIP3   OH253218   4.400   5.747   5.999  0.7606 -0.0998  0.3994
10576TIP3    H153219   4.416   5.841   5.989  2.3447 -0.3842  0.1620
10576TIP3    H253220   4.407   5.731   6.093  0.8221 -0.0418  0.4050
10577TIP3   OH253221   0.224   2.372   1.162  0.2811  0.2538 -0.3934
10577TIP3    H153222   0.282   2.297   1.177 -0.0604  0.2855  1.2357
10577TIP3    H253223   0.141   2.332   1.136 -0.9851 -0.2073  3.9130
10578TIP3   OH253224   5.681   4.742   4.307  0.5640 -0.2741  0.1376
10578TIP3    H153225   5.600   4.762   4.354  0.7213 -1.1171  0.7717
10578TIP3    H253226   5.745   4.726   4.376  0.9353 -0.9562 -0.3617
10579TIP3   OH253227   2.734   2.989  11.854  0.7031  0.2108 -0.2262
10579TIP3    H153228   2.776   3.021  11.774  0.1277  2.3248  0.2900
10579TIP3    H253229   2.767   3.046  11.923 -1.8359  0.9890  0.4049
10580TIP3   OH253230   5.773   0.915  16.867 -0.5963  0.3148 -0.3344
10580TIP3    H153231   5.842   0.963  16.819 -0.5763  0.6311  0.0126
10580TIP3    H253232   5.692   0.944  16.825 -0.4149 -1.4572 -1.9824
10581TIP3   OH253233   3.007   6.330  10.836 -0.0069  0.2464  0.1058
10581TIP3    H153234   3.013   6.424  10.821  1.2579  0.1865  0.2297
10581TIP3    H253235   3.063   6.314  10.911  0.1906 -0.6862 -0.2392
10582TIP3   OH253236   0.717   3.270  14.142  0.2418 -0.0458 -0.1739
10582TIP3    H153237   0.623   3.253  14.136  0.1937  0.1678 -0.0328
10582TIP3    H253238   0.732   3.342  14.080  0.1221  0.6690  0.6174
10583TIP3   OH253239   3.487   4.389  11.069  0.3642  0.1722 -0.1489
10583TIP3    H153240   3.397   4.362  11.053  0.4538 -0.5941  0.6370
10583TIP3    H253241   3.498   4.468  11.015 -0.8838  0.4802  0.0330
10584TIP3   OH253242   5.106   4.291   1.270  0.7839 -0.7812 -0.1961
10584TIP3    H153243   5.182   4.317   1.323  0.8619  0.2657 -0.8195
10584TIP3    H253244   5.073   4.372   1.234 -0.3753 -1.2951 -0.3036
10585TIP3   OH253245   6.551   2.302  16.078  0.1647  0.5237  0.5584
10585TIP3    H153246   6.538   2.233  16.143 -1.7003  1.8401  1.6111
10585TIP3    H253247   6.521   2.263  15.995 -2.3333  0.5719  1.4181
10586TIP3   OH253248   1.347   3.207  13.244  0.0799  0.5346 -0.2903
10586TIP3    H153249   1.406   3.251  13.183  0.0071  1.0891  0.0374
10586TIP3    H253250   1.404   3.157  13.301  0.0956 -0.8345 -1.4633
10587TIP3   OH253251   0.291   2.197   5.145 -0.2943 -0.4472 -0.2242
10587TIP3    H153252   0.217   2.257   5.137  0.7220  0.7759 -0.6169
10587TIP3    H253253   0.359   2.248   5.190  0.1531 -1.7035  0.5469
10588TIP3   OH253254   2.628   5.867  14.121 -0.1866 -0.2496 -0.5157
10588TIP3    H153255   2.713   5.850  14.162  1.1918 -1.3701 -3.6726
10588TIP3    H253256   2.595   5.781  14.098 -2.3812  0.1669  0.9401
10589TIP3   OH253257   3.981   0.797  13.434 -0.3679 -0.2702  0.1914
10589TIP3    H153258   3.939   0.841  13.507  1.1882 -0.2412  1.1012
10589TIP3    H253259   4.011   0.713  13.471 -0.7047 -0.8084 -0.7457
10590TIP3   OH253260   3.741   3.272  12.953  0.4194  0.6146  0.0105
10590TIP3    H153261   3.723   3.181  12.977  1.9259 -0.1504 -1.7035
10590TIP3    H253262   3.666   3.321  12.988 -1.4438 -1.5556 -0.8423
10591TIP3   OH253263   1.784   3.721  16.401 -0.2532  0.1535 -0.6191
10591TIP3    H153264   1.696   3.752  16.378 -0.1837  0.6540 -0.2069
10591TIP3    H253265   1.781   3.627  16.384 -0.4100  0.4089 -2.0364
10592TIP3   OH253266   6.668   4.414  12.861  0.3009 -0.0995 -0.6234
10592TIP3    H153267   6.700   4.436  12.773  1.9868  0.7015  0.1788
10592TIP3    H253268   6.605   4.343  12.846  0.0690  0.4710 -2.5428
10593TIP3   OH253269   0.493   0.151   3.998 -0.6444 -0.2046 -0.1983
10593TIP3    H153270   0.557   0.087   4.028  0.8605  0.1902 -2.4147
10593TIP3    H253271   0.500   0.149   3.902 -2.0125  1.8016 -0.3804
10594TIP3   OH253272   1.964   2.017  12.623 -0.3164  0.6292 -0.5525
10594TIP3    H153273   2.039   2.072  12.647 -0.9657  0.8159  1.0832
10594TIP3    H253274   1.888   2.065  12.655 -0.9253 -0.9883  0.4734
10595TIP3   OH253275   2.786   4.225   3.808 -0.3982  0.2504 -0.9239
10595TIP3    H153276   2.808   4.296   3.746  0.4678  0.1681 -0.7200
10595TIP3    H253277   2.863   4.169   3.808 -1.0351 -0.6310 -0.9821
10596TIP3   OH253278   5.442   3.307  11.545  0.0049 -0.2027  0.7370
10596TIP3    H153279   5.376   3.294  11.478  0.9097  1.2010 -0.4681
10596TIP3    H253280   5.405   3.375  11.602  0.1507  0.1841  0.3787
10597TIP3   OH253281   2.323   0.428   0.401  0.2043 -0.2198  0.0611
10597TIP3    H153282   2.252   0.481   0.437  0.1549  0.6053 -1.2047
10597TIP3    H253283   2.325   0.451   0.308  0.6377 -1.9327 -0.3719
10598TIP3   OH253284   5.644   2.587  11.472 -0.5625  0.2520 -0.4317
10598TIP3    H153285   5.728   2.622  11.500  0.3020 -0.4803 -2.0692
10598TIP3    H253286   5.654   2.570  11.379 -3.1006  1.8217 -1.0634
10599TIP3   OH253287   1.025   3.425  17.174 -0.3573  0.3671 -0.1625
10599TIP3    H153288   1.046   3.365  17.104  0.0839  0.5169 -0.1632
10599TIP3    H253289   1.017   3.370  17.252 -0.0528  0.2958 -0.1822
10600TIP3   OH253290   0.830   2.442  13.416  0.7245 -0.2083  0.0644
10600TIP3    H153291   0.868   2.528  13.401 -0.8741  0.6375  0.7751
10600TIP3    H253292   0.807   2.441  13.509 -0.3428 -0.9519 -0.1996
10601TIP3   OH253293   2.738   3.711   5.679  0.0568 -0.3526 -0.1653
10601TIP3    H153294   2.820   3.744   5.716 -0.0582 -1.8571  1.5216
10601TIP3    H253295   2.690   3.789   5.653  1.1310  0.6461  0.8097
10602TIP3   OH253296   4.417   5.566   5.364  0.0744  0.0598  0.0755
10602TIP3    H153297   4.412   5.617   5.283  0.3967  1.8375  1.1589
10602TIP3    H253298   4.474   5.617   5.421  1.6733 -2.2856  0.6446
10603TIP3   OH253299   4.727   5.330   0.022  0.0120 -0.1230 -0.2873
10603TIP3    H153300   4.658   5.395   0.034 -1.0632 -1.6287  1.9403
10603TIP3    H253301   4.695   5.275  -0.049 -1.1434 -0.8651  0.7940
10604TIP3   OH253302   0.515   5.795   3.131 -0.0172 -0.7422  0.0095
10604TIP3    H153303   0.540   5.706   3.104  0.1441 -0.9580  0.8507
10604TIP3    H253304   0.562   5.808   3.213 -0.5563 -0.1210  0.2155
10605TIP3   OH253305   5.212   1.520  14.296 -0.0384 -0.2119  0.1645
10605TIP3    H153306   5.140   1.570  14.335 -0.2719 -0.3460 -0.0954
10605TIP3    H253307   5.270   1.500  14.370 -1.4342 -2.0927  0.7805
10606TIP3   OH253308   6.778   6.322   1.240 -0.0681  0.4102 -0.0979
10606TIP3    H153309   6.738   6.321   1.327 -0.7600  2.0418 -0.3885
10606TIP3    H253310   6.863   6.364   1.253  0.2412 -0.2225 -0.0455
10607TIP3   OH253311   3.699   3.367   4.375  0.4451  0.3012  0.0323
10607TIP3    H153312   3.759   3.317   4.320 -1.8161 -1.6010 -0.8023
10607TIP3    H253313   3.725   3.346   4.464  0.9350 -0.6384 -0.3193
10608TIP3   OH253314   2.624   1.812   0.911 -0.2749 -0.0138 -0.2684
10608TIP3    H153315   2.663   1.726   0.900 -1.4126 -0.5004 -0.5696
10608TIP3    H253316   2.547   1.797   0.966  0.3853  1.0533  0.9884
10609TIP3   OH253317   2.531   4.575  14.180  0.4706 -0.1730  0.0789
10609TIP3    H153318   2.453   4.604  14.134  0.8213  1.7454  0.6555
10609TIP3    H253319   2.518   4.604  14.270  0.5153 -2.4702  0.8746
10610TIP3   OH253320   2.957   4.649   1.541 -0.0319 -0.8409  0.0928
10610TIP3    H153321   2.863   4.662   1.552 -0.2579 -2.8766  0.8582
10610TIP3    H253322   2.997   4.701   1.610 -0.3975  2.4897 -2.0891
10611TIP3   OH253323   4.200   5.196  13.483  0.1674  0.3825  0.4554
10611TIP3    H153324   4.235   5.115  13.447 -0.8569 -0.4432  1.3048
10611TIP3    H253325   4.162   5.241  13.408 -2.2022 -1.4522  0.5023
10612TIP3   OH253326   6.440   6.462   4.813  0.0441  0.2783  0.1421
10612TIP3    H153327   6.384   6.531   4.776 -1.3932 -0.2526  1.2658
10612TIP3    H253328   6.512   6.510   4.855 -0.3973  1.0531  0.0217
10613TIP3   OH253329   1.764   0.366  16.263 -0.0085  0.6167  0.8403
10613TIP3    H153330   1.755   0.330  16.351 -0.2913  0.4910  0.7600
10613TIP3    H253331   1.799   0.454  16.276  4.5860 -1.0773  0.8488
10614TIP3   OH253332   4.092   5.944  16.561  0.2129 -0.1258  0.5595
10614TIP3    H153333   4.082   5.870  16.620 -0.3526  0.4820  1.2314
10614TIP3    H253334   4.020   5.934  16.498  0.4383 -0.4232  0.3461
10615TIP3   OH253335   1.264   5.750  12.036 -0.3219  0.5868  0.4133
10615TIP3    H153336   1.337   5.744  12.097  0.1043 -1.0585 -0.2332
10615TIP3    H253337   1.295   5.808  11.966 -0.3543  1.4625  1.1198
10616TIP3   OH253338   0.214   5.967   6.616  0.2629 -0.6203  0.3421
10616TIP3    H153339   0.140   5.911   6.596  0.4418 -1.2089  1.2599
10616TIP3    H253340   0.284   5.938   6.558 -0.0287 -0.5073 -0.0603
10617TIP3   OH253341   4.742   4.779   2.385 -0.0085 -0.1487  0.5138
10617TIP3    H153342   4.707   4.855   2.339  1.1859 -0.5565 -1.1090
10617TIP3    H253343   4.671   4.715   2.383  0.7929 -1.0289 -2.8982
10618TIP3   OH253344   2.997   3.234   3.861  0.2479 -0.2074  0.1222
10618TIP3    H153345   2.921   3.213   3.916 -0.6482 -2.0463 -1.7318
10618TIP3    H253346   3.072   3.198   3.909 -0.2669 -0.0369  1.0689
10619TIP3   OH253347   2.212   1.754  14.693 -0.5149  0.1685 -0.2807
10619TIP3    H153348   2.302   1.722  14.706 -0.6304 -0.2250 -0.4699
10619TIP3    H253349   2.162   1.677  14.668 -0.4033  0.8248 -2.6196
10620TIP3   OH253350   1.077   5.477  11.854  0.4680  0.4206 -0.3648
10620TIP3    H153351   1.026   5.428  11.919  2.9053 -2.5802 -0.6046
10620TIP3    H253352   1.031   5.463  11.772 -0.5667  1.1908  0.0570
10621TIP3   OH253353   2.279   4.567  16.932  0.2507 -0.5937  0.1032
10621TIP3    H153354   2.369   4.570  16.964 -0.1131  0.9867  1.0737
10621TIP3    H253355   2.225   4.580  17.010 -0.7703 -0.1996 -0.6474
10622TIP3   OH253356   5.942   0.080  13.996 -0.2063 -0.4620 -0.1231
10622TIP3    H153357   5.961   0.174  13.987  1.3296 -0.5423  1.9682
10622TIP3    H253358   6.026   0.037  13.981 -0.7565 -1.4783 -0.3520
10623TIP3   OH253359   6.381   3.978   1.419 -0.1176  0.1094 -0.0385
10623TIP3    H153360   6.461   3.952   1.464 -0.0628 -0.8602 -0.6879
10623TIP3    H253361   6.389   4.073   1.410  0.9236  0.0302 -0.0333
10624TIP3   OH253362   5.052   6.162  17.105  0.0534 -0.0039 -0.5009
10624TIP3    H153363   4.970   6.207  17.083  0.3830  0.0842 -1.5636
10624TIP3    H253364   5.120   6.227  17.089  0.2096  0.5909  2.3140
10625TIP3   OH253365   6.476   1.733  13.559 -0.2746  0.0530  0.1331
10625TIP3    H153366   6.448   1.722  13.468  1.6498  3.0223 -0.9049
10625TIP3    H253367   6.553   1.676  13.568  2.9522  3.8029 -1.8961
10626TIP3   OH253368   0.699   0.323  12.951  0.6841 -0.0568 -0.1083
10626TIP3    H153369   0.623   0.312  12.893  1.4578 -1.8040 -0.8386
10626TIP3    H253370   0.747   0.397  12.913 -0.4428  0.8256  0.1428
10627TIP3   OH253371   2.600   5.532   1.022  0.5221  0.1120 -0.4369
10627TIP3    H153372   2.685   5.572   1.006  1.0654 -1.0623 -0.5201
10627TIP3    H253373   2.558   5.529   0.936 -0.3217  2.2614 -0.1346
10628TIP3   OH253374   3.523   6.636   5.609  0.5898  0.0353 -0.0638
10628TIP3    H153375   3.559   6.591   5.533 -1.3973  0.8952 -1.5600
10628TIP3    H253376   3.462   6.573   5.648  0.9451 -0.0918  0.2808
10629TIP3   OH253377   2.420   3.591   4.599  0.4692 -0.0534  0.2685
10629TIP3    H153378   2.456   3.502   4.605 -0.6308 -0.4888  0.4898
10629TIP3    H253379   2.350   3.584   4.534  1.5703  1.0563 -1.0667
10630TIP3   OH253380   1.737   1.752  10.429 -0.1008 -0.8349  0.2258
10630TIP3    H153381   1.782   1.668  10.427 -1.4490 -1.5886  0.8430
10630TIP3    H253382   1.645   1.730  10.416 -0.2669  0.7052 -1.3160
10631TIP3   OH253383   5.733   0.999   2.495  0.4118  0.9500  0.2024
10631TIP3    H153384   5.641   1.021   2.479  0.3433  0.2560 -0.4024
10631TIP3    H253385   5.736   0.976   2.588 -0.6827 -2.1281 -0.4790
10632TIP3   OH253386   3.445   0.649   2.521  0.1007  0.1388  0.2431
10632TIP3    H153387   3.412   0.696   2.444  1.2354 -0.6750 -0.7771
10632TIP3    H253388   3.430   0.556   2.501 -0.7280 -0.0172  1.5572
10633TIP3   OH253389   2.260   3.964   0.973  0.0899 -0.4966  0.1734
10633TIP3    H153390   2.352   3.939   0.968  0.2439  0.3139 -1.3214
10633TIP3    H253391   2.261   4.049   1.018  0.3615  0.8821 -2.3416
10634TIP3   OH253392   3.876   4.341  13.196  0.5390  0.0161  0.1469
10634TIP3    H153393   3.825   4.260  13.200  0.2044  0.2815  1.2599
10634TIP3    H253394   3.855   4.378  13.109 -2.2653  0.8231  1.0974
10635TIP3   OH253395   4.124   6.400  11.306 -0.0640  0.2035 -0.2209
10635TIP3    H153396   4.146   6.320  11.353 -3.7334 -2.1204 -2.2573
10635TIP3    H253397   4.164   6.389  11.220  0.2698  1.0247 -0.1763
10636TIP3   OH253398   1.635   4.113   4.255  0.1467  0.1352 -0.1308
10636TIP3    H153399   1.571   4.137   4.322 -0.8647  0.7616 -1.3108
10636TIP3    H253400   1.709   4.079   4.305 -1.6783 -2.0204  1.1838
10637TIP3   OH253401   0.689   3.804  12.952  0.3897 -0.1863 -0.2078
10637TIP3    H153402   0.626   3.773  13.018  0.2701 -1.9017 -1.0984
10637TIP3    H253403   0.733   3.877  12.994 -1.4571  0.3621  0.8454
10638TIP3   OH253404   1.719   3.550  14.444 -0.2753  0.3028 -0.4566
10638TIP3    H153405   1.633   3.560  14.405  0.0321 -0.7285 -1.4293
10638TIP3    H253406   1.708   3.482  14.510 -0.6591  1.6291  0.8831
10639TIP3   OH253407   2.418   6.427   4.825 -0.2067  0.1103 -0.0446
10639TIP3    H153408   2.349   6.363   4.805 -0.8420  0.3112  1.4090
10639TIP3    H253409   2.370   6.503   4.859  0.6453  0.7616 -0.3056
10640TIP3   OH253410   6.514   4.287  13.861  0.1591 -0.6319  0.5198
10640TIP3    H153411   6.492   4.230  13.787  1.5542 -1.3425  0.6412
10640TIP3    H253412   6.430   4.324  13.888 -0.5013 -1.1395 -0.7820
10641TIP3   OH253413   3.373   6.034   4.587 -0.6201 -0.2261  0.0813
10641TIP3    H153414   3.456   5.986   4.591  0.1417  1.0395 -0.4198
10641TIP3    H253415   3.380   6.100   4.656 -0.7587  0.5784 -0.6649
10642TIP3   OH253416   4.831   4.761   2.668  0.0598 -0.2443 -0.3093
10642TIP3    H153417   4.889   4.703   2.718  0.5559  0.1423 -0.4241
10642TIP3    H253418   4.848   4.738   2.577 -1.0000 -1.0964 -0.2993
10643TIP3   OH253419   1.866   2.597  12.882  0.0911  0.7063 -0.5876
10643TIP3    H153420   1.829   2.684  12.890  2.6833  1.7501  0.7574
10643TIP3    H253421   1.925   2.589  12.957 -0.4328 -2.3715 -0.4376
10644TIP3   OH253422   2.352   1.223   2.849 -0.3556  0.2615  0.5331
10644TIP3    H153423   2.324   1.174   2.771  1.6752 -0.1381  0.0273
10644TIP3    H253424   2.281   1.210   2.912 -1.6934 -0.0162 -0.9927
10645TIP3   OH253425   0.514   6.300   6.557 -0.3277  0.1170 -0.1254
10645TIP3    H153426   0.531   6.377   6.611 -0.0365  1.0859 -1.5797
10645TIP3    H253427   0.596   6.286   6.509  0.1162 -1.9651  1.1772
10646TIP3   OH253428   0.723   4.790   5.023 -0.0674  0.5965  0.9078
10646TIP3    H153429   0.787   4.737   4.975  0.3851  1.1788  0.8548
10646TIP3    H253430   0.670   4.727   5.071 -0.0553  0.0519  0.2052
10647TIP3   OH253431   2.457   0.046  13.220 -0.1192 -0.7352  0.1963
10647TIP3    H153432   2.533   0.005  13.261 -0.0062 -0.3508  0.3729
10647TIP3    H253433   2.494   0.104  13.154 -0.3333 -2.3586 -1.4000
10648TIP3   OH253434   1.231   1.085  14.064 -0.2771 -0.2044 -1.1126
10648TIP3    H153435   1.139   1.109  14.072 -0.3574 -1.2212  1.4439
10648TIP3    H253436   1.230   0.991  14.044  0.1939  0.0469 -2.3515
10649TIP3   OH253437   1.194   4.072  17.141  0.2034 -0.1931 -0.2635
10649TIP3    H153438   1.108   4.094  17.176  0.9788  2.0050  0.3803
10649TIP3    H253439   1.249   4.059  17.218  0.3848 -1.8849 -0.6700
10650TIP3   OH253440   2.484   3.306   0.201  0.1836 -0.4017  0.1086
10650TIP3    H153441   2.467   3.249   0.276  0.0019 -2.2704 -1.3218
10650TIP3    H253442   2.441   3.389   0.224 -0.3796 -1.1298  1.7841
10651TIP3   OH253443   3.623   5.726  10.518 -0.1141  0.3345 -0.1782
10651TIP3    H153444   3.548   5.773  10.554  0.9132 -0.2557  2.8731
10651TIP3    H253445   3.591   5.637  10.502 -0.2728  0.2681  0.4790
10652TIP3   OH253446   6.168   4.090  13.920  0.3213 -0.1989 -0.1565
10652TIP3    H153447   6.079   4.122  13.901  1.0579  0.6627 -2.3220
10652TIP3    H253448   6.157   3.997  13.938 -0.9151 -0.3131 -1.4247
10653TIP3   OH253449   6.754   6.341   5.569 -0.1112  0.0400 -0.1561
10653TIP3    H153450   6.736   6.316   5.660  0.6077  1.6997  0.4589
10653TIP3    H253451   6.816   6.274   5.539  0.3775  0.0015  0.8810
10654TIP3   OH253452   5.748   1.124   5.634 -0.0400  0.0538  0.2802
10654TIP3    H153453   5.672   1.097   5.583 -1.1389  0.4762  1.6468
10654TIP3    H253454   5.768   1.049   5.689  2.2592 -1.0658 -1.9938
10655TIP3   OH253455   0.821   6.770   1.828  0.0570  0.3047 -0.5405
10655TIP3    H153456   0.726   6.777   1.817 -0.0238 -0.2166 -0.1843
10655TIP3    H253457   0.854   6.858   1.810 -0.7613  1.2214  2.3365
10656TIP3   OH253458   3.858   6.175   1.616 -0.3016  0.4413 -0.6429
10656TIP3    H153459   3.809   6.149   1.538 -0.3091 -0.5833 -0.3070
10656TIP3    H253460   3.896   6.259   1.593 -1.9105  1.0821 -1.0478
10657TIP3   OH253461   1.588   0.477  16.788 -0.2660 -0.2354 -0.0010
10657TIP3    H153462   1.556   0.559  16.750 -0.4145  0.1118  0.8533
10657TIP3    H253463   1.637   0.505  16.866  2.4120 -0.7348 -1.4844
10658TIP3   OH253464   6.598   6.531   2.365 -0.0261  0.0373  0.3575
10658TIP3    H153465   6.528   6.594   2.348  0.8255  0.3903 -2.2090
10658TIP3    H253466   6.563   6.447   2.335  0.5362  0.1728 -0.7126
10659TIP3   OH253467   0.485   1.356  17.128  0.3899  0.3818 -0.1345
10659TIP3    H153468   0.563   1.388  17.083  1.7192 -1.1110  1.0552
10659TIP3    H253469   0.489   1.261  17.120 -0.4476  0.1974  1.3119
10660TIP3   OH253470   3.808   3.123  14.611  0.1979 -0.2757  0.0539
10660TIP3    H153471   3.816   3.156  14.521  4.0052 -2.2577 -0.4714
10660TIP3    H253472   3.860   3.184  14.663 -1.0950  0.2468  0.7446
10661TIP3   OH253473   6.436   1.081  13.874 -0.0784 -1.0311 -0.2132
10661TIP3    H153474   6.358   1.077  13.929  0.8185 -1.8519  1.0153
10661TIP3    H253475   6.459   0.989  13.859  1.5835 -0.7927  0.7751
10662TIP3   OH253476   4.851   5.594   1.022 -0.3570  0.1783 -0.8603
10662TIP3    H153477   4.878   5.631   0.939  1.3187  2.0400  0.4758
10662TIP3    H253478   4.932   5.578   1.070 -1.3642  1.1139  1.2431
10663TIP3   OH253479   4.449   1.197  10.893  0.6188  0.4817 -0.0321
10663TIP3    H153480   4.439   1.248  10.973  1.2743  0.6795 -0.0733
10663TIP3    H253481   4.498   1.254  10.834 -3.7036  2.1668 -2.2639
10664TIP3   OH253482   4.844   1.328   2.502  0.4870 -0.6014 -0.0201
10664TIP3    H153483   4.879   1.317   2.590  1.4878 -0.4996 -0.3957
10664TIP3    H253484   4.796   1.247   2.485 -2.0471  0.4913  1.6437
10665TIP3   OH253485   0.535   6.664  12.446 -0.1664  0.7082 -0.2971
10665TIP3    H153486   0.621   6.703  12.431 -0.3938  1.1345 -0.4998
10665TIP3    H253487   0.554   6.571  12.465  0.5747  1.3845  2.5488
10666TIP3   OH253488   3.948   6.060  12.098  0.1203  0.0688  0.0421
10666TIP3    H153489   3.962   6.109  12.018 -1.4049 -0.1452 -0.3728
10666TIP3    H253490   4.023   6.081  12.153  0.2536  1.6458 -0.7317
10667TIP3   OH253491   6.039   6.257   0.710 -0.0189 -0.0487 -0.2352
10667TIP3    H153492   6.067   6.244   0.800 -0.3251 -1.5191 -0.3422
10667TIP3    H253493   6.118   6.287   0.664  0.1150  0.7886  0.5279
10668TIP3   OH253494   6.664   2.137   0.755  0.6143  0.1368  0.1540
10668TIP3    H153495   6.649   2.066   0.818  2.7904  0.3012  0.9096
10668TIP3    H253496   6.686   2.092   0.674  1.3383 -0.0738  0.4604
10669TIP3   OH253497   1.574   6.361  11.742  0.0749  0.0131 -0.6969
10669TIP3    H153498   1.599   6.282  11.791  0.2550 -0.5575 -1.6849
10669TIP3    H253499   1.496   6.393  11.787 -1.5743 -2.2417 -1.8194
10670TIP3   OH253500   2.716   3.049   3.801  0.5883 -0.4611  0.1611
10670TIP3    H153501   2.697   2.962   3.765  0.2565 -0.1043 -0.5405
10670TIP3    H253502   2.810   3.060   3.789  0.8978 -1.3454  1.6547
10671TIP3   OH253503   4.773   3.273  15.185 -0.1316  0.6080 -0.1402
10671TIP3    H153504   4.682   3.274  15.216  0.4444  0.2357  1.5992
10671TIP3    H253505   4.822   3.233  15.257  0.9561 -2.2407 -2.3638
10672TIP3   OH253506   3.561   4.279  13.758 -0.1272 -0.5401  0.4112
10672TIP3    H153507   3.486   4.219  13.754 -0.5975 -0.0837  1.9811
10672TIP3    H253508   3.525   4.360  13.795  0.9172  0.0353  0.1730
10673TIP3   OH253509   4.153   0.456  12.476  0.5550  0.3918 -0.0143
10673TIP3    H153510   4.099   0.412  12.410 -0.7307 -2.6261  2.8825
10673TIP3    H253511   4.225   0.395  12.492  0.8226  1.0609  1.3896
10674TIP3   OH253512   5.119   2.707   3.788 -0.0509 -0.4607 -0.4642
10674TIP3    H153513   5.210   2.738   3.794  0.2618 -1.4914  0.3324
10674TIP3    H253514   5.089   2.738   3.703  1.7208 -1.8475 -1.6422
10675TIP3   OH253515   3.318   6.503   0.125  0.3473  0.7504  0.0378
10675TIP3    H153516   3.386   6.564   0.154  1.0948 -0.3176  0.5614
10675TIP3    H253517   3.323   6.507   0.029  0.8519  1.0133  0.0703
10676TIP3   OH253518   6.522   0.346  13.907 -0.6590  0.1793 -0.6058
10676TIP3    H153519   6.430   0.372  13.895 -0.2360  1.7318 -0.6279
10676TIP3    H253520   6.564   0.372  13.825 -0.0506  0.1886 -0.2879
10677TIP3   OH253521   3.103   0.107  16.058 -0.3826 -0.2039 -0.3237
10677TIP3    H153522   3.191   0.120  16.022 -0.3697  3.4562  0.9052
10677TIP3    H253523   3.049   0.086  15.981  1.0113  0.3333 -1.4821
10678TIP3   OH253524   4.277   0.040  17.068 -0.1930 -0.9872 -0.2231
10678TIP3    H153525   4.182   0.041  17.061 -0.3104 -1.9470  0.9193
10678TIP3    H253526   4.300   0.123  17.110 -0.4547 -0.4032 -1.2392
10679TIP3   OH253527   0.111   1.479  14.582  0.0582 -0.1595  0.5624
10679TIP3    H153528   0.048   1.476  14.510  0.5656  2.4432 -0.0432
10679TIP3    H253529   0.078   1.414  14.645 -1.5623 -0.9563 -1.0581
10680TIP3   OH253530   6.103   2.686   4.055  0.1897 -0.9869  0.4379
10680TIP3    H153531   6.100   2.612   4.115  1.4217 -1.0400  0.4502
10680TIP3    H253532   6.063   2.758   4.103  3.6585 -0.2846  2.4309
10681TIP3   OH253533   5.131   5.200  16.089 -0.8710 -0.5015  0.2322
10681TIP3    H153534   5.190   5.127  16.108  0.9350  1.1719  1.2589
10681TIP3    H253535   5.085   5.174  16.010  2.3628 -1.2216 -1.4853
10682TIP3   OH253536   0.085   0.227   2.988 -0.0083  0.3120 -0.3731
10682TIP3    H153537   0.052   0.313   3.011 -0.2165  0.3818 -0.9153
10682TIP3    H253538   0.152   0.208   3.053  1.5825  1.8196 -1.5476
10683TIP3   OH253539   6.599   5.121   3.819 -0.2749  0.0096 -0.3605
10683TIP3    H153540   6.514   5.093   3.785 -0.6779  1.1315 -0.2713
10683TIP3    H253541   6.600   5.216   3.807  0.5811  0.1151  0.5150
10684TIP3   OH253542   3.911   3.312  12.310 -0.2675  0.4632 -0.0809
10684TIP3    H153543   3.927   3.382  12.373  1.1722  1.5983 -1.6721
10684TIP3    H253544   3.939   3.232  12.355 -1.4738  0.9567  1.5644
10685TIP3   OH253545   0.984   2.612   2.185 -0.1311 -0.0646  0.3383
10685TIP3    H153546   1.042   2.682   2.212  1.1831 -1.4684  1.2460
10685TIP3    H253547   0.953   2.573   2.267 -2.5699  0.8014 -0.1116
10686TIP3   OH253548   3.309   6.066   3.584  0.2386 -0.2304  0.3246
10686TIP3    H153549   3.274   6.154   3.573  0.9886 -0.0879 -1.0954
10686TIP3    H253550   3.390   6.078   3.634  0.3651 -0.1098  0.0897
10687TIP3   OH253551   6.806   1.687  16.280 -0.0344  0.4688  0.1159
10687TIP3    H153552   6.846   1.761  16.325 -2.9169  3.3108 -1.6929
10687TIP3    H253553   6.718   1.682  16.317 -0.6696 -0.4895 -1.4782
10688TIP3   OH253554   4.330   4.746   5.920 -0.1543 -0.5492 -0.0903
10688TIP3    H153555   4.264   4.814   5.908 -1.6867 -2.1447 -0.8351
10688TIP3    H253556   4.408   4.794   5.949 -1.1017  1.5531 -0.9196
10689TIP3   OH253557   0.057   4.038   0.027  0.1887  0.0998  0.4075
10689TIP3    H153558  -0.031   4.051   0.064  0.1740 -3.2613  1.7644
10689TIP3    H253559   0.115   4.040   0.103  1.2881  1.8830 -0.4433
10690TIP3   OH253560   2.378   6.157   5.481  0.2183 -0.2243  0.1601
10690TIP3    H153561   2.333   6.073   5.491  0.2828 -0.4607 -1.3353
10690TIP3    H253562   2.469   6.133   5.460  0.0192  0.1811 -1.2560
10691TIP3   OH253563   4.348   1.135  11.205  0.1604 -0.1811  0.0855
10691TIP3    H153564   4.317   1.129  11.295  0.2190  2.3762  0.3092
10691TIP3    H253565   4.430   1.184  11.211  0.9143 -1.2238 -1.2190
10692TIP3   OH253566   6.199   4.630  15.245 -0.4747  0.1556 -0.1110
10692TIP3    H153567   6.216   4.694  15.315 -0.0278  0.9518 -0.9308
10692TIP3    H253568   6.283   4.622  15.200 -1.2398  1.1411 -1.7677
10693TIP3   OH253569   1.435   2.006  14.388 -0.6675 -0.3702  0.4926
10693TIP3    H153570   1.357   2.038  14.434 -0.8680 -0.7502  0.4203
10693TIP3    H253571   1.427   1.911  14.392 -0.3796 -0.4056  0.1849
10694TIP3   OH253572   2.556   1.837  12.363 -1.3853 -0.2010  0.0612
10694TIP3    H153573   2.505   1.818  12.284 -0.1384  1.1326 -1.1010
10694TIP3    H253574   2.582   1.928  12.353  0.3355 -0.5584  1.1450
10695TIP3   OH253575   0.121   4.395   4.094  0.3893 -0.3490 -0.6515
10695TIP3    H153576   0.178   4.423   4.165 -1.6623  1.1709  0.4065
10695TIP3    H253577   0.056   4.339   4.136 -0.2362 -0.2598 -1.4994
10696TIP3   OH253578   1.252   3.549   3.655  0.3643 -0.2902 -0.0953
10696TIP3    H153579   1.288   3.586   3.574  1.1136 -1.0083 -0.0891
10696TIP3    H253580   1.275   3.613   3.722 -0.0501  0.1914 -0.4075
10697TIP3   OH253581   3.980   3.854   3.616 -0.1327 -0.0718 -0.1243
10697TIP3    H153582   3.941   3.928   3.570 -1.1458 -0.9374 -0.6664
10697TIP3    H253583   4.072   3.855   3.589  0.0250  1.3713  0.3885
10698TIP3   OH253584   4.667   4.006   6.122 -0.5720  0.0652 -0.0139
10698TIP3    H153585   4.705   4.085   6.085  1.6550 -0.7670  0.4603
10698TIP3    H253586   4.684   4.013   6.216 -1.5464 -0.3510  0.2001
10699TIP3   OH253587   1.658   6.604   4.381  0.5460  0.1637 -0.1276
10699TIP3    H153588   1.616   6.531   4.426 -1.4164  0.6118 -1.1275
10699TIP3    H253589   1.703   6.564   4.306 -1.1799  0.0226 -1.1244
10700TIP3   OH253590   5.812   6.286   4.491 -0.1964  1.0590 -0.4068
10700TIP3    H153591   5.723   6.275   4.524  0.1560 -1.9616 -0.3083
10700TIP3    H253592   5.802   6.296   4.396 -0.6895  1.7519 -0.2846
10701TIP3   OH253593   1.087   6.011   1.713 -0.3300 -0.7132  0.2044
10701TIP3    H153594   1.060   5.924   1.685 -0.1411 -0.2712 -1.3624
10701TIP3    H253595   1.008   6.064   1.706  0.4946  0.1922 -2.8030
10702TIP3   OH253596   1.345   6.135  12.313  0.2335 -0.3036 -0.3944
10702TIP3    H153597   1.413   6.165  12.252  0.6813 -1.8155 -0.6657
10702TIP3    H253598   1.287   6.082  12.260 -1.6889  1.6736 -0.3459
10703TIP3   OH253599   6.114   3.105   3.230 -0.2182 -0.1903  0.0114
10703TIP3    H153600   6.071   3.168   3.173 -0.5515  0.0811  0.5579
10703TIP3    H253601   6.201   3.141   3.246 -0.6143  0.4420  0.8092
10704TIP3   OH253602   0.308   5.676  12.724  0.7632 -0.1770  0.1398
10704TIP3    H153603   0.330   5.712  12.810 -0.2138  0.0108  0.3220
10704TIP3    H253604   0.290   5.583  12.740  2.4168 -0.5654 -0.1803
10705TIP3   OH253605   2.996   4.705   0.790 -0.1551 -0.6696 -0.6518
10705TIP3    H153606   3.034   4.742   0.870  0.3766 -1.9477 -0.3079
10705TIP3    H253607   3.013   4.611   0.796 -2.6674 -1.1695 -0.8754
10706TIP3   OH253608   6.293   4.602  11.958 -0.1577  0.3446 -0.3273
10706TIP3    H153609   6.211   4.645  11.983 -0.0509  0.5315 -0.3003
10706TIP3    H253610   6.266   4.538  11.892 -0.3032  0.5212 -0.4426
10707TIP3   OH253611   0.529   2.169   4.230  0.0732 -0.4490  0.0962
10707TIP3    H153612   0.556   2.096   4.286 -1.0383 -1.3747 -0.5459
10707TIP3    H253613   0.478   2.128   4.160 -0.3642  0.9170 -0.4078
10708TIP3   OH253614   2.706   2.825   6.126 -0.1745 -0.7784  0.5873
10708TIP3    H153615   2.766   2.757   6.157  0.2991  0.9071  3.4782
10708TIP3    H253616   2.760   2.881   6.070  0.0353 -1.3050  0.2546
10709TIP3   OH253617   6.342   4.177   1.996 -0.3923 -0.1544 -0.4389
10709TIP3    H153618   6.326   4.264   1.959 -1.8525  0.2862  1.1475
10709TIP3    H253619   6.354   4.120   1.919  0.5974  1.4365 -1.4843
10710TIP3   OH253620   1.709   2.602   3.603 -0.0607  0.0195 -0.0945
10710TIP3    H153621   1.736   2.539   3.536 -3.1033 -0.1422 -1.2221
10710TIP3    H253622   1.654   2.552   3.663 -0.0699  0.9294  0.6684
10711TIP3   OH253623   0.434   3.517   2.693  0.1498  0.0374  0.4975
10711TIP3    H153624   0.469   3.601   2.724 -0.4719  0.1117  0.9920
10711TIP3    H253625   0.442   3.458   2.768  0.0554 -0.1963  0.3252
10712TIP3   OH253626   4.313   4.253   2.694  0.1883  0.4022 -0.2102
10712TIP3    H153627   4.232   4.251   2.745 -0.0093 -0.6806 -0.5510
10712TIP3    H253628   4.332   4.346   2.683 -2.4673  0.7618 -2.3915
10713TIP3   OH253629   4.733   4.868  10.963 -0.0879 -0.3850  0.3467
10713TIP3    H153630   4.789   4.794  10.941 -1.6059 -1.1451 -1.1069
10713TIP3    H253631   4.655   4.829  11.003 -0.1514  0.5600  1.1857
10714TIP3   OH253632   2.023   4.560  15.519  0.2957  0.0981  0.0699
10714TIP3    H153633   2.017   4.638  15.573 -1.3392 -0.4663  0.7405
10714TIP3    H253634   1.937   4.518  15.527  0.5843 -0.8881 -1.6049
10715TIP3   OH253635   4.437   3.856   6.096  0.3841  0.1172 -0.1840
10715TIP3    H153636   4.439   3.772   6.142 -0.4705  0.0764 -0.2186
10715TIP3    H253637   4.528   3.884   6.093  0.6954 -0.8859 -0.3075
10716TIP3   OH253638   0.300   4.543  13.844  0.5995 -0.3022  0.0796
10716TIP3    H153639   0.249   4.462  13.840  0.7728 -0.3862 -0.6582
10716TIP3    H253640   0.248   4.602  13.897 -1.1240  0.1933 -2.0786
10717TIP3   OH253641   2.347   4.210  16.955  0.2807  0.2310 -0.0617
10717TIP3    H153642   2.332   4.279  17.019 -1.0095  0.0796 -0.1715
10717TIP3    H253643   2.311   4.131  16.996 -2.9978  0.6357 -1.9855
10718TIP3   OH253644   2.076   0.658   1.007  0.3653  0.2085 -0.2597
10718TIP3    H153645   2.133   0.714   1.059 -0.7953  1.7479 -0.6201
10718TIP3    H253646   2.017   0.618   1.070  0.2229  0.5538 -0.1761
10719TIP3   OH253647   3.636   5.636   2.156 -0.1756 -0.2721  0.2064
10719TIP3    H153648   3.626   5.551   2.114  0.9382 -0.7643  0.9177
10719TIP3    H253649   3.556   5.648   2.207 -0.9131 -0.2963 -0.9175
10720TIP3   OH253650   2.813   4.291   1.306 -0.5618 -0.1880 -0.3582
10720TIP3    H153651   2.764   4.310   1.386 -0.8408  0.3002 -0.6459
10720TIP3    H253652   2.903   4.320   1.326 -0.5521 -0.3974 -0.0949
10721TIP3   OH253653   0.842   2.259  11.744  0.5433 -0.5397  0.0012
10721TIP3    H153654   0.848   2.313  11.665 -1.3647  0.8197  0.7376
10721TIP3    H253655   0.933   2.237  11.765  1.0638 -0.9275 -2.5562
10722TIP3   OH253656   4.327   2.843  16.394  0.0075  0.2167  0.4464
10722TIP3    H153657   4.235   2.860  16.373  0.1096  0.2729  0.0212
10722TIP3    H253658   4.330   2.749  16.414  0.0716 -0.0594 -0.7834
10723TIP3   OH253659   1.923   6.729  17.237  0.4818  0.5740 -0.2277
10723TIP3    H153660   2.011   6.733  17.199  0.0938 -0.8944 -1.2991
10723TIP3    H253661   1.925   6.794  17.307  3.1443 -1.0254  1.2700
10724TIP3   OH253662   4.467   3.335  10.638  0.0036  0.0296  0.5039
10724TIP3    H153663   4.560   3.358  10.633  0.2483 -0.8547  0.9817
10724TIP3    H253664   4.447   3.336  10.731 -0.6338  0.8402  0.3652
10725TIP3   OH253665   1.583   5.379  17.274 -0.3097 -0.2874  1.1947
10725TIP3    H153666   1.555   5.415  17.358 -0.8023  1.7333  0.1974
10725TIP3    H253667   1.679   5.382  17.277 -0.3453  0.9746  1.1900
10726TIP3   OH253668   4.032   3.424   4.680  0.7451  0.3756  0.1207
10726TIP3    H153669   4.063   3.408   4.591  0.4869  1.0659 -0.0963
10726TIP3    H253670   3.942   3.393   4.680  1.1039 -0.7035  0.4724
10727TIP3   OH253671   6.239   6.743   4.188  0.1428 -0.5210  0.5308
10727TIP3    H153672   6.230   6.678   4.119 -0.2828 -0.9863  1.0200
10727TIP3    H253673   6.236   6.827   4.142 -1.8808 -0.7666  0.1390
10728TIP3   OH253674   6.508   5.283  14.000 -0.0763 -0.4006 -0.3656
10728TIP3    H153675   6.437   5.232  14.039 -0.8260  1.5133  0.8940
10728TIP3    H253676   6.539   5.231  13.926 -1.0066 -2.4990  0.6927
10729TIP3   OH253677   2.742   4.363  15.831 -0.0065  0.1620  0.1376
10729TIP3    H153678   2.814   4.358  15.893  0.1728 -0.4618 -0.1171
10729TIP3    H253679   2.709   4.453  15.840 -0.1178  0.0189  1.2737
10730TIP3   OH253680   4.973   4.549   4.027  0.3996 -0.1788  0.7788
10730TIP3    H153681   4.959   4.643   4.013  0.5090 -0.1087  1.1559
10730TIP3    H253682   4.975   4.538   4.122  3.3647 -0.1071  0.7746
10731TIP3   OH253683   4.730   2.328   6.225  0.0465  0.4399 -0.0639
10731TIP3    H153684   4.717   2.357   6.315 -1.4009  0.5640 -0.3038
10731TIP3    H253685   4.663   2.262   6.211  0.4511  0.2137 -0.9587
10732TIP3   OH253686   4.467   3.098  16.948 -0.2828  0.5073  0.1335
10732TIP3    H153687   4.476   3.079  17.041 -1.4085 -1.1641 -0.0739
10732TIP3    H253688   4.402   3.167  16.943  0.7326  1.5128  0.6595
10733TIP3   OH253689   2.720   5.487  11.795 -0.0507 -0.3039 -0.2180
10733TIP3    H153690   2.684   5.505  11.881 -0.1837 -0.3630 -0.2605
10733TIP3    H253691   2.757   5.399  11.802  0.5017 -0.0612 -0.0394
10734TIP3   OH253692   6.156   3.820  11.466 -0.0883 -0.0511  0.1050
10734TIP3    H153693   6.140   3.731  11.437 -2.4490 -0.3547  2.1382
10734TIP3    H253694   6.085   3.871  11.427  1.4074  1.0338 -1.2792
10735TIP3   OH253695   5.431   3.962   4.948 -0.0468 -0.4325  0.2637
10735TIP3    H153696   5.397   3.885   4.992 -1.8090 -0.9992 -1.9952
10735TIP3    H253697   5.355   4.019   4.935  1.3322  2.0633  2.5380
10736TIP3   OH253698   3.360   0.050   4.335  0.0221  0.3408 -0.5261
10736TIP3    H153699   3.446   0.020   4.307 -0.8267 -3.5910  0.7598
10736TIP3    H253700   3.359   0.035   4.429 -1.3870  2.2527 -0.2022
10737TIP3   OH253701   4.742   3.163   2.558  0.3668 -0.0047  0.2238
10737TIP3    H153702   4.648   3.180   2.547  0.7821  0.9520 -1.9956
10737TIP3    H253703   4.759   3.085   2.505  0.6317 -0.8288  1.5032
10738TIP3   OH253704   4.086   3.623   3.224  0.0946 -0.3799 -0.3018
10738TIP3    H153705   4.061   3.533   3.246  0.3535 -0.3918 -0.0574
10738TIP3    H253706   4.004   3.666   3.201 -0.2763 -0.1541  1.4443
10739TIP3   OH253707   0.885   1.292   5.509 -0.0302 -0.1853  0.4246
10739TIP3    H153708   0.834   1.309   5.430 -0.1536  0.5988  0.6618
10739TIP3    H253709   0.946   1.223   5.485 -1.6522 -1.6268  0.3203
10740TIP3   OH253710   4.159   3.218  14.597 -0.2401  0.3735 -0.8672
10740TIP3    H153711   4.092   3.249  14.657  0.8843  2.2233 -0.5083
10740TIP3    H253712   4.171   3.126  14.618 -0.3538  0.8293  1.2743
10741TIP3   OH253713   5.634   5.104  11.803 -0.1526 -0.7019 -0.6020
10741TIP3    H153714   5.592   5.145  11.728 -1.5235 -0.7002  0.1682
10741TIP3    H253715   5.670   5.177  11.854  0.9145 -0.7116 -1.3146
10742TIP3   OH253716   6.635   1.079  14.805 -0.2278 -0.3239 -0.1406
10742TIP3    H153717   6.614   1.054  14.895  1.0410 -0.2394  0.1865
10742TIP3    H253718   6.603   1.006  14.752 -1.2953 -0.2146  0.3361
10743TIP3   OH253719   0.684   6.409  16.467  0.3912  0.0971 -0.8383
10743TIP3    H153720   0.700   6.503  16.479 -2.0637  0.2624  1.4851
10743TIP3    H253721   0.677   6.398  16.372  1.6571  2.0694 -1.1989
10744TIP3   OH253722   3.141   2.828  12.534  0.5161  0.4925  0.2926
10744TIP3    H153723   3.188   2.808  12.453 -0.7917 -2.3358  0.1703
10744TIP3    H253724   3.203   2.808  12.604  1.1345  1.5038  0.0437
10745TIP3   OH253725   2.479   4.937   1.968  0.7966  0.0493 -0.2155
10745TIP3    H153726   2.445   4.984   2.044  0.9704 -0.8425  0.4365
10745TIP3    H253727   2.416   4.865   1.955  2.0435 -1.2259  0.5945
10746TIP3   OH253728   3.925   0.707  15.271 -0.2944  0.1269  0.4962
10746TIP3    H153729   3.894   0.619  15.290 -1.6450  0.7244  1.1135
10746TIP3    H253730   3.975   0.732  15.349 -0.0054 -0.0465  0.3676
10747TIP3   OH253731   3.089   0.029   5.714 -0.2995 -0.5352  0.4638
10747TIP3    H153732   3.109  -0.039   5.779 -2.7806 -0.1225  1.7170
10747TIP3    H253733   3.018  -0.008   5.661 -0.0731  0.1599 -0.3350
10748TIP3   OH253734   3.125   0.291   2.458 -0.7212 -0.4381  0.9129
10748TIP3    H153735   3.090   0.328   2.539 -0.3324  0.0239  0.8686
10748TIP3    H253736   3.048   0.283   2.401 -0.3192  3.4577 -0.2877
10749TIP3   OH253737   5.016   0.671   1.415 -0.5326 -0.5017  0.2129
10749TIP3    H153738   5.043   0.761   1.398  1.1805 -1.0053  0.2023
10749TIP3    H253739   4.920   0.675   1.414 -0.4939  1.0884 -1.0296
10750TIP3   OH253740   1.181   3.291  14.073  0.0796  0.3178 -0.1521
10750TIP3    H153741   1.145   3.266  14.159  0.4843  0.7194  0.1354
10750TIP3    H253742   1.267   3.327  14.093  2.0742 -3.5854 -1.0785
10751TIP3   OH253743   0.716   3.881   4.372 -0.1387  0.4747 -0.3258
10751TIP3    H153744   0.810   3.886   4.353 -0.2357 -1.5679 -1.6010
10751TIP3    H253745   0.673   3.914   4.293 -0.4936 -3.3108 -1.8385
10752TIP3   OH253746   5.832   6.725   2.190 -0.1535  0.3329 -0.3862
10752TIP3    H153747   5.787   6.718   2.106 -2.0607 -1.4311  0.7267
10752TIP3    H253748   5.852   6.634   2.214  1.5522  0.8962  0.4629
10753TIP3   OH253749   2.188   6.793  13.832 -0.7458 -0.0148  0.4488
10753TIP3    H153750   2.189   6.704  13.797  1.9250  1.1134 -2.6330
10753TIP3    H253751   2.158   6.847  13.759  2.7075  2.1718  0.5557
10754TIP3   OH253752   2.595   2.558  12.401 -0.0435 -0.2775  0.1951
10754TIP3    H153753   2.588   2.654  12.406  0.4627 -0.2838  1.1214
10754TIP3    H253754   2.688   2.540  12.414 -0.2509 -0.9338  0.8442
10755TIP3   OH253755   2.515   3.459  14.254 -0.0489 -0.1334  0.0629
10755TIP3    H153756   2.461   3.474  14.177 -0.9092 -0.1632  0.6511
10755TIP3    H253757   2.605   3.468  14.223 -0.4420  3.0502 -0.3042
10756TIP3   OH253758   6.795   1.047   2.527  0.6044  0.1886  0.8633
10756TIP3    H153759   6.804   1.135   2.490  0.6746 -0.0661  0.2683
10756TIP3    H253760   6.705   1.022   2.509  0.7966 -0.1573  0.3632
10757TIP3   OH253761   1.040   3.109   1.657 -0.1326  0.1500  0.4810
10757TIP3    H153762   0.993   3.026   1.665  0.6282 -0.1992  1.5440
10757TIP3    H253763   0.972   3.174   1.643 -0.6283 -0.8721 -2.2831
10758TIP3   OH253764   1.512   4.058   5.746 -0.3919  0.1395  0.2211
10758TIP3    H153765   1.418   4.075   5.755 -0.1738  1.4145  0.1752
10758TIP3    H253766   1.531   4.074   5.654 -0.4652 -1.9095 -0.1732
10759TIP3   OH253767   4.461   3.355  13.883  0.0737  0.3484  0.3020
10759TIP3    H153768   4.500   3.419  13.943 -0.6586  0.9598  0.1470
10759TIP3    H253769   4.495   3.271  13.912  0.6601  0.7603  0.8345
10760TIP3   OH253770   0.436   1.783   1.877  0.7566  0.3917  0.5283
10760TIP3    H153771   0.449   1.780   1.971 -1.7128  1.0250  0.9309
10760TIP3    H253772   0.415   1.692   1.853  0.9548  0.3099  0.6649
10761TIP3   OH253773   0.591   1.520  16.305 -0.0640  0.6852 -0.0247
10761TIP3    H153774   0.591   1.437  16.353  1.4512 -1.2686 -3.1858
10761TIP3    H253775   0.684   1.537  16.288 -0.5582  0.6067 -3.2338
10762TIP3   OH253776   1.777   5.318  13.318  0.1906  0.3757  0.2853
10762TIP3    H153777   1.815   5.303  13.405  0.8001  0.4488  0.0330
10762TIP3    H253778   1.700   5.373  13.335  0.3625  0.4731  0.7693
10763TIP3   OH253779   4.812   3.405  17.111 -0.2691 -0.5372  0.4280
10763TIP3    H153780   4.867   3.329  17.094 -0.2290  0.1817 -3.1227
10763TIP3    H253781   4.873   3.478  17.123 -0.3695 -0.3819  0.0182
10764TIP3   OH253782   3.553   0.553   1.549  0.2340 -0.5886 -0.1778
10764TIP3    H153783   3.636   0.545   1.596 -1.2689  0.6158  2.8169
10764TIP3    H253784   3.487   0.534   1.616 -1.9534 -0.0111 -2.1466
10765TIP3   OH253785   5.413   2.725   1.849  0.0801 -0.1365 -0.3306
10765TIP3    H153786   5.496   2.679   1.836  0.7123  0.7228  0.6483
10765TIP3    H253787   5.371   2.679   1.921  0.3372  0.2893  0.0948
10766TIP3   OH253788   5.454   5.256   2.687 -0.3757  0.2734  0.6674
10766TIP3    H153789   5.507   5.181   2.662  1.3116  1.1963  1.3688
10766TIP3    H253790   5.372   5.219   2.720  1.3327 -1.4021  3.2097
10767TIP3   OH253791   4.399   1.880  11.082 -0.3510 -0.3775  0.1572
10767TIP3    H153792   4.409   1.940  11.009  0.0911 -0.1100  0.4326
10767TIP3    H253793   4.451   1.919  11.152 -0.3896 -0.8738  0.4649
10768TIP3   OH253794   6.287   0.025   4.434 -0.4117  0.6521  0.5661
10768TIP3    H153795   6.251   0.021   4.346 -0.9366 -0.8599  0.8384
10768TIP3    H253796   6.379   0.000   4.423 -0.6321 -0.1503  0.5297
10769TIP3   OH253797   2.908   2.095  15.405  0.5531  0.0329 -0.3993
10769TIP3    H153798   2.824   2.051  15.420  0.2364  0.7326 -0.0627
10769TIP3    H253799   2.950   2.096  15.490  0.9032 -0.3159 -0.5690
10770TIP3   OH253800   3.460   5.942   2.573 -0.6712  0.2399  0.2954
10770TIP3    H153801   3.468   5.851   2.600  0.3373  0.2866  0.1588
10770TIP3    H253802   3.366   5.954   2.557 -0.4787 -1.5085 -2.2957
10771TIP3   OH253803   0.249   3.014   1.830 -0.2170  0.3918  0.2250
10771TIP3    H153804   0.178   3.008   1.767  1.2326 -2.6563 -1.2226
10771TIP3    H253805   0.326   3.035   1.778  0.6306 -0.2094  1.2078
10772TIP3   OH253806   3.463   1.852  14.138  0.5080  0.4499 -0.4385
10772TIP3    H153807   3.502   1.901  14.211  2.5834  0.0196 -1.2111
10772TIP3    H253808   3.529   1.857  14.069 -1.2165  0.4054 -2.1188
10773TIP3   OH253809   6.656   5.916   2.502 -0.0114  0.3275  0.2203
10773TIP3    H153810   6.708   5.969   2.441  0.0342 -0.1871 -0.1926
10773TIP3    H253811   6.578   5.969   2.519 -1.2328 -0.5864 -2.2832
10774TIP3   OH253812   6.177   6.640  12.836 -0.4152  0.8101 -0.0744
10774TIP3    H153813   6.255   6.585  12.829 -0.7935  0.5997 -3.4163
10774TIP3    H253814   6.126   6.599  12.906  0.1932 -2.0397 -1.2120
10775TIP3   OH253815   0.994   0.781   5.085  0.0040  0.6909  0.3835
10775TIP3    H153816   0.927   0.763   5.020  1.2367 -1.9051 -0.2342
10775TIP3    H253817   1.032   0.865   5.059 -0.8793  0.6500 -1.0588
10776TIP3   OH253818   1.866   0.680  15.362 -0.1635 -0.2947 -0.1367
10776TIP3    H153819   1.838   0.619  15.294  0.4659 -0.7741  0.0312
10776TIP3    H253820   1.787   0.697  15.412 -0.5377 -0.2797 -0.7220
10777TIP3   OH253821   5.626   5.699   4.858  0.0711 -0.5331 -0.0434
10777TIP3    H153822   5.546   5.732   4.817 -0.3654 -0.8356  0.5676
10777TIP3    H253823   5.612   5.605   4.866 -0.2506 -0.3451  1.7048
10778TIP3   OH253824   0.927   3.464  10.868 -0.6226 -0.0672 -0.2393
10778TIP3    H153825   0.835   3.437  10.865  0.0286 -2.6244  1.3947
10778TIP3    H253826   0.972   3.400  10.813  0.5534 -0.5005  1.2139
10779TIP3   OH253827   3.916   0.161   4.182  0.2310 -0.6099 -0.1471
10779TIP3    H153828   3.891   0.070   4.201  1.3749 -0.6924  0.9545
10779TIP3    H253829   3.833   0.203   4.156 -0.2887 -1.9823 -0.7635
10780TIP3   OH253830   4.433   0.084  14.575 -0.1434  0.1194 -0.2564
10780TIP3    H153831   4.418   0.132  14.493 -0.7725  0.4149  0.0313
10780TIP3    H253832   4.521   0.112  14.603  0.4545 -0.6825 -1.3026
10781TIP3   OH253833   1.012   3.298  16.912  0.0755  0.0655 -0.1581
10781TIP3    H153834   1.090   3.310  16.858 -0.1713 -0.1270 -0.5698
10781TIP3    H253835   0.953   3.246  16.856 -0.8768  1.3582 -0.3791
10782TIP3   OH253836   3.241   0.491  14.663  0.5110 -0.1281 -0.2452
10782TIP3    H153837   3.207   0.453  14.583 -0.6873 -0.1975  0.2953
10782TIP3    H253838   3.332   0.514  14.642  0.6601 -1.5322 -1.1382
10783TIP3   OH253839   4.420   6.430   5.689 -0.1491 -0.3416  0.0590
10783TIP3    H153840   4.460   6.512   5.657  0.4156 -0.3155  0.8410
10783TIP3    H253841   4.326   6.444   5.676 -0.3061  1.5810  2.7730
10784TIP3   OH253842   0.747   3.451  13.961  0.4092  0.1196 -0.0073
10784TIP3    H153843   0.768   3.420  13.873  0.8118 -0.5451  0.3166
10784TIP3    H253844   0.685   3.523  13.947 -3.4775 -3.1630 -0.6544
10785TIP3   OH253845   0.006   5.574  14.966 -0.2442 -0.2555 -0.3406
10785TIP3    H153846   0.089   5.604  14.930 -0.4035 -0.0709 -0.5565
10785TIP3    H253847  -0.030   5.515  14.899  0.0280 -0.8650  0.0450
10786TIP3   OH253848   0.953   4.067   3.227 -0.3583  0.6346  0.4364
10786TIP3    H153849   0.973   3.974   3.211 -3.1049 -0.1923  1.4215
10786TIP3    H253850   0.876   4.084   3.173 -1.1803  1.7470  1.9428
10787TIP3   OH253851   1.368   0.557  15.050 -0.7753 -0.6929 -0.2513
10787TIP3    H153852   1.312   0.602  15.113  1.9105  0.0082  1.7349
10787TIP3    H253853   1.381   0.621  14.979 -2.1031 -0.7151 -0.5269
10788TIP3   OH253854   3.258   0.286  16.475 -0.0493  0.0241 -0.2681
10788TIP3    H153855   3.318   0.294  16.402 -0.1024  1.3635 -0.1731
10788TIP3    H253856   3.211   0.369  16.478 -1.1012 -0.5669  0.3687
10789TIP3   OH253857   5.134   6.479   4.340  0.5739  0.1741  0.6338
10789TIP3    H153858   5.212   6.525   4.308  0.5801  0.5470  1.1741
10789TIP3    H253859   5.123   6.405   4.280  1.1196  0.3411  0.3256
10790TIP3   OH253860   0.524   4.447   1.585 -0.4517 -0.6401  0.1120
10790TIP3    H153861   0.511   4.450   1.680 -2.2989  0.1828 -0.1457
10790TIP3    H253862   0.524   4.538   1.558 -0.5831 -0.9015 -0.7752
10791TIP3   OH253863   4.179   3.851  13.533  0.2710 -0.0351  0.1643
10791TIP3    H153864   4.129   3.925  13.567  1.2370  0.6063  0.2176
10791TIP3    H253865   4.182   3.789  13.606 -0.1169  0.0838  0.2827
10792TIP3   OH253866   2.673   2.975  16.753  0.3119  0.2489  0.1627
10792TIP3    H153867   2.602   3.002  16.811 -0.3781 -0.8232 -0.1774
10792TIP3    H253868   2.631   2.956  16.670  0.9499 -0.6239  0.0277
10793TIP3   OH253869   5.577   3.902   5.514 -0.2871  0.3645 -0.2248
10793TIP3    H153870   5.534   3.951   5.583 -0.4785  1.7172 -1.2673
10793TIP3    H253871   5.640   3.965   5.476 -1.4380  0.2456 -2.4250
10794TIP3   OH253872   6.086   4.606  14.928 -0.1079  0.1856 -0.2226
10794TIP3    H153873   6.092   4.699  14.906  0.0113  0.1502 -0.3479
10794TIP3    H253874   6.056   4.565  14.847 -0.2081  0.1227 -0.1516
10795TIP3   OH253875   1.685   1.205   0.094  0.0606  0.2786  0.2962
10795TIP3    H153876   1.746   1.137   0.121 -1.6165 -1.3314  0.1542
10795TIP3    H253877   1.602   1.180   0.135 -0.8329  1.6543 -0.6276
10796TIP3   OH253878   1.036   0.498   2.611  0.2698 -0.4904  0.2024
10796TIP3    H153879   1.011   0.490   2.703 -2.4322 -0.4549 -0.5001
10796TIP3    H253880   1.002   0.584   2.585  1.6253 -0.1993 -0.6583
10797TIP3   OH253881   4.032   5.111  14.793 -0.0226 -0.3671  0.1930
10797TIP3    H153882   4.050   5.128  14.701  1.2110 -0.9396  0.3143
10797TIP3    H253883   4.027   5.016  14.800 -0.5748 -0.3109  0.6384
10798TIP3   OH253884   3.123   0.424  13.232  0.1062  0.3458  0.4371
10798TIP3    H153885   3.045   0.375  13.259  1.2787 -1.1649  1.1832
10798TIP3    H253886   3.095   0.475  13.157 -1.3593 -0.9495  0.0790
10799TIP3   OH253887   0.194   4.659  16.086  0.2294  0.2458 -0.4458
10799TIP3    H153888   0.233   4.719  16.150  0.4749  0.0698 -0.4290
10799TIP3    H253889   0.180   4.578  16.134  0.7081  0.0107 -0.6915
10800TIP3   OH253890   4.841   1.117  15.983  0.2517 -0.2105  0.2037
10800TIP3    H153891   4.920   1.166  15.959 -0.6621  0.8512 -0.6856
10800TIP3    H253892   4.789   1.180  16.033 -0.2591 -0.7426  0.3364
10801TIP3   OH253893   5.188   2.151  14.281  0.0857  0.1636  0.2398
10801TIP3    H153894   5.191   2.247  14.283  0.0089  0.2142 -1.1973
10801TIP3    H253895   5.269   2.126  14.236 -0.3878 -0.3936 -0.3031
10802TIP3   OH253896   4.590   4.837   5.739  0.6474  0.5037  0.2553
10802TIP3    H153897   4.628   4.763   5.786  1.4883  0.7273 -0.0524
10802TIP3    H253898   4.665   4.892   5.717  0.1104  1.0809 -0.1577
10803TIP3   OH253899   0.745   4.525  11.825 -0.4213 -0.1481 -0.1806
10803TIP3    H153900   0.765   4.500  11.916 -0.3681  2.0822  0.4561
10803TIP3    H253901   0.825   4.504  11.777  1.6093  3.5383  1.3238
10804TIP3   OH253902   5.987   2.020   2.965  0.1670  0.2751  0.2231
10804TIP3    H153903   6.027   2.066   3.039 -0.7666  0.6232  0.5279
10804TIP3    H253904   6.053   2.023   2.896  0.7971  0.5208  0.8284
10805TIP3   OH253905   3.943   1.683   5.452 -0.0690 -0.4805  0.0727
10805TIP3    H153906   3.913   1.602   5.494 -0.0927 -0.0506  0.8885
10805TIP3    H253907   3.961   1.657   5.361  1.6017 -1.8017  0.7628
10806TIP3   OH253908   2.547   4.845   3.010 -0.0334 -1.2904  0.3310
10806TIP3    H153909   2.480   4.867   2.946  0.2050  0.8820  0.7677
10806TIP3    H253910   2.603   4.781   2.967 -0.6578 -0.8665 -1.1157
10807TIP3   OH253911   1.586   4.345   3.655 -0.1826  0.7378 -0.0652
10807TIP3    H153912   1.520   4.325   3.722  0.8582 -1.9295  0.2476
10807TIP3    H253913   1.535   4.360   3.576 -1.2471 -0.8297  0.2771
10808TIP3   OH253914   3.373   3.865  15.538  0.4308  0.3789 -0.9102
10808TIP3    H153915   3.319   3.929  15.490 -0.8810 -0.2474 -0.3018
10808TIP3    H253916   3.372   3.897  15.629 -0.5239 -0.6735 -0.5344
10809TIP3   OH253917   4.805   2.463   4.749 -0.2168 -0.4622  0.0499
10809TIP3    H153918   4.770   2.433   4.833  1.4923 -0.3928  0.8147
10809TIP3    H253919   4.813   2.384   4.696 -2.2191 -0.3702 -0.3995
10810TIP3   OH253920   2.576   6.053   0.839 -0.0802 -0.0581 -0.0203
10810TIP3    H153921   2.669   6.076   0.843 -0.5196  1.5893  0.8946
10810TIP3    H253922   2.567   6.005   0.756  0.9497  2.6239 -1.7352
10811TIP3   OH253923   2.263   5.367   5.809  0.7967  0.0775  0.2377
10811TIP3    H153924   2.195   5.316   5.852  0.0025 -0.3999 -1.5102
10811TIP3    H253925   2.344   5.344   5.854  0.0720 -0.7619  1.1304
10812TIP3   OH253926   1.337   5.539   0.659  0.2112  0.0665 -0.1222
10812TIP3    H153927   1.335   5.633   0.646  1.0677  0.2939  1.2876
10812TIP3    H253928   1.410   5.524   0.720 -0.4338 -1.4137  0.3180
10813TIP3   OH253929   4.832   1.965  17.062  0.2703  0.0772  0.7812
10813TIP3    H153930   4.851   1.953  16.969  0.7159  0.1238  0.8650
10813TIP3    H253931   4.902   2.021  17.093 -0.1300  0.4266  1.0482
10814TIP3   OH253932   0.258   1.640  12.623 -0.0420 -0.3731  0.2854
10814TIP3    H153933   0.352   1.659  12.633 -0.1267 -1.2536  3.0100
10814TIP3    H253934   0.215   1.702  12.681 -1.3398  1.3402 -2.3999
10815TIP3   OH253935   3.724   0.581  17.016 -0.4800  0.5198  0.4943
10815TIP3    H153936   3.649   0.591  16.958  1.9825  1.0163 -2.7047
10815TIP3    H253937   3.698   0.510  17.075 -3.3798  0.5671 -0.5997
10816TIP3   OH253938   3.388   1.182   4.917  0.4549 -0.2074 -0.0486
10816TIP3    H153939   3.372   1.109   4.977  1.3620 -1.4049 -1.2450
10816TIP3    H253940   3.373   1.260   4.971 -1.0639 -1.2550  1.1033
10817TIP3   OH253941   3.552   0.338   5.313  0.1106 -0.1402 -0.2210
10817TIP3    H153942   3.625   0.388   5.350  0.0371  0.3212 -0.7020
10817TIP3    H253943   3.499   0.403   5.266 -0.3884 -0.5421 -0.2233
10818TIP3   OH253944   1.638   2.659  11.789  0.4390  0.3322  0.1636
10818TIP3    H153945   1.555   2.641  11.833  0.3906 -2.3322 -0.9243
10818TIP3    H253946   1.613   2.703  11.708  0.1789  0.6541  0.4165
10819TIP3   OH253947   5.584   2.280  15.321  0.6187  0.2726 -0.2385
10819TIP3    H153948   5.660   2.322  15.282  0.9854  0.2038  0.4021
10819TIP3    H253949   5.620   2.216  15.383  0.0497  0.4963  0.3339
10820TIP3   OH253950   4.613   5.690  11.705 -0.2184 -0.0184 -0.1318
10820TIP3    H153951   4.595   5.725  11.792 -1.6140 -0.3911 -0.2656
10820TIP3    H253952   4.547   5.731  11.648 -1.2700 -2.1373 -0.4554
10821TIP3   OH253953   5.506   6.326   5.369  0.3131  0.3485 -1.1775
10821TIP3    H153954   5.454   6.251   5.398  0.4559  0.5635 -0.3492
10821TIP3    H253955   5.581   6.288   5.324  0.1998  0.0035 -1.0716
10822TIP3   OH253956   2.771   4.757  16.199 -0.9518 -0.0826 -0.4024
10822TIP3    H153957   2.783   4.727  16.109 -0.1002 -1.0673  0.0336
10822TIP3    H253958   2.840   4.822  16.213  0.3644 -1.6064  0.2705
10823TIP3   OH253959   1.293   0.310  13.961  0.2857 -0.1932  0.3440
10823TIP3    H153960   1.372   0.263  13.934 -0.8141 -0.7096 -2.0984
10823TIP3    H253961   1.232   0.298  13.888 -1.7369  0.9481  1.8070
10824TIP3   OH253962   5.485   2.591   4.031 -0.3004  0.2809 -0.4889
10824TIP3    H153963   5.559   2.619   3.977  0.2176 -0.0241  0.0597
10824TIP3    H253964   5.504   2.627   4.118 -0.8023  0.2088 -0.3460
10825TIP3   OH253965   0.857   0.908  11.831  0.2181 -0.6564 -0.0523
10825TIP3    H153966   0.799   0.977  11.863  0.5884 -0.3969  0.0618
10825TIP3    H253967   0.913   0.952  11.767  2.2986 -0.2242  2.0113
10826TIP3   OH253968   3.856   2.263  12.541  0.1528 -0.1115 -0.6171
10826TIP3    H153969   3.830   2.355  12.539  1.6659  0.3728  0.4621
10826TIP3    H253970   3.777   2.216  12.567 -0.2105  1.0785  0.5061
10827TIP3   OH253971   5.707   5.933  13.901  0.3463  0.1453 -0.1375
10827TIP3    H153972   5.709   5.874  13.826 -0.5149 -0.0364 -0.0253
10827TIP3    H253973   5.615   5.960  13.907  0.5785  0.8413  0.3178
10828TIP3   OH253974   0.763   4.168  14.141  0.2372 -0.1611 -0.5986
10828TIP3    H153975   0.823   4.131  14.206  0.6994  0.1910 -0.8159
10828TIP3    H253976   0.707   4.228  14.190  0.6730  0.2078 -0.5411
10829TIP3   OH253977   3.187   1.960   3.431  0.3274  0.2961  0.7708
10829TIP3    H153978   3.184   1.961   3.335 -0.2998 -1.3684  0.7586
10829TIP3    H253979   3.236   2.039   3.454  0.5265  0.6884 -0.9212
10830TIP3   OH253980   1.576   0.580   5.613  0.1134 -0.0630  0.6648
10830TIP3    H153981   1.645   0.643   5.636  0.2316 -0.5148  1.5835
10830TIP3    H253982   1.546   0.608   5.526  0.1522  1.2768  1.0640
10831TIP3   OH253983   3.570   3.427  15.161 -0.4565 -0.2719  0.2722
10831TIP3    H153984   3.479   3.398  15.167 -0.4662 -0.0907  1.0233
10831TIP3    H253985   3.614   3.358  15.111 -0.9935 -0.3781 -0.0534
10832TIP3   OH253986   6.129   2.420   1.225 -0.0279 -0.2260 -0.4793
10832TIP3    H153987   6.159   2.510   1.239  1.6242 -0.4879 -2.1948
10832TIP3    H253988   6.144   2.377   1.309  0.4339  0.7601 -0.0421
10833TIP3   OH253989   0.052   6.006   1.578  0.2138  0.5714  0.1853
10833TIP3    H153990   0.140   5.970   1.576 -0.2354 -0.4874 -0.9716
10833TIP3    H253991   0.025   6.010   1.486 -0.8329  1.1609  0.5025
10834TIP3   OH253992   6.273   0.598   4.086 -0.0149 -0.4578  0.1019
10834TIP3    H153993   6.243   0.654   4.014  2.5853 -0.5163 -1.0802
10834TIP3    H253994   6.256   0.509   4.055 -0.2501 -0.4427  0.1865
10835TIP3   OH253995   2.863   6.729   0.219  0.1495  0.3540  0.0226
10835TIP3    H153996   2.812   6.799   0.177 -0.1372  0.9549  1.3349
10835TIP3    H253997   2.910   6.687   0.147 -0.2488  1.4274 -0.8845
10836TIP3   OH253998   1.069   0.072  16.740  0.1390  0.5613 -0.4515
10836TIP3    H153999   1.093   0.164  16.754  0.9962  0.3955 -0.8173
10836TIP3    H254000   1.070   0.061  16.645 -0.1262  0.2151 -0.4150
10837TIP3   OH254001   3.873   3.887  16.622 -0.0501  0.1612  0.3725
10837TIP3    H154002   3.915   3.870  16.537 -0.4124 -0.9672  0.4064
10837TIP3    H254003   3.945   3.902  16.682  0.2653 -0.5269  0.1704
10838TIP3   OH254004   4.724   3.223  13.675 -0.1057  0.6792  0.5369
10838TIP3    H154005   4.738   3.156  13.608 -2.0779  0.5257  0.2519
10838TIP3    H254006   4.810   3.236  13.714  0.8317 -0.0744 -1.2311
10839TIP3   OH254007   5.537   4.129  12.110  0.0393  0.0000 -0.5650
10839TIP3    H154008   5.508   4.039  12.126  0.7872 -0.1342  0.0658
10839TIP3    H254009   5.510   4.176  12.189 -1.2581  0.5516 -1.3266
10840TIP3   OH254010   1.345   2.605   4.024  0.7435  0.0325 -0.1863
10840TIP3    H154011   1.290   2.541   4.070  3.1402  0.0575  2.9148
10840TIP3    H254012   1.432   2.565   4.024  1.9232  2.5109  0.3013
10841TIP3   OH254013   1.756   1.285  11.973  0.1426  0.2874  0.0273
10841TIP3    H154014   1.726   1.195  11.959 -1.7724  0.5476  2.1050
10841TIP3    H254015   1.701   1.338  11.915  0.2040  0.2695 -0.0480
10842TIP3   OH254016   2.490   0.139  12.358  0.1199  0.3972  0.1881
10842TIP3    H154017   2.548   0.101  12.292  0.7330  1.1799  0.2606
10842TIP3    H254018   2.548   0.162  12.431 -0.3897  0.5282  0.5565
10843TIP3   OH254019   4.080   2.351  11.197 -0.0770  0.2608 -0.0216
10843TIP3    H154020   4.129   2.377  11.119  0.2677  2.8112  1.0018
10843TIP3    H254021   4.147   2.338  11.264 -0.5443  0.1574  0.4273
10844TIP3   OH254022   5.460   5.588  12.590 -0.2611 -0.3031  0.6743
10844TIP3    H154023   5.462   5.508  12.643 -0.7044  0.4555  1.8514
10844TIP3    H254024   5.369   5.598  12.564 -0.6772  1.0687  2.5081
10845TIP3   OH254025   0.721   1.333  12.589  0.6334  0.5661 -0.0775
10845TIP3    H154026   0.683   1.249  12.615  1.5476 -0.0490 -0.7151
10845TIP3    H254027   0.775   1.313  12.513 -2.5296  2.4794 -2.9412
10846TIP3   OH254028   4.547   0.276   3.423  0.4221 -0.1452 -0.5328
10846TIP3    H154029   4.640   0.283   3.447 -0.2265  1.4668  1.7028
10846TIP3    H254030   4.523   0.187   3.447  1.1960 -0.3050 -0.3281
10847TIP3   OH254031   5.059   3.826  11.771 -0.3123  0.3135 -0.3264
10847TIP3    H154032   5.079   3.738  11.737 -0.8940 -0.5593  1.5110
10847TIP3    H254033   5.092   3.824  11.861  0.9133  2.4611 -0.6987
10848TIP3   OH254034   3.010   4.114  15.997  0.1490  0.4883  0.3911
10848TIP3    H154035   3.104   4.102  16.014  0.1550 -1.4725 -0.7975
10848TIP3    H254036   2.967   4.069  16.070  0.1419 -0.5201 -0.2341
10849TIP3   OH254037   0.179   4.087  17.056  0.4107  0.1256 -0.1775
10849TIP3    H154038   0.215   4.114  17.140  0.6452 -1.2176  0.1595
10849TIP3    H254039   0.092   4.128  17.052  1.1323  1.6802 -0.0930
10850TIP3   OH254040   1.462   0.461   0.972  0.0981 -0.0168 -0.6184
10850TIP3    H154041   1.498   0.406   1.041 -0.9763 -1.3803 -1.1171
10850TIP3    H254042   1.479   0.412   0.891  0.4846  1.1099 -1.2424
10851TIP3   OH254043   0.544   6.271  15.987  0.1957  0.3445  0.0425
10851TIP3    H154044   0.531   6.197  15.928  0.9825  0.3422 -0.1336
10851TIP3    H254045   0.516   6.347  15.937 -0.5405  0.1776  0.1958
10852TIP3   OH254046   2.959   3.576  13.744 -0.2361  0.1407  0.0890
10852TIP3    H154047   2.966   3.585  13.839 -0.0154 -0.0023  0.0867
10852TIP3    H254048   3.026   3.512  13.721 -1.4553 -1.1367  0.0407
10853TIP3   OH254049   2.835   3.822  12.505 -0.2391 -0.1012 -0.0710
10853TIP3    H154050   2.832   3.918  12.497  2.7332  0.0364  0.1929
10853TIP3    H254051   2.856   3.792  12.416 -0.2874 -0.4673  0.0425
10854TIP3   OH254052   4.961   4.122   4.205 -0.0892 -0.4542 -0.0680
10854TIP3    H154053   5.022   4.070   4.154 -0.0627 -1.2156  0.7273
10854TIP3    H254054   4.908   4.168   4.140  0.0347 -1.3011 -0.7761
10855TIP3   OH254055   4.548   1.225   0.745  0.3546  0.5382  0.3327
10855TIP3    H154056   4.453   1.236   0.747  0.4951  2.0227 -0.1147
10855TIP3    H254057   4.581   1.297   0.799  1.2424  0.4224 -0.0492
10856TIP3   OH254058   1.251   1.555  12.456 -0.0870  0.1586  0.0292
10856TIP3    H154059   1.340   1.545  12.489 -0.4178 -1.0470  0.5974
10856TIP3    H254060   1.238   1.479  12.399 -1.5722 -1.0057  1.8676
10857TIP3   OH254061   5.506   6.592  17.014  0.2926 -0.0629  0.0210
10857TIP3    H154062   5.495   6.506  17.055  0.7920 -0.6972 -1.1501
10857TIP3    H254063   5.562   6.640  17.075  0.3832 -0.7247  0.4742
10858TIP3   OH254064   5.737   3.823  15.214  0.1151  0.1996 -0.2709
10858TIP3    H154065   5.692   3.784  15.290 -1.1256 -5.1624 -3.4834
10858TIP3    H254066   5.830   3.803  15.228 -0.0879 -0.5979 -0.0393
10859TIP3   OH254067   3.048   1.207  15.278 -0.3829 -0.1452 -0.1076
10859TIP3    H154068   3.016   1.256  15.203 -0.9325 -0.4176 -0.0576
10859TIP3    H254069   3.052   1.271  15.349 -1.1211 -0.1752 -0.0348
10860TIP3   OH254070   4.884   1.395   2.228  0.0753 -0.1690 -0.0118
10860TIP3    H154071   4.857   1.373   2.317  0.3847  0.9519  0.3648
10860TIP3    H254072   4.905   1.310   2.188  1.8735 -0.5159  1.6101
10861TIP3   OH254073   5.037   4.531  11.934 -0.2627 -0.3910 -0.3934
10861TIP3    H154074   4.981   4.549  12.010 -0.2475  3.0039 -1.1368
10861TIP3    H254075   4.979   4.536  11.859  0.3374 -0.6678 -0.8855
10862TIP3   OH254076   3.350   0.846  16.357 -0.4706  0.3694  0.3926
10862TIP3    H154077   3.359   0.939  16.336  0.8946  0.7305  2.4159
10862TIP3    H254078   3.288   0.844  16.431 -0.9281 -0.3805 -0.0077
10863TIP3   OH254079   1.723   1.649   2.117  0.5788 -0.6083 -0.0122
10863TIP3    H154080   1.783   1.578   2.139  0.5971 -0.4021  0.6225
10863TIP3    H254081   1.764   1.727   2.154  1.5319  0.0522 -2.3564
10864TIP3   OH254082   4.169   5.564   2.449  0.0605  0.5884 -0.4417
10864TIP3    H154083   4.242   5.623   2.470 -0.0292  0.6364 -0.2631
10864TIP3    H254084   4.090   5.616   2.467 -0.0192  0.2939  0.0786
10865TIP3   OH254085   3.351   1.139   3.968  0.2281 -0.7468 -0.0981
10865TIP3    H154086   3.417   1.115   3.903  1.9699  4.3498 -0.4316
10865TIP3    H254087   3.268   1.141   3.919  1.3875  2.2435 -2.0727
10866TIP3   OH254088   4.943   5.909   4.793  0.0287  0.2615  0.0992
10866TIP3    H154089   4.861   5.943   4.757  0.1181  1.2057  0.7760
10866TIP3    H254090   4.980   5.857   4.722 -0.8841  0.2743 -0.4028
10867TIP3   OH254091   5.822   4.006   1.684 -0.4845  0.4040  0.0283
10867TIP3    H154092   5.893   3.946   1.707 -1.3527 -0.3548  0.8100
10867TIP3    H254093   5.747   3.974   1.734 -1.3579  1.2422 -0.7173
10868TIP3   OH254094   6.665   5.514  12.814  0.0597 -0.4353 -0.1308
10868TIP3    H154095   6.678   5.423  12.841 -0.0203 -0.5458 -0.4640
10868TIP3    H254096   6.723   5.524  12.738 -0.4297 -0.4001 -0.5000
10869TIP3   OH254097   2.654   3.323   3.848 -0.1309  0.2349 -0.5598
10869TIP3    H154098   2.725   3.360   3.899  0.4465 -0.4753 -0.8494
10869TIP3    H254099   2.672   3.230   3.844 -0.7851  0.1222 -1.0924
10870TIP3   OH254100   0.012   2.683   1.697  0.6951  0.3376  0.0778
10870TIP3    H154101  -0.048   2.669   1.770  0.7656  0.8190  0.2279
10870TIP3    H254102   0.015   2.598   1.653 -1.1237  0.6386 -0.7036
10871TIP3   OH254103   5.039   2.181  13.276  0.8301  0.3363 -0.3872
10871TIP3    H154104   5.059   2.150  13.187  0.4979  1.1167 -0.7320
10871TIP3    H254105   4.945   2.167  13.285  0.6776  1.2732 -0.5490
10872TIP3   OH254106   3.699   2.932  12.800 -0.5928 -0.7533 -0.1164
10872TIP3    H154107   3.696   2.965  12.890 -2.9977 -1.3128  0.0530
10872TIP3    H254108   3.785   2.890  12.793  0.6357  1.4375  1.1085
10873TIP3   OH254109   6.131   0.545  11.680  0.5258  0.1682 -0.1624
10873TIP3    H154110   6.144   0.458  11.717  0.3230 -0.2622 -1.1131
10873TIP3    H254111   6.163   0.539  11.590  1.8081  1.4457  0.1891
10874TIP3   OH254112   0.998   5.863  13.140 -0.1587 -0.0482 -0.0198
10874TIP3    H154113   1.052   5.788  13.115  0.0405 -0.7460  2.3169
10874TIP3    H254114   0.910   5.826  13.152 -0.2731  0.2838  0.1628
10875TIP3   OH254115   3.547   4.982   1.979 -0.1021 -0.0527 -0.0975
10875TIP3    H154116   3.478   4.987   1.913 -0.9165  0.3447  0.7622
10875TIP3    H254117   3.629   4.990   1.930 -0.7330  1.3317 -0.9491
10876TIP3   OH254118   1.863   5.068   2.689  0.5144  0.1114 -0.1955
10876TIP3    H154119   1.947   5.026   2.670 -0.3229 -2.0138  0.5444
10876TIP3    H254120   1.797   5.009   2.651 -0.7240  0.7052  0.9616
10877TIP3   OH254121   3.767   3.696  12.664  0.2865 -0.3273 -0.2352
10877TIP3    H154122   3.768   3.751  12.585  1.4676  0.7905  0.5275
10877TIP3    H254123   3.680   3.709  12.701 -0.2540 -0.8014 -1.3123
10878TIP3   OH254124   3.173   1.969   4.554 -0.5689 -0.0197 -0.1200
10878TIP3    H154125   3.123   2.015   4.487  1.1698 -1.2696 -2.3466
10878TIP3    H254126   3.198   2.038   4.617 -1.4136  1.3283 -1.2286
10879TIP3   OH254127   0.306   6.206  15.356  0.4310 -0.1948  0.0606
10879TIP3    H154128   0.255   6.276  15.316  1.7555  1.4830  1.2655
10879TIP3    H254129   0.391   6.210  15.312  1.2123  0.3424  1.5799
10880TIP3   OH254130   1.983   2.078  17.221  0.0659  0.5716  0.7234
10880TIP3    H154131   1.912   2.143  17.223 -1.1046 -0.7168  1.4888
10880TIP3    H254132   1.965   2.026  17.143 -0.1073 -0.0501  1.1732
10881TIP3   OH254133   1.497   5.774   5.951 -0.1839 -0.3197  0.2596
10881TIP3    H154134   1.417   5.815   5.983  0.8058  1.2352  0.7550
10881TIP3    H254135   1.559   5.784   6.022  0.6884 -0.8386 -0.4264
10882TIP3   OH254136   4.580   1.622   3.404  0.0220  0.0183  0.3664
10882TIP3    H154137   4.501   1.676   3.393 -0.6627 -1.2563 -1.2465
10882TIP3    H254138   4.648   1.668   3.355 -1.0904 -1.6020 -2.8676
10883TIP3   OH254139   5.973   0.830  15.422 -0.0722  0.1748  0.8661
10883TIP3    H154140   6.010   0.869  15.501 -0.2762 -1.9422  2.0440
10883TIP3    H254141   5.890   0.792  15.451  0.1577 -1.1807 -0.2116
10884TIP3   OH254142   2.752   2.137   3.025  0.3517  0.1276  0.0343
10884TIP3    H154143   2.740   2.172   2.936  0.8089  0.9819  0.3008
10884TIP3    H254144   2.825   2.076   3.018  0.0822 -0.1599 -0.2714
10885TIP3   OH254145   2.391   0.971   0.357 -0.1402  0.2078  0.4186
10885TIP3    H154146   2.347   0.890   0.380  0.2713  0.2171  1.2608
10885TIP3    H254147   2.454   0.946   0.289 -0.0914 -0.1600  0.6005
10886TIP3   OH254148   6.741   2.766  10.887  0.0728  0.1463 -0.4007
10886TIP3    H154149   6.714   2.683  10.850  1.4115 -1.1553  1.4151
10886TIP3    H254150   6.831   2.778  10.858 -0.1825  1.0677 -0.8343
10887TIP3   OH254151   3.233   1.942  11.285  0.1572  0.0510  0.2234
10887TIP3    H154152   3.293   1.870  11.307 -1.0779 -0.5438  1.6825
10887TIP3    H254153   3.280   2.021  11.312 -0.3152 -0.5075  2.8803
10888TIP3   OH254154   2.815   1.365  15.927 -0.9598 -0.4903  0.5859
10888TIP3    H154155   2.860   1.297  15.878 -1.5501  0.0712 -0.7580
10888TIP3    H254156   2.881   1.434  15.939 -0.8674 -0.5561  0.4464
10889TIP3   OH254157   2.569   6.355  13.723  0.4305 -0.1174  0.4608
10889TIP3    H154158   2.574   6.305  13.804 -1.7384  0.0984  0.7667
10889TIP3    H254159   2.484   6.398  13.727  0.2965 -0.0987 -1.9442
10890TIP3   OH254160   5.119   4.297  13.799  0.1084 -0.6890  0.3904
10890TIP3    H154161   5.112   4.201  13.792 -2.7608 -0.3277 -5.2281
10890TIP3    H254162   5.029   4.326  13.814  0.2728  1.1975 -1.9450
10891TIP3   OH254163   4.009   3.880   1.899 -0.3447  0.1271  0.0856
10891TIP3    H154164   3.987   3.950   1.838  0.6683  1.8087  1.5877
10891TIP3    H254165   3.947   3.891   1.971  1.3217  0.9882  1.4223
10892TIP3   OH254166   3.260   2.376   0.097 -1.2184 -0.1149 -0.1406
10892TIP3    H154167   3.201   2.387   0.022 -0.5852  0.0681 -0.6118
10892TIP3    H254168   3.340   2.341   0.060 -0.8521  0.1006  0.4374
10893TIP3   OH254169   3.575   0.126   1.454 -0.2826 -0.0746  0.4686
10893TIP3    H154170   3.515   0.053   1.443 -2.3547  1.6647 -0.0443
10893TIP3    H254171   3.538   0.177   1.526  1.3093  0.2992  1.0362
10894TIP3   OH254172   3.227   1.838  16.328 -0.1113  0.9160 -0.0428
10894TIP3    H154173   3.309   1.796  16.303 -0.5360 -0.3293  0.6238
10894TIP3    H254174   3.166   1.819  16.257  0.0543  1.5037 -0.3472
10895TIP3   OH254175   0.885   5.007  15.802 -0.4777 -0.4558  0.1250
10895TIP3    H154176   0.964   4.957  15.823  0.0137 -0.3820 -1.4810
10895TIP3    H254177   0.911   5.099  15.813 -0.9143 -0.4738  1.4739
10896TIP3   OH254178   1.626   0.849   1.842 -0.3956  0.3379  0.1599
10896TIP3    H154179   1.598   0.759   1.860  0.7128  0.1816  1.2031
10896TIP3    H254180   1.573   0.902   1.902  1.6049  0.0253  2.2783
10897TIP3   OH254181   2.536   0.766  15.266 -0.2130 -0.1604  0.1374
10897TIP3    H154182   2.442   0.771  15.250 -0.4011  0.5929  1.4042
10897TIP3    H254183   2.547   0.801  15.354  1.1378 -1.1912  0.3944
10898TIP3   OH254184   4.291   6.455  13.765  0.3299  0.1937 -0.2216
10898TIP3    H154185   4.235   6.458  13.687  0.7143  1.8394 -0.4494
10898TIP3    H254186   4.375   6.489  13.736  0.0552  2.2760  1.2146
10899TIP3   OH254187   4.727   5.178  14.957  0.0870 -0.2036 -0.2335
10899TIP3    H154188   4.755   5.097  14.915  0.0047  0.8588 -2.4050
10899TIP3    H254189   4.747   5.246  14.894 -1.6314  1.2630  0.7514
10900TIP3   OH254190   6.582   1.204   4.933  0.2729 -0.3330 -0.1518
10900TIP3    H154191   6.639   1.257   4.988  0.2026 -1.4447  1.0281
10900TIP3    H254192   6.497   1.205   4.978 -0.2667  0.1780 -1.1626
10901TIP3   OH254193   5.371   5.958  16.974  0.0005  0.4325 -0.3198
10901TIP3    H154194   5.337   5.998  16.893 -0.8973 -0.7095 -0.5221
10901TIP3    H254195   5.302   5.897  17.000 -0.2094  1.6090  1.9440
10902TIP3   OH254196   3.173   3.312  12.311  0.2281  0.1506 -0.3517
10902TIP3    H154197   3.206   3.391  12.355 -2.7640  1.3870 -0.1910
10902TIP3    H254198   3.150   3.253  12.383 -3.7627  1.7973 -0.1651
10903TIP3   OH254199   4.097   0.449   2.907  0.7114  0.1014  0.2202
10903TIP3    H154200   4.171   0.508   2.923 -0.4842  0.9681  2.6176
10903TIP3    H254201   4.052   0.487   2.831  0.6733  1.5668  0.9701
10904TIP3   OH254202   1.031   6.608  10.702 -0.5738 -0.0537 -0.3881
10904TIP3    H154203   1.100   6.611  10.635 -1.1901  1.3307 -0.9939
10904TIP3    H254204   1.024   6.516  10.725  2.2857 -0.0862  0.5444
10905TIP3   OH254205   6.258   0.842   1.153 -0.5768 -0.0444 -0.2091
10905TIP3    H154206   6.343   0.811   1.121 -0.3094  1.6658 -1.2181
10905TIP3    H254207   6.212   0.763   1.180  2.0235 -0.8534  2.0211
10906TIP3   OH254208   4.364   3.452   1.985 -0.2749  0.6307  0.1103
10906TIP3    H154209   4.307   3.529   1.977 -1.7117 -0.4551 -0.4050
10906TIP3    H254210   4.304   3.378   1.978  1.4625 -0.5802 -2.4804
10907TIP3   OH254211   5.473   4.867   5.041 -0.0318  0.3119 -0.3848
10907TIP3    H154212   5.530   4.814   5.096  0.6373  1.3110 -0.1012
10907TIP3    H254213   5.385   4.854   5.078  0.5444  1.7899  1.5859
10908TIP3   OH254214   0.466   5.646   5.531 -0.2473  0.1730 -0.6437
10908TIP3    H154215   0.387   5.673   5.578  0.4675  0.9601  0.1073
10908TIP3    H254216   0.445   5.558   5.499 -1.9792  0.9428 -1.7323
10909TIP3   OH254217   6.794   2.141   3.177  0.2161 -0.0935  0.3330
10909TIP3    H154218   6.885   2.147   3.205  0.2288 -0.4383  0.3708
10909TIP3    H254219   6.784   2.210   3.112  0.4138  0.1676  0.5808
10910TIP3   OH254220   5.583   5.081   1.020 -0.1158  0.0475 -0.2017
10910TIP3    H154221   5.605   5.171   1.042 -0.1715 -0.1942  0.8897
10910TIP3    H254222   5.556   5.084   0.928  1.9478  0.7795 -0.8093
10911TIP3   OH254223   3.317   0.327  12.873  0.3236 -0.2732 -0.5979
10911TIP3    H154224   3.350   0.238  12.876  0.1867 -0.3505 -1.3167
10911TIP3    H254225   3.395   0.381  12.858  0.3346 -0.3150 -0.6906
10912TIP3   OH254226   1.259   4.342   2.123  0.5082  0.3816 -0.3993
10912TIP3    H154227   1.204   4.344   2.202  0.6672  0.5300 -0.2925
10912TIP3    H254228   1.337   4.391   2.147  1.6656 -1.6750  0.2031
10913TIP3   OH254229   3.847   2.502   0.806 -0.0094  0.2272  0.0447
10913TIP3    H154230   3.753   2.503   0.823  0.0326  0.3086  0.2769
10913TIP3    H254231   3.883   2.451   0.879  0.1778  0.6080  0.2196
10914TIP3   OH254232   6.127   4.591  17.021  0.5497  0.3075  0.5181
10914TIP3    H154233   6.201   4.531  17.018  1.7668  1.7930  0.4521
10914TIP3    H254234   6.161   4.669  17.063 -0.9264  1.0946  0.2843
10915TIP3   OH254235   3.405   0.501   6.094 -0.0126 -0.4098  0.1401
10915TIP3    H154236   3.369   0.513   6.006  0.4945 -0.4399 -0.0745
10915TIP3    H254237   3.481   0.559   6.097 -0.4528  0.1432  0.8138
10916TIP3   OH254238   4.754   1.933  12.974 -0.0490 -0.5398  0.1971
10916TIP3    H154239   4.754   1.838  12.986  0.9308 -0.3795  1.5886
10916TIP3    H254240   4.740   1.969  13.061  0.0394  0.6032 -0.2443
10917TIP3   OH254241   3.279   4.212   1.731 -0.3514 -0.0544 -0.1462
10917TIP3    H154242   3.188   4.181   1.726 -0.4800  0.5587 -2.2914
10917TIP3    H254243   3.332   4.132   1.730 -0.7836 -0.3647 -2.6627
10918TIP3   OH254244   1.702   3.753   4.368 -0.3748  0.4554 -0.1577
10918TIP3    H154245   1.767   3.687   4.341 -1.1187  0.4172 -1.9753
10918TIP3    H254246   1.667   3.786   4.285 -2.2681  0.8746  0.7872
10919TIP3   OH254247   3.270   0.022   0.601  0.1557  0.0115  0.0786
10919TIP3    H154248   3.214  -0.041   0.556 -0.4662  1.0152 -0.5795
10919TIP3    H254249   3.339   0.043   0.538  0.3992 -0.0671  0.3178
10920TIP3   OH254250   1.233   5.906   2.273  0.3066  0.0612 -0.4221
10920TIP3    H154251   1.226   5.984   2.327 -0.1896  1.0080 -1.8174
10920TIP3    H254252   1.297   5.930   2.205  2.4861 -1.8086  0.8854
10921TIP3   OH254253   6.546   0.827   1.564  0.1189  0.4300  0.0647
10921TIP3    H154254   6.471   0.789   1.518 -0.0556  1.4696 -0.5233
10921TIP3    H254255   6.536   0.922   1.551  1.7583  0.5501 -0.3632
10922TIP3   OH254256   6.510   2.531  12.518  0.1190  0.3051 -0.2224
10922TIP3    H154257   6.452   2.456  12.527 -0.0557  0.3242 -1.1121
10922TIP3    H254258   6.547   2.522  12.430 -0.0818  1.3800 -0.4273
10923TIP3   OH254259   6.495   3.452  12.849  0.1523 -0.4738  0.0324
10923TIP3    H154260   6.415   3.501  12.828  0.0442  0.7027  2.9794
10923TIP3    H254261   6.463   3.375  12.897  0.8133  0.7771  2.5836
10924TIP3   OH254262   5.175   1.902   3.712  0.0517  0.1041  0.1375
10924TIP3    H154263   5.110   1.869   3.774  0.1647  2.5181  1.6019
10924TIP3    H254264   5.218   1.974   3.759  2.7911 -0.5156 -1.3224
10925TIP3   OH254265   0.942   4.818  14.921  0.2973 -0.5017 -0.1457
10925TIP3    H154266   0.896   4.790  14.842  0.1684 -2.9121  0.7563
10925TIP3    H254267   0.874   4.858  14.975 -0.0437 -0.8710 -0.3002
10926TIP3   OH254268   0.033   5.597   1.078  0.6924 -0.4232  0.0988
10926TIP3    H154269   0.021   5.507   1.048  1.2725  0.2083 -2.0949
10926TIP3    H254270  -0.052   5.639   1.061  1.5968  0.4267 -2.4993
10927TIP3   OH254271   1.601   2.861   0.869  0.5034  1.1917 -0.3992
10927TIP3    H154272   1.662   2.788   0.855 -2.1494 -1.1823  0.1076
10927TIP3    H254273   1.650   2.922   0.925  2.3202 -0.7726  0.2254
10928TIP3   OH254274   1.198   2.510   5.120 -0.0239  0.3830  0.2515
10928TIP3    H154275   1.141   2.586   5.120  0.2397  0.5893  0.8239
10928TIP3    H254276   1.256   2.524   5.195  1.5861  0.7885 -1.0540
10929TIP3   OH254277   4.735   4.478  10.951 -0.1243  0.5223 -0.1649
10929TIP3    H154278   4.652   4.511  10.985 -0.4480  0.1870 -0.6226
10929TIP3    H254279   4.712   4.395  10.909  0.5148  0.1976  0.1127
10930TIP3   OH254280   6.218   0.996  12.120  0.0301 -0.2489 -0.2896
10930TIP3    H154281   6.286   1.022  12.057  1.4568  0.1449  1.3890
10930TIP3    H254282   6.139   0.989  12.067  1.3369 -0.6171 -2.2856
10931TIP3   OH254283   6.683   6.177   6.073  0.5368 -0.2763  0.1892
10931TIP3    H154284   6.673   6.266   6.107  1.6721 -0.6118  1.4719
10931TIP3    H254285   6.677   6.122   6.151 -0.0041 -1.3084 -0.5786
10932TIP3   OH254286   6.556   0.478   3.871  0.4116 -0.4255  0.2265
10932TIP3    H154287   6.470   0.440   3.853  0.3547  0.0730 -0.5774
10932TIP3    H254288   6.618   0.410   3.843  0.3202  0.3268 -1.8676
10933TIP3   OH254289   1.978   6.009  12.980  0.1469 -0.2301  0.0522
10933TIP3    H154290   1.926   6.087  12.962 -0.8923 -0.5748  1.4516
10933TIP3    H254291   1.958   5.987  13.071  2.5718 -0.5178  0.5635
10934TIP3   OH254292   3.505   3.443  14.709  0.3178  0.4417  0.0831
10934TIP3    H154293   3.585   3.485  14.678  0.1644  0.5809 -0.1221
10934TIP3    H254294   3.457   3.512  14.754  2.1537 -0.5312  3.7725
10935TIP3   OH254295   2.888   4.630  15.019 -0.0102 -0.0878 -0.1545
10935TIP3    H154296   2.806   4.580  15.018 -0.2212  0.2635 -0.3245
10935TIP3    H254297   2.940   4.588  15.088 -1.4171  1.4118  1.8949
10936TIP3   OH254298   4.862   6.418   4.609  0.1619 -0.0674  0.1130
10936TIP3    H154299   4.878   6.458   4.694  1.4116 -0.3438  0.0158
10936TIP3    H254300   4.826   6.331   4.630 -1.8161  0.7728  0.3256
10937TIP3   OH254301   6.437   1.733  13.173  0.5178 -0.4701 -0.2628
10937TIP3    H154302   6.353   1.718  13.129  1.0260 -1.5066 -0.9156
10937TIP3    H254303   6.448   1.657  13.230 -0.0148  0.7496  1.4968
10938TIP3   OH254304   1.987   3.851   1.338  0.2928 -0.2355  0.4251
10938TIP3    H154305   1.908   3.798   1.331  0.3023 -0.1920 -0.0176
10938TIP3    H254306   1.979   3.895   1.423 -0.2387 -0.0984  0.3052
10939TIP3   OH254307   5.681   1.797   1.610  0.0493  0.2149  0.3905
10939TIP3    H154308   5.589   1.781   1.591 -0.4783  2.3833  0.9541
10939TIP3    H254309   5.714   1.713   1.641 -1.2197 -1.1187 -1.7423
10940TIP3   OH254310   3.011   5.399   4.836  0.1826 -0.3532  0.5073
10940TIP3    H154311   3.008   5.382   4.742  1.1752 -0.7091  0.5348
10940TIP3    H254312   2.960   5.327   4.875  0.5515 -0.7257  0.3060
10941TIP3   OH254313   6.578   1.488   2.776  0.3299 -0.1482  0.3242
10941TIP3    H154314   6.489   1.489   2.813 -0.0390 -0.0238 -0.5576
10941TIP3    H254315   6.625   1.425   2.830  0.1378  0.9420  1.7872
10942TIP3   OH254316   5.522   6.421  12.430 -0.0480 -0.1469 -0.6778
10942TIP3    H154317   5.555   6.477  12.360 -0.6747  0.2125 -0.6968
10942TIP3    H254318   5.437   6.390  12.399 -0.9435  1.0840  0.4502
10943TIP3   OH254319   0.060   3.347   1.595 -0.0205  0.2414 -0.2192
10943TIP3    H154320   0.147   3.332   1.631 -0.3412 -1.4046 -0.0969
10943TIP3    H254321   0.009   3.272   1.624 -0.9898  0.2382 -1.8947
10944TIP3   OH254322   2.105   3.247   5.607  0.3678 -0.1648 -0.3943
10944TIP3    H154323   2.032   3.231   5.548 -0.2364  1.2199 -0.0400
10944TIP3    H254324   2.080   3.201   5.688  0.1048 -0.0958 -0.4338
10945TIP3   OH254325   3.733   3.951   5.526 -0.0175  0.4252 -0.1706
10945TIP3    H154326   3.755   4.024   5.584 -0.3931  0.3745  0.0392
10945TIP3    H254327   3.786   3.966   5.447  0.5925  0.4224  0.2334
10946TIP3   OH254328   1.499   3.102  13.914 -0.6233  0.2635  0.1204
10946TIP3    H154329   1.451   3.114  13.832 -0.5745  0.1133  0.0703
10946TIP3    H254330   1.432   3.073  13.976 -0.0659 -3.1202 -0.7286
10947TIP3   OH254331   6.578   4.876  12.443 -0.0371  0.2596  0.2464
10947TIP3    H154332   6.554   4.954  12.393 -0.6130  0.0631  0.2185
10947TIP3    H254333   6.528   4.805  12.404  0.3521 -0.0980  0.3855
10948TIP3   OH254334   2.103   1.384  11.333  0.0791 -0.2815  0.6709
10948TIP3    H154335   2.184   1.420  11.299 -0.3780 -1.4225 -1.7742
10948TIP3    H254336   2.120   1.290  11.342 -0.1738 -0.1654  2.5878
10949TIP3   OH254337   6.619   0.738  13.443  0.1106 -0.0233 -0.3615
10949TIP3    H154338   6.595   0.646  13.450 -0.6848  0.1870 -0.2733
10949TIP3    H254339   6.708   0.743  13.478  0.2580 -0.8023 -0.6264
10950TIP3   OH254340   6.047   0.135   0.066  0.2425  0.3115  0.4920
10950TIP3    H154341   6.063   0.048   0.102  1.3852 -0.7145 -2.3519
10950TIP3    H254342   5.958   0.131   0.032  0.1218  0.4183  0.7935
10951TIP3   OH254343   3.211   3.617   5.774  0.2361  0.2037  0.3665
10951TIP3    H154344   3.257   3.665   5.706  0.6020 -0.7273 -0.0441
10951TIP3    H254345   3.280   3.571   5.823 -0.1973 -0.8065  0.0497
10952TIP3   OH254346   2.752   0.140   4.206 -0.0528 -0.4395  0.2819
10952TIP3    H154347   2.812   0.065   4.199 -1.6086 -1.8716  1.5951
10952TIP3    H254348   2.807   0.217   4.190  1.7997 -1.8016 -0.0776
10953TIP3   OH254349   0.870   4.606  15.588  0.0445 -0.5532 -0.3298
10953TIP3    H154350   0.966   4.612  15.590  0.1060 -1.7529  1.0562
10953TIP3    H254351   0.840   4.696  15.603  0.9413 -0.1300 -0.9992
10954TIP3   OH254352   2.345   2.256   4.919 -0.1168 -0.2079  0.3460
10954TIP3    H154353   2.355   2.222   5.008  1.1237  1.1881  0.7470
10954TIP3    H254354   2.401   2.333   4.916 -0.9257  0.3333 -1.3489
10955TIP3   OH254355   0.986   0.412  13.194 -0.0875  0.0669 -0.5447
10955TIP3    H154356   0.917   0.398  13.259  0.1197 -0.9441 -0.5437
10955TIP3    H254357   0.976   0.504  13.169 -0.7741  0.2081  0.2167
10956TIP3   OH254358   6.106   4.097   4.283 -0.1193 -0.3634 -0.3257
10956TIP3    H154359   6.031   4.067   4.335 -0.5256 -0.0557 -0.7387
10956TIP3    H254360   6.069   4.119   4.198  0.5787 -1.0692 -0.8228
10957TIP3   OH254361   6.268   3.775   3.665 -0.3605  0.4932 -0.0937
10957TIP3    H154362   6.198   3.750   3.605 -0.4222  3.4548 -1.3571
10957TIP3    H254363   6.322   3.697   3.674 -1.3389 -0.5184 -2.6546
10958TIP3   OH254364   0.034   3.624   0.940  0.6681 -0.0067  0.6404
10958TIP3    H154365  -0.057   3.645   0.921  1.3229  3.0282  0.6690
10958TIP3    H254366   0.078   3.628   0.856  0.4578 -3.6312  0.2617
10959TIP3   OH254367   1.190   6.431   3.627 -0.3019  0.8369  0.0113
10959TIP3    H154368   1.207   6.410   3.535  2.6553  0.5980  0.5446
10959TIP3    H254369   1.235   6.515   3.641  1.4972 -0.3751  1.8270
10960TIP3   OH254370   4.049   5.378  11.684  0.6843 -0.2271  0.2091
10960TIP3    H154371   4.047   5.428  11.765  0.5831 -1.4934  0.9994
10960TIP3    H254372   4.136   5.395  11.648  1.3699 -0.9893  1.4504
10961TIP3   OH254373   3.742   0.111   4.455  0.2918  0.8745 -0.0346
10961TIP3    H154374   3.670   0.054   4.483  2.1449 -0.7747  1.5197
10961TIP3    H254375   3.708   0.155   4.377 -1.8094 -1.0707 -0.2850
10962TIP3   OH254376   5.628   5.679  12.176  0.0184 -0.5328 -0.5934
10962TIP3    H154377   5.686   5.623  12.124  0.1376 -0.5755 -0.4137
10962TIP3    H254378   5.649   5.657  12.267  0.0065 -0.2557 -0.5243
10963TIP3   OH254379   1.382   2.982  10.568  0.1659  0.7576 -0.4916
10963TIP3    H154380   1.290   3.007  10.555 -0.2985 -0.0770  1.1014
10963TIP3    H254381   1.427   3.064  10.587 -0.9028  0.7615  2.2083
10964TIP3   OH254382   5.702   2.444   0.371  0.1361  0.0841 -0.1304
10964TIP3    H154383   5.785   2.456   0.325 -0.5557 -0.9095 -1.6977
10964TIP3    H254384   5.651   2.386   0.314 -1.7469  0.9002  0.6582
10965TIP3   OH254385   6.438   0.934   4.903 -0.0789  0.1474 -0.6986
10965TIP3    H154386   6.496   0.866   4.936 -1.5446 -1.0316 -0.5155
10965TIP3    H254387   6.497   1.002   4.870  1.3834 -0.3929  0.7797
10966TIP3   OH254388   5.392   1.122  16.531  0.0288 -0.3136  0.3793
10966TIP3    H154389   5.310   1.104  16.483  0.8995  0.7476 -1.5710
10966TIP3    H254390   5.410   1.214  16.514  0.1035  0.2454  3.2549
10967TIP3   OH254391   4.520   5.660  14.387  0.4383 -0.4440  0.6389
10967TIP3    H154392   4.493   5.583  14.337 -1.7746  0.4744  0.3433
10967TIP3    H254393   4.614   5.650  14.397  0.7589 -1.3361 -2.6083
10968TIP3   OH254394   5.260   2.961   5.238 -0.1846 -0.2466 -0.2049
10968TIP3    H154395   5.181   2.907   5.249  0.8979 -1.8685 -0.1555
10968TIP3    H254396   5.327   2.915   5.288  0.6077  1.5865  0.4550
10969TIP3   OH254397   4.531   4.709  15.707 -0.1690  0.0953  0.7473
10969TIP3    H154398   4.451   4.724  15.656  0.1229  0.7010  0.4635
10969TIP3    H254399   4.602   4.724  15.645  0.1861  0.7189  1.3015
10970TIP3   OH254400   2.929   5.885   0.343  0.6413 -0.8581  0.0773
10970TIP3    H154401   2.962   5.813   0.397  3.6893 -0.6572 -1.4323
10970TIP3    H254402   2.975   5.963   0.376 -0.4183 -0.0803 -0.2422
10971TIP3   OH254403   3.593   2.384  12.759 -0.4561 -0.3971 -0.1554
10971TIP3    H154404   3.579   2.291  12.776 -1.2745  0.0290  1.6777
10971TIP3    H254405   3.505   2.418  12.739 -0.6129  0.4859  1.9148
10972TIP3   OH254406   2.583   4.321  17.212  0.2735 -0.6918 -0.2722
10972TIP3    H154407   2.623   4.355  17.132  0.2734 -1.6043 -0.6612
10972TIP3    H254408   2.619   4.233  17.222 -0.9095 -1.1722 -0.1242
10973TIP3   OH254409   4.838   0.844   0.806  0.3277  0.7793 -0.1251
10973TIP3    H154410   4.880   0.775   0.756  1.4684  0.5784  1.0829
10973TIP3    H254411   4.878   0.925   0.775  0.4725  0.7188 -0.0971
10974TIP3   OH254412   6.167   4.867  14.418 -0.8117  0.2393 -0.3125
10974TIP3    H154413   6.080   4.897  14.393 -0.6368 -0.2579 -1.5630
10974TIP3    H254414   6.191   4.921  14.494 -2.1287  0.4922 -0.0653
10975TIP3   OH254415   6.711   6.047  11.379 -0.2503  0.2013 -0.1915
10975TIP3    H154416   6.690   6.037  11.472  1.9391  0.9534  0.4231
10975TIP3    H254417   6.702   6.141  11.363 -0.1828  0.1340 -0.6193
10976TIP3   OH254418   1.014   3.832  11.506  0.5583 -1.0092 -0.4106
10976TIP3    H154419   1.045   3.774  11.436 -3.1342 -1.6111 -1.6988
10976TIP3    H254420   0.959   3.776  11.561  1.0815  0.1363  1.3361
10977TIP3   OH254421   2.384   3.444   2.399  0.0441  0.5231 -0.5122
10977TIP3    H154422   2.381   3.402   2.485 -2.0697  0.8512 -0.3904
10977TIP3    H254423   2.391   3.538   2.417  1.9375  0.4569 -0.7544
10978TIP3   OH254424   5.541   0.271  13.794  0.4789 -0.2076 -0.3123
10978TIP3    H154425   5.616   0.298  13.741 -1.3000 -0.3113 -2.9939
10978TIP3    H254426   5.526   0.180  13.768 -2.1652  0.6067 -1.8107
10979TIP3   OH254427   5.531   5.422   0.188  0.0413  0.0748  0.5576
10979TIP3    H154428   5.624   5.402   0.202  0.9583  3.4573 -0.1355
10979TIP3    H254429   5.529   5.468   0.104 -2.3348 -0.3063  0.3728
10980TIP3   OH254430   2.217   5.747  16.729  0.2824 -0.2106  0.2542
10980TIP3    H154431   2.134   5.718  16.767  0.8015 -1.2461  0.6282
10980TIP3    H254432   2.238   5.829  16.775 -0.0559 -0.4528  0.8484
10981TIP3   OH254433   4.395   4.464  11.769 -0.0961  0.0334 -0.3885
10981TIP3    H154434   4.478   4.510  11.758  0.3551 -0.8779 -0.8394
10981TIP3    H254435   4.331   4.518  11.723  0.2681  0.6878 -0.1208
10982TIP3   OH254436   0.246   3.222   5.621  0.2233 -0.1138  0.1713
10982TIP3    H154437   0.319   3.168   5.591 -1.1574 -1.9361 -0.0103
10982TIP3    H254438   0.171   3.191   5.572 -1.0975  0.2609  1.8926
10983TIP3   OH254439   6.431   1.901   5.406 -0.7485 -0.3430  0.4976
10983TIP3    H154440   6.493   1.910   5.334 -1.0134 -1.0845  0.1727
10983TIP3    H254441   6.376   1.827   5.381 -2.8155  1.3075  0.0092
10984TIP3   OH254442   0.677   6.130   2.303  0.7166 -0.3207  0.6406
10984TIP3    H154443   0.610   6.189   2.267 -0.8576 -1.5330  1.5319
10984TIP3    H254444   0.705   6.077   2.229  0.6341  0.1212  0.2876
10985TIP3   OH254445   5.336   4.403   0.034 -0.3898  0.5797 -0.1277
10985TIP3    H154446   5.370   4.329   0.083  1.1206  0.5621 -1.1636
10985TIP3    H254447   5.406   4.468   0.037 -0.9998  1.2764 -0.7235
10986TIP3   OH254448   0.008   2.123  11.030  0.2490  0.7510  0.1280
10986TIP3    H154449   0.044   2.035  11.015 -1.3370 -0.0294  0.8699
10986TIP3    H254450   0.069   2.181  10.984  0.8115 -0.8079 -1.1471
10987TIP3   OH254451   3.352   2.807   6.138  0.0591 -0.0928  0.2369
10987TIP3    H154452   3.306   2.790   6.056 -0.5303 -0.9840  0.7427
10987TIP3    H254453   3.321   2.738   6.197  0.0658  0.8657  1.3654
10988TIP3   OH254454   5.297   3.896   3.628  0.0462  0.1828  0.3757
10988TIP3    H154455   5.227   3.871   3.568  0.7245 -1.5381  0.2750
10988TIP3    H254456   5.259   3.885   3.715  0.0142 -0.2057  0.3129
10989TIP3   OH254457   5.814   3.072   3.278  0.0787 -0.0893  0.0472
10989TIP3    H154458   5.868   3.006   3.234 -2.0382 -1.6706 -0.2742
10989TIP3    H254459   5.727   3.062   3.238 -0.5755  2.0586  0.8869
10990TIP3   OH254460   3.326   2.007  17.032 -0.0054  0.4709 -0.4742
10990TIP3    H154461   3.234   1.986  17.015  0.2442 -0.5500 -0.6134
10990TIP3    H254462   3.373   1.975  16.955  0.5992 -0.1154  0.1281
10991TIP3   OH254463   2.562   5.386  13.573  0.3275 -0.1912  0.3868
10991TIP3    H154464   2.625   5.386  13.502 -0.2333  0.9445 -0.1309
10991TIP3    H254465   2.477   5.379  13.529 -0.0012  0.1718  0.9572
10992TIP3   OH254466   4.013   3.220  15.952  0.5041 -0.4753 -0.5853
10992TIP3    H154467   4.055   3.219  16.038  1.9699 -0.8258 -1.3065
10992TIP3    H254468   3.931   3.268  15.967  1.8942  1.6361  0.4776
10993TIP3   OH254469   3.154   1.367   4.279 -0.0276  0.5571  0.0132
10993TIP3    H154470   3.089   1.364   4.350  0.1623  2.0022  0.2489
10993TIP3    H254471   3.238   1.366   4.325  0.1369 -0.6908 -0.2772
10994TIP3   OH254472   3.787   4.131   4.650 -0.2874  0.0614  0.0608
10994TIP3    H154473   3.759   4.047   4.686  1.3247 -0.2491  0.6208
10994TIP3    H254474   3.865   4.111   4.598  0.3735  1.2596  0.5537
10995TIP3   OH254475   6.703   2.470  13.317  0.2647 -0.3709 -0.3210
10995TIP3    H154476   6.630   2.500  13.262  0.1807  0.4527  0.2264
10995TIP3    H254477   6.766   2.433  13.255  1.9832  4.1417 -1.4790
10996TIP3   OH254478   0.921   3.535  14.320 -0.4008  0.0184 -0.2938
10996TIP3    H154479   0.915   3.545  14.415  0.4790  1.6182 -0.3858
10996TIP3    H254480   0.844   3.580  14.286 -0.8258 -0.7342 -0.3324
10997TIP3   OH254481   3.430   5.549  11.818  0.6730  0.0726  0.3473
10997TIP3    H154482   3.510   5.496  11.821  0.6941 -0.0349 -1.3350
10997TIP3    H254483   3.413   5.560  11.724 -0.8090  0.8232  0.6967
10998TIP3   OH254484   1.325   6.379   4.264  0.0679 -0.3591  0.1421
10998TIP3    H154485   1.234   6.373   4.292 -0.3453  0.6084 -0.9741
10998TIP3    H254486   1.334   6.313   4.196  0.0267  0.0038 -0.2152
10999TIP3   OH254487   0.815   1.405   0.099 -0.3358  0.3324 -0.1016
10999TIP3    H154488   0.781   1.413   0.010 -0.4786  1.0061  0.0059
10999TIP3    H254489   0.910   1.409   0.090 -0.3639  0.8757 -0.1854
11000TIP3   OH254490   1.703   3.062   4.173  0.4748 -0.1676 -0.0682
11000TIP3    H154491   1.648   3.079   4.097  0.3734 -1.8031 -0.3875
11000TIP3    H254492   1.685   3.134   4.233 -1.7335 -0.4820 -0.3247
11001TIP3   OH254493   6.164   4.714   3.646 -0.3939  0.1912  0.1131
11001TIP3    H154494   6.140   4.634   3.693 -0.0260  0.4996  0.8342
11001TIP3    H254495   6.113   4.710   3.565 -2.4647  0.5505  1.3623
11002TIP3   OH254496   4.107   6.393   4.423  0.4032  0.1196 -0.0724
11002TIP3    H154497   4.154   6.461   4.376 -1.6293  0.0866 -2.2528
11002TIP3    H254498   4.165   6.317   4.421  0.6027  0.3099 -2.0304
11003TIP3   OH254499   5.913   1.662   2.624 -0.5383 -0.1560  0.0868
11003TIP3    H154500   5.930   1.651   2.530 -1.4786 -1.8304  0.0877
11003TIP3    H254501   6.000   1.668   2.663 -0.0954 -1.2091 -0.7099
11004TIP3   OH254502   3.263   4.431   0.633  0.5917  0.0072  0.0104
11004TIP3    H154503   3.247   4.349   0.680  2.3201 -0.1842  0.2902
11004TIP3    H254504   3.316   4.405   0.557  0.4108  0.7556 -0.3775
11005TIP3   OH254505   2.419   5.157   2.271  0.1474  0.7892  0.1288
11005TIP3    H154506   2.337   5.136   2.226 -0.0856  0.9254  0.4914
11005TIP3    H254507   2.420   5.100   2.348  2.1429 -1.9306 -1.7894
11006TIP3   OH254508   5.885   2.182   6.909  0.0306 -0.6234  0.3650
11006TIP3    H154509   5.793   2.175   6.934 -0.5679 -1.7941 -1.9797
11006TIP3    H254510   5.921   2.095   6.926  0.0824 -0.8755 -0.9815
11007TIP3   OH254511   0.525   4.796  14.784  0.2722  0.0432 -0.3655
11007TIP3    H154512   0.507   4.811  14.876 -0.6182  0.8728 -0.6691
11007TIP3    H254513   0.548   4.703  14.778 -0.9893 -0.3328  0.4720
11008TIP3   OH254514   2.483   0.297  15.630 -0.0221 -0.6273 -0.2409
11008TIP3    H154515   2.562   0.351  15.637 -0.8662  0.3680  2.4533
11008TIP3    H254516   2.412   0.353  15.662 -1.4747 -2.1974 -0.6160
11009TIP3   OH254517   2.293   6.809  12.458 -0.3897 -0.0840  0.3925
11009TIP3    H154518   2.351   6.865  12.407 -1.5866  0.3305 -0.5405
11009TIP3    H254519   2.305   6.837  12.548  1.2749 -0.3815  0.2850
11010TIP3   OH254520   2.376   5.064  12.161  0.4608  0.6651 -0.2303
11010TIP3    H154521   2.408   5.146  12.124  2.2524  1.1584  2.2864
11010TIP3    H254522   2.406   5.065  12.252 -0.6116 -2.1865  0.2150
11011TIP3   OH254523   0.118   2.076  11.442  0.2819 -0.0373 -0.2113
11011TIP3    H154524   0.197   2.030  11.415  0.4150  0.1842 -0.1946
11011TIP3    H254525   0.111   2.151  11.383 -0.4499 -0.6017 -0.8491
11012TIP3   OH254526   4.480   6.039   4.767  0.1850  0.5470 -0.2412
11012TIP3    H154527   4.404   6.043   4.709 -0.3457  0.0369  0.4118
11012TIP3    H254528   4.455   5.977   4.835 -0.0200  2.7280  1.7269
11013TIP3   OH254529   0.718   3.412   0.427  0.0643 -0.6603 -0.9723
11013TIP3    H154530   0.644   3.405   0.367 -1.2231 -0.0982  0.4998
11013TIP3    H254531   0.727   3.324   0.464 -1.3088 -0.2208  0.4714
11014TIP3   OH254532   2.930   0.208   5.870  0.1151 -0.0639 -0.0433
11014TIP3    H154533   2.926   0.204   5.966 -1.3651  1.4308 -0.0192
11014TIP3    H254534   3.004   0.153   5.847  1.2428  0.5327  2.0395
11015TIP3   OH254535   3.022   6.059  11.643  0.6511  0.6203  0.5287
11015TIP3    H154536   2.969   6.033  11.568  2.2010  0.2797 -0.4550
11015TIP3    H254537   2.962   6.052  11.718 -0.9288  1.0660 -0.6718
11016TIP3   OH254538   3.880   5.470   1.866 -0.3522  0.1044  0.3698
11016TIP3    H154539   3.911   5.558   1.845 -0.1920 -0.0533 -0.0613
11016TIP3    H254540   3.843   5.437   1.783 -2.3179  0.5603  1.0376
11017TIP3   OH254541   0.635   1.208  16.439  0.1034  0.0984  0.3867
11017TIP3    H154542   0.540   1.223  16.437  0.3750  1.9508  0.7277
11017TIP3    H254543   0.653   1.185  16.530 -0.0533 -0.5016  0.2658
11018TIP3   OH254544   5.256   0.881   2.561  0.3125  0.2531  0.3450
11018TIP3    H154545   5.169   0.873   2.523  0.4557  0.2904 -0.0019
11018TIP3    H254546   5.267   0.974   2.578  0.6143  0.3677 -0.4252
11019TIP3   OH254547   2.683   4.116  12.789  0.5834 -0.0076 -0.0426
11019TIP3    H154548   2.659   4.203  12.758 -0.4568  0.8443  2.9960
11019TIP3    H254549   2.776   4.107  12.767  0.9419  2.2453  0.4175
11020TIP3   OH254550   3.541   3.633  12.467  0.2060 -0.2671  0.6755
11020TIP3    H154551   3.589   3.550  12.467  0.3200 -0.2721 -2.5719
11020TIP3    H254552   3.452   3.609  12.440  0.1473  0.5982  0.0876
11021TIP3   OH254553   4.583   5.580  14.807  0.1118  0.1350 -0.2638
11021TIP3    H154554   4.490   5.598  14.791  0.3053  2.7917  1.2751
11021TIP3    H254555   4.629   5.642  14.751  0.9330  0.0980  0.3718
11022TIP3   OH254556   3.155   4.045   4.763  0.7526 -0.0975  0.0578
11022TIP3    H154557   3.151   4.119   4.824  2.6427 -0.0728  0.1841
11022TIP3    H254558   3.163   4.084   4.677  2.2491 -0.1385  0.1660
11023TIP3   OH254559   5.951   1.274  12.548  0.1073 -0.2616  0.0465
11023TIP3    H154560   6.011   1.244  12.480  1.4421  0.8123  0.7241
11023TIP3    H254561   5.971   1.220  12.624  0.8994  0.7149  0.5564
11024TIP3   OH254562   0.354   1.290   1.477 -0.3189  0.5227  0.4582
11024TIP3    H154563   0.356   1.265   1.569 -0.9237  0.2757  0.4120
11024TIP3    H254564   0.415   1.363   1.470  1.5255 -0.9724  0.5919
11025TIP3   OH254565   1.168   6.678   5.902  0.0976  1.0077  0.4052
11025TIP3    H154566   1.236   6.745   5.905  1.4743 -0.4153  1.4234
11025TIP3    H254567   1.183   6.624   5.979  1.7769 -3.1584 -2.6390
11026TIP3   OH254568   2.466   2.686   0.668 -0.3157  0.0948  0.5314
11026TIP3    H154569   2.560   2.671   0.661 -0.3226  0.3961 -0.2681
11026TIP3    H254570   2.426   2.614   0.618 -0.5159 -0.1033  0.9717
11027TIP3   OH254571   6.023   4.453   5.908  0.3816  0.0787  0.3613
11027TIP3    H154572   6.055   4.535   5.946 -0.7566  0.6728  0.0776
11027TIP3    H254573   5.930   4.471   5.889  0.5845 -0.6815 -1.3651
11028TIP3   OH254574   0.189   6.196  11.318  0.0173 -0.2031  0.2292
11028TIP3    H154575   0.263   6.162  11.268  1.5785  0.5669  2.0188
11028TIP3    H254576   0.200   6.161  11.406 -1.7688 -0.0892  0.5273
11029TIP3   OH254577   2.903   1.139  13.683  0.3930  0.5247  0.1413
11029TIP3    H154578   2.932   1.188  13.607  1.5975  1.4869  1.2242
11029TIP3    H254579   2.808   1.156  13.687  0.2475  0.1606 -1.3421
11030TIP3   OH254580   2.356   1.763   5.197  0.4045  0.1841  0.2823
11030TIP3    H154581   2.381   1.805   5.115  1.8206  0.6794  0.9654
11030TIP3    H254582   2.437   1.727   5.232 -0.0738  0.5235  1.7812
11031TIP3   OH254583   0.430   1.208   6.479  0.3875  0.2171  0.1940
11031TIP3    H154584   0.500   1.221   6.543  0.8655 -0.7707 -0.1263
11031TIP3    H254585   0.459   1.135   6.426 -0.5516  0.2804 -0.4190
11032TIP3   OH254586   3.005   2.078  15.660  0.3799 -0.6200  0.4006
11032TIP3    H154587   3.066   2.152  15.660 -0.0002 -0.3047  0.6402
11032TIP3    H254588   3.007   2.046  15.750  0.8445 -1.1478  0.1999
11033TIP3   OH254589   5.984   3.866  10.652  0.3575 -0.1044 -0.2804
11033TIP3    H154590   5.922   3.804  10.689 -0.3894  0.0681 -1.2232
11033TIP3    H254591   5.973   3.945  10.705  0.8064 -0.5422  0.4713
11034TIP3   OH254592   4.063   5.309  15.808 -0.2018 -0.8812 -0.6450
11034TIP3    H154593   3.968   5.308  15.823  0.3114  0.2202  2.9688
11034TIP3    H254594   4.092   5.223  15.839  0.5612  0.5898  3.0138
11035TIP3   OH254595   2.756   1.047  12.061  0.2449  0.4253  0.2610
11035TIP3    H154596   2.704   0.999  11.997  1.1054 -0.3895  0.1639
11035TIP3    H254597   2.810   1.106  12.008  0.3274  0.3746  0.2885
11036TIP3   OH254598   2.883   4.950   0.713  0.2938  0.3534  0.3538
11036TIP3    H154599   2.894   4.976   0.805 -2.2656  0.8934  0.5477
11036TIP3    H254600   2.893   4.855   0.715  0.3160  0.3632  1.1918
11037TIP3   OH254601   0.645   2.525   6.048  0.3493  0.6975 -0.4564
11037TIP3    H154602   0.693   2.543   5.968  0.5829  0.1829 -0.4337
11037TIP3    H254603   0.703   2.556   6.118  1.3169 -1.2850 -0.3477
11038TIP3   OH254604   1.046   5.368   1.746  0.2573 -0.1714  0.0506
11038TIP3    H154605   1.090   5.314   1.811  0.8998 -0.3424 -0.5232
11038TIP3    H254606   0.967   5.399   1.790 -0.2445 -1.7643  0.3260
11039TIP3   OH254607   6.595   2.934   4.483  0.7861  0.0398  0.0256
11039TIP3    H154608   6.625   2.941   4.393 -3.9134 -0.3726 -1.7189
11039TIP3    H254609   6.553   2.847   4.488  1.6297 -0.2635  2.8358
11040TIP3   OH254610   6.773   0.495  12.125 -0.2163 -0.0970 -0.1391
11040TIP3    H154611   6.842   0.440  12.163 -1.1373 -0.9329  0.3322
11040TIP3    H254612   6.817   0.578  12.105  0.6460 -0.1965  1.2791
11041TIP3   OH254613   2.870   0.996   3.940 -0.1112 -0.3228  0.1508
11041TIP3    H154614   2.947   1.033   3.982  0.0427  1.4899 -1.6558
11041TIP3    H254615   2.872   1.030   3.851 -1.0391 -3.1825 -1.0189
11042TIP3   OH254616   2.720   2.890   4.718 -0.2801 -0.5807 -0.0105
11042TIP3    H154617   2.770   2.957   4.764 -0.2472 -0.3806 -0.3391
11042TIP3    H254618   2.776   2.864   4.645  0.6714 -2.5389  1.3717
11043TIP3   OH254619   2.327   0.148  14.172 -0.7692  0.1475  0.3632
11043TIP3    H154620   2.393   0.163  14.240 -0.9011  3.3735 -0.1401
11043TIP3    H254621   2.375   0.104  14.102  0.3374  0.5247  0.8667
11044TIP3   OH254622   0.891   4.848  16.338 -0.3226  0.4075  0.3507
11044TIP3    H154623   0.954   4.865  16.267  1.2184 -0.0024  1.5939
11044TIP3    H254624   0.847   4.932  16.352  1.0392  1.1098  0.5145
11045TIP3   OH254625   0.057   3.933  16.804  0.0506  0.4425 -0.2351
11045TIP3    H154626   0.005   3.996  16.854  0.2003 -1.5722  2.5490
11045TIP3    H254627   0.139   3.978  16.787 -0.4980  1.6289  0.1994
11046TIP3   OH254628   4.009   4.731   3.635 -0.3772 -0.2740  0.1954
11046TIP3    H154629   3.957   4.653   3.619  0.0777 -0.0036 -2.9155
11046TIP3    H254630   4.077   4.729   3.567 -0.7322  3.1304 -0.3638
11047TIP3   OH254631   1.500   2.363  16.996 -0.1947  0.2349 -0.0114
11047TIP3    H154632   1.481   2.450  17.031  0.0125  0.5818 -0.7497
11047TIP3    H254633   1.593   2.366  16.974  0.1024 -0.5729  1.0846
11048TIP3   OH254634   4.216   2.592  13.755  0.4580 -0.5719  0.0262
11048TIP3    H154635   4.237   2.597  13.661  0.0559  0.4307 -0.0183
11048TIP3    H254636   4.300   2.606  13.799  1.0120 -3.0572 -0.1852
11049TIP3   OH254637   6.738   4.975   5.604  0.1146 -0.1472  0.5833
11049TIP3    H154638   6.739   4.912   5.677  1.6605 -0.6352  0.1542
11049TIP3    H254639   6.799   5.043   5.631 -0.9666  0.8008  0.6952
11050TIP3   OH254640   2.804   1.597   3.720 -0.2931  0.0914  0.8382
11050TIP3    H154641   2.800   1.662   3.649 -0.0577  0.4991  1.1924
11050TIP3    H254642   2.786   1.648   3.799 -2.6616 -0.7419  0.8665
11051TIP3   OH254643   4.169   5.012  14.322 -0.0729  0.0352  0.6598
11051TIP3    H154644   4.097   4.960  14.357  0.7515  0.4156  3.0505
11051TIP3    H254645   4.129   5.097  14.300 -0.5983 -0.1989  0.7044
11052TIP3   OH254646   0.781   2.564  17.019 -0.1470  0.3269 -0.7339
11052TIP3    H154647   0.734   2.604  16.946 -1.3001 -0.6896 -0.5655
11052TIP3    H254648   0.867   2.543  16.983 -0.5022  0.3776 -1.6293
11053TIP3   OH254649   6.407   2.870   2.144  0.7528  0.2186 -0.0899
11053TIP3    H154650   6.384   2.808   2.213  0.1746  0.9276  0.3600
11053TIP3    H254651   6.423   2.815   2.067  0.4443 -0.5023  0.3525
11054TIP3   OH254652   6.631   0.286   2.469  0.1822  0.6495  0.1562
11054TIP3    H154653   6.669   0.280   2.557 -0.3305 -0.7246  0.2937
11054TIP3    H254654   6.543   0.250   2.478 -0.5348  2.1562 -0.5483
11055TIP3   OH254655   0.503   2.117   2.265 -0.1261 -0.3042 -0.5625
11055TIP3    H154656   0.424   2.160   2.296  0.4458  2.8635 -3.1973
11055TIP3    H254657   0.571   2.144   2.327 -0.1039  1.3484 -1.2680
11056TIP3   OH254658   4.557   3.496   0.173  0.0613 -0.1670 -0.4181
11056TIP3    H154659   4.589   3.580   0.205 -1.8888 -0.8520  3.5492
11056TIP3    H254660   4.464   3.511   0.154  0.3548 -0.7303 -2.4530
11057TIP3   OH254661   0.403   0.970   5.331  0.6763  0.6332 -0.2100
11057TIP3    H154662   0.479   0.913   5.340  0.2147  0.1616  0.6809
11057TIP3    H254663   0.435   1.057   5.357  1.8355  1.1602 -3.2207
11058TIP3   OH254664   2.003   3.410  10.958 -0.0174  0.3290 -0.1856
11058TIP3    H154665   1.922   3.443  10.918 -0.9334 -0.9531  0.6094
11058TIP3    H254666   2.069   3.421  10.890 -1.2337 -0.3082 -1.4882
11059TIP3   OH254667   1.384   5.368  13.878  0.1013 -0.1015 -0.1923
11059TIP3    H154668   1.314   5.393  13.938  1.3635  1.0545  0.8435
11059TIP3    H254669   1.418   5.451  13.844 -0.1285 -0.7224 -1.9786
11060TIP3   OH254670   3.871   4.071  10.980 -0.0521 -0.4254 -0.5795
11060TIP3    H154671   3.833   4.120  11.054 -0.2772  1.0818 -1.6625
11060TIP3    H254672   3.872   4.134  10.908  2.1488 -1.2109 -1.2900
11061TIP3   OH254673   5.098   1.413   4.046  0.2439 -0.7234 -0.3030
11061TIP3    H154674   5.157   1.338   4.058 -0.4335 -1.0203  1.2986
11061TIP3    H254675   5.139   1.464   3.976  2.9289 -0.4077  1.3970
11062TIP3   OH254676   5.199   3.513   4.375  0.1411 -0.3609  0.4442
11062TIP3    H154677   5.240   3.427   4.367  0.0572 -0.3985  0.4161
11062TIP3    H254678   5.123   3.509   4.316 -0.1590 -0.4467  0.8366
11063TIP3   OH254679   4.736   5.320  16.192 -0.9698 -0.1199 -0.0303
11063TIP3    H154680   4.704   5.277  16.112 -1.3412  0.9015 -0.4386
11063TIP3    H254681   4.785   5.396  16.160 -0.8714  0.1246  0.7063
11064TIP3   OH254682   0.611   1.724  12.172  0.1682 -0.0529  0.4392
11064TIP3    H154683   0.629   1.811  12.208 -1.4602  0.2943  0.4418
11064TIP3    H254684   0.547   1.739  12.103 -0.0211 -1.2416  0.3452
11065TIP3   OH254685   6.065   2.993   5.459  0.0557 -0.2341  0.3767
11065TIP3    H154686   6.085   2.973   5.550 -0.4220 -1.0796  0.2981
11065TIP3    H254687   6.008   3.070   5.463  0.9731  0.4440  0.7264
11066TIP3   OH254688   1.899   6.684   3.599  0.1723  0.2521  0.1221
11066TIP3    H154689   1.826   6.745   3.608  1.4131  1.7950 -0.1717
11066TIP3    H254690   1.857   6.598   3.593 -1.6123  1.1026  0.0528
11067TIP3   OH254691   5.017   1.984   0.831  0.3252 -0.3610 -0.1789
11067TIP3    H154692   5.041   2.064   0.877  1.4228 -0.4697 -0.5562
11067TIP3    H254693   5.100   1.944   0.807 -0.2262 -0.7681 -1.4467
11068TIP3   OH254694   2.294   2.246   5.878 -0.2395  0.4574 -0.1234
11068TIP3    H154695   2.262   2.333   5.852  0.9345  0.5097 -1.4119
11068TIP3    H254696   2.288   2.193   5.799  0.2515 -0.2966  0.3399
11069TIP3   OH254697   5.791   0.241  11.321 -0.5159 -0.1704  0.3799
11069TIP3    H154698   5.763   0.296  11.249 -0.6213 -0.5400  0.1357
11069TIP3    H254699   5.859   0.185  11.283 -0.4736 -0.2710  0.6024
11070TIP3   OH254700   5.390   0.683  12.838 -0.1606  0.0484  0.4633
11070TIP3    H154701   5.432   0.604  12.870 -0.5218 -0.0533  0.6879
11070TIP3    H254702   5.376   0.736  12.917 -0.0113  0.2895  0.3281
11071TIP3   OH254703   4.233   2.088  10.608 -0.0873  0.7494  0.0599
11071TIP3    H154704   4.180   2.166  10.621  0.2785  1.0298 -0.1188
11071TIP3    H254705   4.322   2.121  10.595  0.4685  0.1901  2.2639
11072TIP3   OH254706   1.004   0.536  15.857 -0.2168 -0.8390 -0.4521
11072TIP3    H154707   0.929   0.575  15.902  0.5368 -0.1212  0.1962
11072TIP3    H254708   1.062   0.507  15.928  1.3690  1.0467 -0.9401
11073TIP3   OH254709   4.701   3.470  16.068 -0.1720  0.1882 -0.2708
11073TIP3    H154710   4.673   3.507  16.151  0.2686  0.5636 -0.2841
11073TIP3    H254711   4.628   3.487  16.008  0.4088  1.8733 -0.5210
11074TIP3   OH254712   0.446   5.420  11.135  0.2381  0.1667 -0.1929
11074TIP3    H154713   0.395   5.363  11.077  0.6223 -1.6030  1.1334
11074TIP3    H254714   0.401   5.504  11.132 -0.0063 -0.0235 -2.6677
11075TIP3   OH254715   2.998   6.120  16.250 -0.1465 -0.1258 -0.0005
11075TIP3    H154716   3.038   6.034  16.263 -1.3306 -0.8602 -1.0760
11075TIP3    H254717   2.922   6.120  16.308  1.1404  1.1139  1.7376
11076TIP3   OH254718   0.567   2.661  12.494 -0.5519  0.3313 -0.9703
11076TIP3    H154719   0.636   2.727  12.503 -1.0200  0.9120 -1.5985
11076TIP3    H254720   0.613   2.577  12.498  0.3510  0.7260 -2.6086
11077TIP3   OH254721   1.502   5.023   4.074  0.2633 -0.5155  0.1469
11077TIP3    H154722   1.515   5.067   3.989 -0.4714  1.1407  0.8678
11077TIP3    H254723   1.589   5.022   4.113  0.2014  0.8270  0.3563
11078TIP3   OH254724   2.040   5.960  12.667  0.2504  0.1479  0.4000
11078TIP3    H154725   2.120   6.010  12.653  1.2042 -1.2345  0.7909
11078TIP3    H254726   1.992   5.966  12.585  1.6287 -0.5388 -0.4770
11079TIP3   OH254727   5.476   3.028   2.807 -0.2565  0.0051 -0.5088
11079TIP3    H154728   5.396   3.067   2.773 -1.0319 -0.9931  0.1339
11079TIP3    H254729   5.479   3.055   2.899 -0.4876 -0.9301 -0.2189
11080TIP3   OH254730   0.668   0.972   1.819 -0.0038  0.0568 -0.2462
11080TIP3    H154731   0.649   1.024   1.741  0.9524 -1.5832 -1.6166
11080TIP3    H254732   0.760   0.988   1.838  0.1947 -0.8182 -0.4429
11081TIP3   OH254733   2.237   4.308   2.587  0.8579  0.4134 -0.1134
11081TIP3    H154734   2.329   4.291   2.603  1.0222  2.3367  1.1787
11081TIP3    H254735   2.196   4.222   2.582  2.6464 -0.4315 -0.2597
11082TIP3   OH254736   1.726   0.069   5.908 -0.0484  0.4448  0.2820
11082TIP3    H154737   1.745   0.125   5.983 -2.1473  1.2224  0.2706
11082TIP3    H254738   1.789  -0.003   5.914  2.8833  2.8927  0.1704
11083TIP3   OH254739   6.298   1.804   4.794 -0.4640 -0.3586  0.3964
11083TIP3    H154740   6.390   1.819   4.817 -0.3407 -1.0705  0.3721
11083TIP3    H254741   6.265   1.747   4.863 -1.2690  1.0139  1.1677
11084TIP3   OH254742   3.549   1.040   2.163  0.1705  0.1759 -0.2547
11084TIP3    H154743   3.604   0.968   2.194 -0.7184  0.0976  1.2003
11084TIP3    H254744   3.611   1.100   2.121  1.6801  0.9831  2.9651
11085TIP3   OH254745   3.445   6.572  15.104 -0.5308  0.3821 -0.2632
11085TIP3    H154746   3.449   6.592  15.010  0.7459 -1.6261 -0.6676
11085TIP3    H254747   3.522   6.615  15.141 -1.5057  1.9025  0.0237
11086TIP3   OH254748   2.502   1.778  14.287  0.2505  0.1227  0.1936
11086TIP3    H154749   2.428   1.828  14.252  0.2515  0.8535  1.2267
11086TIP3    H254750   2.467   1.734  14.364  0.3594 -1.1681 -0.4769
11087TIP3   OH254751   2.162   6.342  11.045 -0.5791 -0.1419 -0.5332
11087TIP3    H154752   2.141   6.298  10.962  1.1747 -1.2760 -0.4117
11087TIP3    H254753   2.105   6.300  11.109 -0.4449 -0.7604 -0.8117
11088TIP3   OH254754   4.534   5.175   2.531 -0.4525  0.0729  0.5197
11088TIP3    H154755   4.482   5.144   2.457 -0.9158  2.6256 -0.2714
11088TIP3    H254756   4.544   5.099   2.588 -0.0337 -1.9436 -2.1862
11089TIP3   OH254757   1.301   2.927  16.311 -0.0435  0.1214 -0.0226
11089TIP3    H154758   1.329   2.871  16.240  0.1157 -0.2540  0.3341
11089TIP3    H254759   1.373   2.989  16.324 -0.2509  0.4604 -0.4644
11090TIP3   OH254760   3.444   6.767  11.182 -0.4815  0.4053  0.6927
11090TIP3    H154761   3.365   6.715  11.165 -1.4182  2.0093 -0.0039
11090TIP3    H254762   3.476   6.734  11.266 -0.7572 -1.6320  0.0120
11091TIP3   OH254763   0.062   5.868   0.568  0.4289 -0.2574  0.6509
11091TIP3    H154764   0.095   5.779   0.572  1.1739 -0.0375 -0.3214
11091TIP3    H254765   0.016   5.873   0.484  0.6655  0.3543  0.5543
11092TIP3   OH254766   0.167   4.174   2.610  0.0703 -0.6748  0.0489
11092TIP3    H154767   0.130   4.261   2.596 -4.1049 -2.4548 -0.9171
11092TIP3    H254768   0.144   4.153   2.701 -0.0301 -1.2122 -0.0972
11093TIP3   OH254769   5.256   2.973  11.404  0.6362  0.0248 -0.3073
11093TIP3    H154770   5.247   3.060  11.364 -0.3176 -0.8832 -2.1079
11093TIP3    H254771   5.350   2.955  11.402  0.8911  1.1991  0.4887
11094TIP3   OH254772   3.961   4.445  13.467  0.3586 -0.3706 -0.2495
11094TIP3    H154773   3.916   4.392  13.532 -0.1686  0.1546 -0.1814
11094TIP3    H254774   3.971   4.387  13.392  0.4351 -0.7933  0.0864
11095TIP3   OH254775   3.931   5.945  14.892 -0.3298 -0.2008 -0.4157
11095TIP3    H154776   3.980   5.875  14.935  0.1202  0.9187  0.9702
11095TIP3    H254777   3.841   5.935  14.924 -0.3607 -0.4270 -0.5764
11096TIP3   OH254778   5.423   3.887   0.894  0.2131 -0.1837 -0.4012
11096TIP3    H154779   5.421   3.960   0.832 -0.2951  0.2967  0.1691
11096TIP3    H254780   5.456   3.925   0.975 -0.1423 -0.5623 -0.0759
11097TIP3   OH254781   3.637   3.851   1.349 -0.2080  0.3033 -0.6140
11097TIP3    H154782   3.585   3.891   1.279 -1.5018 -0.3852 -0.0529
11097TIP3    H254783   3.711   3.811   1.303 -1.2481 -0.4760 -1.6513
11098TIP3   OH254784   0.864   4.994   2.182 -0.8008 -0.0204  0.3153
11098TIP3    H154785   0.903   5.065   2.132  0.8547  0.6639  2.4765
11098TIP3    H254786   0.776   5.026   2.204 -0.8650  0.4267 -0.5999
11099TIP3   OH254787   0.913   6.748   3.249 -0.4309  0.5640 -0.0521
11099TIP3    H154788   0.853   6.817   3.278 -0.5037  0.7840 -0.7160
11099TIP3    H254789   0.862   6.697   3.186 -0.5417 -0.4090  0.8106
11100TIP3   OH254790   3.480   4.192  11.798  0.1477  0.4722 -0.2128
11100TIP3    H154791   3.434   4.262  11.751  0.7825  0.6554 -0.5663
11100TIP3    H254792   3.512   4.233  11.878 -0.8522  0.1844  0.3451
11101TIP3   OH254793   3.623   0.694  11.096  0.1055 -0.2477  0.3968
11101TIP3    H154794   3.590   0.622  11.150  1.1154 -0.4975  0.6917
11101TIP3    H254795   3.574   0.771  11.126  0.4075 -0.4482  1.4279
11102TIP3   OH254796   5.655   0.179  12.216 -0.7499  0.5454  0.0764
11102TIP3    H154797   5.616   0.197  12.301  1.4003 -0.7532  1.3900
11102TIP3    H254798   5.750   0.182  12.232 -0.2944  1.7035 -2.5803
11103TIP3   OH254799   6.284   3.386  17.217  0.0913 -0.2378 -0.0306
11103TIP3    H154800   6.374   3.386  17.248 -0.5985  0.5725  2.0563
11103TIP3    H254801   6.253   3.297  17.233  0.2546 -0.2771  0.0653
11104TIP3   OH254802   3.591   4.930   5.666 -0.3972  0.0384  0.2668
11104TIP3    H154803   3.592   4.838   5.640 -0.0124  0.0631  0.2017
11104TIP3    H254804   3.498   4.948   5.684 -0.4203 -0.4665  0.6551
11105TIP3   OH254805   0.288   0.174   3.181  0.0400  0.5808  0.1052
11105TIP3    H154806   0.276   0.084   3.212 -0.0517 -0.1645 -2.0099
11105TIP3    H254807   0.225   0.225   3.232 -1.8984 -1.0143 -0.5925
11106TIP3   OH254808   4.484   0.438  13.814 -0.5963 -0.1394  0.1730
11106TIP3    H154809   4.574   0.469  13.807 -1.0652  0.9140 -1.4525
11106TIP3    H254810   4.476   0.408  13.905  1.1695  0.4313  0.5357
11107TIP3   OH254811   6.419   6.712   2.289 -0.1425 -0.3251  0.1446
11107TIP3    H154812   6.337   6.760   2.303  1.0511  1.8638 -0.1826
11107TIP3    H254813   6.434   6.717   2.194  1.7215  1.6107  0.5046
11108TIP3   OH254814   0.541   0.826  13.989 -0.6195  0.0000 -0.2827
11108TIP3    H154815   0.628   0.863  13.974 -0.1769 -1.0246 -0.2850
11108TIP3    H254816   0.492   0.898  14.030  0.5624  0.2468  0.7698
11109TIP3   OH254817   0.753   2.418   0.679 -0.4792 -0.5536 -0.6140
11109TIP3    H154818   0.677   2.475   0.672 -0.0070  0.4430  1.9929
11109TIP3    H254819   0.774   2.396   0.588 -3.5979 -0.5187 -1.4059
11110TIP3   OH254820   2.860   4.116  13.711 -0.0986 -0.7148  0.4841
11110TIP3    H154821   2.951   4.096  13.734 -0.2618 -0.0827  1.7505
11110TIP3    H254822   2.860   4.209  13.693 -0.0531 -1.1381 -1.8215
11111TIP3   OH254823   6.305   3.693   5.142  0.1396 -0.5977  0.3142
11111TIP3    H154824   6.355   3.614   5.127  0.5813 -0.0181 -1.3383
11111TIP3    H254825   6.231   3.687   5.082 -0.4930 -0.3254  1.0529
11112TIP3   OH254826   2.848   5.543  17.273 -0.1162  0.3340 -0.6448
11112TIP3    H154827   2.907   5.503  17.338  0.3811  0.2843 -1.1234
11112TIP3    H254828   2.870   5.636  17.275 -1.4774  0.6429  0.6798
11113TIP3   OH254829   5.168   3.036   6.073 -0.0941  0.0877 -0.4881
11113TIP3    H154830   5.197   3.104   6.012 -0.8402  0.2976 -0.6181
11113TIP3    H254831   5.099   2.989   6.026  0.8697 -1.1758 -0.6369
11114TIP3   OH254832   6.392   5.704   3.941 -0.1878  0.0701 -0.0828
11114TIP3    H154833   6.345   5.734   4.019  1.1062 -0.3067  0.8648
11114TIP3    H254834   6.460   5.645   3.975  1.8742  1.6862 -1.2814
11115TIP3   OH254835   5.512   3.771  15.831  0.7535  0.0582  0.1704
11115TIP3    H154836   5.465   3.801  15.753  0.8237 -2.1038 -0.7435
11115TIP3    H254837   5.488   3.679  15.839  1.2092  0.1048  2.3930
11116TIP3   OH254838   5.158   1.005  12.052  0.2237  0.2399 -0.1060
11116TIP3    H154839   5.148   0.998  11.957  1.4495  0.8730 -0.2959
11116TIP3    H254840   5.120   1.090  12.074 -0.3188 -0.0302  0.0207
11117TIP3   OH254841   0.880   0.537  14.260 -0.2030  0.1109 -0.0324
11117TIP3    H154842   0.859   0.629  14.245  0.5510  0.1108 -1.1248
11117TIP3    H254843   0.962   0.539  14.309 -0.8847  0.0443  1.1163
11118TIP3   OH254844   0.985   6.552   2.041  0.3805 -0.0087  0.1395
11118TIP3    H154845   0.939   6.597   2.112  0.1086  2.1212 -1.3415
11118TIP3    H254846   1.011   6.468   2.078 -1.0099  0.4991  2.3046
11119TIP3   OH254847   1.104   3.608   1.759  0.2538  0.1210  0.3410
11119TIP3    H154848   1.102   3.629   1.665  0.8606 -1.8550 -0.1513
11119TIP3    H254849   1.191   3.634   1.788  0.4077 -0.1344  0.1198
11120TIP3   OH254850   5.030   1.564   2.849 -0.6721  0.6000  0.0115
11120TIP3    H154851   4.960   1.620   2.882  0.5547  1.5211  1.1034
11120TIP3    H254852   5.053   1.508   2.923 -1.2655 -0.7619 -0.7973
11121TIP3   OH254853   2.858   1.771   6.300  0.7233  0.5246 -0.5600
11121TIP3    H154854   2.880   1.810   6.384  0.7237  1.1185 -0.8379
11121TIP3    H254855   2.934   1.715   6.280  0.4787 -0.0544  0.0922
11122TIP3   OH254856   2.379   4.620   5.068  0.7767  0.5017 -0.0535
11122TIP3    H154857   2.286   4.612   5.091  0.8377  2.2592  0.8500
11122TIP3    H254858   2.415   4.533   5.084 -0.2764  0.3641  1.6434
11123TIP3   OH254859   2.875   5.612  13.182  0.1520 -0.4644 -0.4164
11123TIP3    H154860   2.901   5.629  13.272 -0.5466 -1.5954  0.0128
11123TIP3    H254861   2.937   5.661  13.129 -0.5059  1.6294  0.7195
11124TIP3   OH254862   0.507   1.071  17.038  0.7737  0.4943  0.1138
11124TIP3    H154863   0.499   0.977  17.057  0.0431  0.2062 -1.4737
11124TIP3    H254864   0.578   1.076  16.973 -0.0858  0.8779 -0.8148
11125TIP3   OH254865   0.547   6.195  16.600 -0.3715 -0.2273  0.0722
11125TIP3    H154866   0.573   6.279  16.562 -2.4564  0.1942 -0.4954
11125TIP3    H254867   0.528   6.139  16.524 -2.3033 -0.1112  0.4419
11126TIP3   OH254868   1.143   2.455  11.646 -0.3419  0.0513 -0.5932
11126TIP3    H154869   1.052   2.460  11.615 -0.3182  0.5287 -0.5985
11126TIP3    H254870   1.171   2.547  11.651  0.0043 -0.0768 -0.1930
11127TIP3   OH254871   2.797   2.698  15.044  0.1204  0.1950  0.0487
11127TIP3    H154872   2.828   2.670  15.130  1.1828  0.9846 -0.0774
11127TIP3    H254873   2.808   2.621  14.988 -0.6104 -0.3320  0.6131
11128TIP3   OH254874   5.323   2.010   2.490 -0.0334 -0.7511  0.2680
11128TIP3    H154875   5.337   2.103   2.472 -0.2202 -0.9491 -0.9969
11128TIP3    H254876   5.232   2.005   2.520 -1.3768 -0.9641 -3.4809
11129TIP3   OH254877   4.491   4.471   0.469  0.4707  0.0664  0.0760
11129TIP3    H154878   4.549   4.496   0.397 -0.2892 -0.9296 -0.8962
11129TIP3    H254879   4.417   4.428   0.426  0.2386 -0.9667  1.4965
11130TIP3   OH254880   4.730   3.755   6.742 -0.4327 -0.3732  0.1631
11130TIP3    H154881   4.671   3.692   6.701  2.0205 -2.2102 -0.6866
11130TIP3    H254882   4.812   3.708   6.752  0.7536  1.9421  1.8030
11131TIP3   OH254883   0.880   6.096   0.149 -0.4991 -0.6968 -0.8894
11131TIP3    H154884   0.975   6.105   0.158 -0.4352 -1.2983 -0.9736
11131TIP3    H254885   0.845   6.168   0.201 -0.0540 -1.8010  0.9550
11132TIP3   OH254886   5.831   5.742  14.272  0.0458 -0.1224 -0.0176
11132TIP3    H154887   5.906   5.765  14.218 -0.4564 -0.3994 -0.8598
11132TIP3    H254888   5.839   5.796  14.350 -1.5509  3.5984 -2.2649
11133TIP3   OH254889   3.365   5.477  13.854 -0.0883  0.0983 -0.2255
11133TIP3    H154890   3.371   5.520  13.939 -0.0796  2.1247 -1.2195
11133TIP3    H254891   3.286   5.512  13.814 -0.6194 -1.5695 -0.6720
11134TIP3   OH254892   2.988   6.474   4.939 -0.4000  0.1298 -0.3247
11134TIP3    H154893   3.016   6.508   5.024  1.6633  1.5813 -1.5452
11134TIP3    H254894   2.914   6.530   4.914 -1.8131 -1.0743  1.0205
11135TIP3   OH254895   2.526   3.188   4.170  0.0219 -0.3409  0.2733
11135TIP3    H154896   2.439   3.181   4.131 -0.1672 -0.5941  0.7365
11135TIP3    H254897   2.550   3.280   4.158 -0.4894 -0.1709  0.5302
11136TIP3   OH254898   2.594   2.364   0.562 -0.1550 -0.2105 -0.4788
11136TIP3    H154899   2.598   2.294   0.496 -0.3006 -0.2039 -0.4942
11136TIP3    H254900   2.682   2.366   0.599  0.1675  0.3453 -1.2506
11137TIP3   OH254901   6.264   3.924   4.168 -0.1511  0.9349  0.4438
11137TIP3    H154902   6.228   4.001   4.213 -0.4067  0.4349  1.1080
11137TIP3    H254903   6.203   3.908   4.096 -1.5752 -0.2247  1.8766
11138TIP3   OH254904   2.088   5.775   0.151 -1.0640 -0.5571 -0.0085
11138TIP3    H154905   2.000   5.808   0.167 -0.1038  1.6724  0.9497
11138TIP3    H254906   2.112   5.730   0.232 -0.7541  0.2048  0.3319
11139TIP3   OH254907   0.130   0.316   3.366 -0.1754  0.2551 -0.2343
11139TIP3    H154908   0.115   0.379   3.436  0.1084 -0.4354  0.4572
11139TIP3    H254909   0.050   0.319   3.313  0.4684  2.3425 -1.1342
11140TIP3   OH254910   4.530   2.951  13.206 -0.3811  0.0236 -0.3484
11140TIP3    H154911   4.618   2.915  13.222 -0.4351 -0.4648 -1.0660
11140TIP3    H254912   4.533   3.039  13.242  1.4381  1.1900 -3.1435
11141TIP3   OH254913   3.186   4.324   4.962 -0.1707 -0.5199 -0.1973
11141TIP3    H154914   3.190   4.258   5.031  1.2900 -0.4495 -0.2002
11141TIP3    H254915   3.199   4.407   5.007 -0.8649 -0.3317 -0.3414
11142TIP3   OH254916   2.607   4.279  14.628 -0.2577  0.3172 -0.4345
11142TIP3    H154917   2.673   4.331  14.676  0.1150 -0.6278  0.0798
11142TIP3    H254918   2.630   4.291  14.536  0.4058  0.2887 -0.2742
11143TIP3   OH254919   6.250   3.768  11.731 -0.3394 -0.2213  0.3157
11143TIP3    H154920   6.206   3.833  11.785 -0.3098 -0.1570  0.2623
11143TIP3    H254921   6.203   3.770  11.647 -1.0335 -1.0494  0.6823
11144TIP3   OH254922   3.190   3.583   3.614 -1.0876 -0.3855  0.1412
11144TIP3    H154923   3.185   3.635   3.534 -2.0004  0.2978  0.6338
11144TIP3    H254924   3.154   3.640   3.682 -2.4436 -1.7897  0.6343
11145TIP3   OH254925   4.414   4.228   5.160 -0.4635  0.3235  0.6047
11145TIP3    H154926   4.328   4.195   5.186 -0.5034  1.1354  1.5024
11145TIP3    H254927   4.463   4.150   5.134 -2.6772  0.1532 -3.5639
11146TIP3   OH254928   2.207   4.409   4.425 -0.5589  0.1939  0.1438
11146TIP3    H154929   2.250   4.473   4.481  0.3764 -0.4544  0.1824
11146TIP3    H254930   2.271   4.391   4.356 -0.9052 -0.5175  0.0025
11147TIP3   OH254931   0.203   5.281  10.969 -0.0613 -0.1657  0.0403
11147TIP3    H154932   0.190   5.261  10.876  0.2890  0.4363 -0.1394
11147TIP3    H254933   0.115   5.288  11.004 -0.2032 -2.2741  0.1694
11148TIP3   OH254934   3.337   1.129   3.502 -0.3501  0.3964 -0.1969
11148TIP3    H154935   3.294   1.192   3.560  1.0398 -0.6320  2.0647
11148TIP3    H254936   3.322   1.044   3.545 -0.5318 -0.5750 -2.1500
11149TIP3   OH254937   1.908   6.095   4.242  0.1242 -0.1265  0.3752
11149TIP3    H154938   1.945   6.148   4.312  1.5911  0.1462 -0.5928
11149TIP3    H254939   1.930   6.005   4.265 -0.2917 -0.1245  0.7896
11150TIP3   OH254940   3.541   6.806  11.482 -0.2216  0.6294 -0.2384
11150TIP3    H154941   3.473   6.799  11.549 -0.2826  0.6647 -0.2965
11150TIP3    H254942   3.623   6.794  11.530 -0.2478  0.9805 -0.1041
11151TIP3   OH254943   0.699   4.440   1.092  0.0975 -0.1140  0.5064
11151TIP3    H154944   0.698   4.407   1.182  0.8019 -0.7069  0.2971
11151TIP3    H254945   0.769   4.391   1.049 -0.1791  0.2336 -0.3439
11152TIP3   OH254946   5.929   0.948   1.629  0.4275  0.6269  0.1062
11152TIP3    H154947   5.943   0.947   1.724 -1.2812  0.4862  0.3672
11152TIP3    H254948   5.894   0.861   1.609  1.3560  0.4423 -0.7542
11153TIP3   OH254949   5.922   6.099   5.177  0.0482  0.3776  0.1560
11153TIP3    H154950   5.902   6.192   5.162 -1.0891  0.1007 -0.0718
11153TIP3    H254951   6.006   6.085   5.134  1.6167  1.9952  2.5758
11154TIP3   OH254952   4.338   5.160  13.737  0.3650 -0.1149  0.4330
11154TIP3    H154953   4.266   5.143  13.797 -0.5802  1.3458 -0.2394
11154TIP3    H254954   4.295   5.191  13.657  1.6196 -1.7072 -0.8682
11155TIP3   OH254955   5.743   3.595   4.806 -0.3419 -0.1201  0.1008
11155TIP3    H154956   5.668   3.644   4.773  0.3315  0.0908 -1.1630
11155TIP3    H254957   5.804   3.593   4.733 -1.1166 -4.5113 -0.5955
11156TIP3   OH254958   0.180   2.026   0.643  0.2613 -0.6489  0.2975
11156TIP3    H154959   0.214   2.105   0.685  1.3851 -1.2078  0.4403
11156TIP3    H254960   0.238   2.013   0.568 -1.8501  0.4846 -1.6229
11157TIP3   OH254961   0.264   3.893   4.290 -0.1050  0.3909  0.3494
11157TIP3    H154962   0.307   3.943   4.221 -2.4038  0.8437 -0.8013
11157TIP3    H254963   0.307   3.807   4.286  1.2023  1.0538 -0.2615
11158TIP3   OH254964   1.193   5.856  14.162  0.1885  0.1625  1.1988
11158TIP3    H154965   1.266   5.888  14.215 -0.4228 -0.3349  2.3470
11158TIP3    H254966   1.163   5.933  14.114  0.9513  0.5488  1.3228
11159TIP3   OH254967   2.710   5.902   0.628  0.1048  0.0568 -0.2939
11159TIP3    H154968   2.801   5.931   0.641 -0.4393  1.7393 -0.0596
11159TIP3    H254969   2.716   5.807   0.618  1.8956  0.1541 -0.3180
11160TIP3   OH254970   1.056   3.037   0.387 -0.1547  0.1937  0.0112
11160TIP3    H154971   1.113   2.964   0.412  1.5778  0.6891 -2.3926
11160TIP3    H254972   1.107   3.115   0.406 -0.5050  0.6688 -0.9690
11161TIP3   OH254973   3.849   5.530   0.924  0.6860  0.2816 -0.3839
11161TIP3    H154974   3.921   5.468   0.913  1.2026  0.2476  2.8273
11161TIP3    H254975   3.772   5.475   0.941  0.6550  0.4520  0.0179
11162TIP3   OH254976   0.522   6.804  12.156 -0.3987 -0.6187 -0.4047
11162TIP3    H154977   0.603   6.833  12.199 -0.1316 -0.2204 -1.1683
11162TIP3    H254978   0.533   6.709  12.148 -1.4230 -1.0339  2.3986
11163TIP3   OH254979   5.154   4.179   2.977  0.3177  0.6628  0.0766
11163TIP3    H154980   5.226   4.190   3.039 -1.0302  2.4064  1.3883
11163TIP3    H254981   5.091   4.124   3.022  0.6765 -0.6174 -0.9551
11164TIP3   OH254982   2.924   3.468   2.100 -0.3786  0.3236  0.2910
11164TIP3    H154983   2.862   3.406   2.136  1.3198 -1.3598  0.3781
11164TIP3    H254984   2.977   3.417   2.039  0.1611  1.9865 -0.6822
11165TIP3   OH254985   2.463   4.537  13.688  0.6533  0.4451  0.3847
11165TIP3    H154986   2.462   4.583  13.604  1.3381  0.2052  0.2440
11165TIP3    H254987   2.555   4.535  13.713  0.4384  0.6138  1.2001
11166TIP3   OH254988   2.385   5.923   5.173  0.0162 -1.1663  0.7074
11166TIP3    H154989   2.310   5.969   5.134  1.5609 -0.1387 -1.1052
11166TIP3    H254990   2.379   5.835   5.137 -1.5682 -1.7670  2.3222
11167TIP3   OH254991   2.903   5.982  10.460 -0.2963  0.2852 -0.7259
11167TIP3    H154992   2.863   5.897  10.445  0.6583 -0.0450 -1.4718
11167TIP3    H254993   2.914   5.987  10.555  0.4110 -0.7846 -0.7410
11168TIP3   OH254994   1.594   6.770   4.125  0.4878  0.1095 -0.1262
11168TIP3    H154995   1.582   6.736   4.036 -1.6108  1.1423 -0.2796
11168TIP3    H254996   1.531   6.720   4.178  0.5746  0.6350  0.4788
11169TIP3   OH254997   0.084   0.043   6.882  0.2657 -0.1710 -0.2034
11169TIP3    H154998   0.094   0.130   6.920  0.7837  0.1807 -1.1364
11169TIP3    H254999  -0.009   0.038   6.859 -0.2225 -0.6697  1.7614
11170TIP3   OH255000   5.194   5.802  11.208 -0.0541  0.5245  0.0202
11170TIP3    H155001   5.105   5.767  11.206  0.3171 -0.5536  1.4855
11170TIP3    H255002   5.247   5.737  11.161  0.5526 -0.6871  2.3172
11171TIP3   OH255003   2.449   1.427   2.162 -0.0530  0.2726 -0.0535
11171TIP3    H155004   2.482   1.354   2.215  0.7196  0.9424  0.4004
11171TIP3    H255005   2.526   1.464   2.121 -0.2443  1.6880  0.8118
11172TIP3   OH255006   4.969   3.974  11.251  0.6164 -0.3010 -0.2907
11172TIP3    H155007   5.043   4.011  11.299 -0.4551  1.3390  0.1662
11172TIP3    H255008   4.950   4.039  11.183 -0.6383 -0.5221 -0.1648
11173TIP3   OH255009   4.832   0.178  11.857 -0.1726  0.3872  0.9736
11173TIP3    H155010   4.821   0.201  11.765  0.0509 -0.9252  0.6061
11173TIP3    H255011   4.894   0.105  11.856  0.3056  0.7655  2.2132
11174TIP3   OH255012   3.005   5.598  12.402 -0.1281  0.2578 -0.1615
11174TIP3    H155013   3.005   5.514  12.357 -3.5483  0.2763 -0.3356
11174TIP3    H255014   3.026   5.662  12.334  2.3489 -0.3799 -0.0560
11175TIP3   OH255015   4.047   0.021   2.497 -0.5553 -0.0860  0.3483
11175TIP3    H155016   4.035   0.106   2.540  0.3416  0.6174 -0.7457
11175TIP3    H255017   4.067   0.043   2.406  0.7914 -1.4261  0.2960
11176TIP3   OH255018   0.579   0.785   4.530  0.3677 -0.2615 -0.1575
11176TIP3    H155019   0.596   0.721   4.599 -0.2735  0.7440  0.9495
11176TIP3    H255020   0.661   0.833   4.521 -0.0936  0.8436  1.2397
11177TIP3   OH255021   1.757   0.899   0.911  0.3801 -0.7725  0.1512
11177TIP3    H155022   1.671   0.941   0.913  1.2103  1.0184 -0.0335
11177TIP3    H255023   1.740   0.807   0.932 -1.6391 -0.5781 -0.5341
11178TIP3   OH255024   2.770   1.922  16.799  0.4015 -0.4374 -0.0152
11178TIP3    H155025   2.845   1.961  16.755  1.7432 -1.5562  1.2679
11178TIP3    H255026   2.696   1.940  16.740  1.2311  2.6729 -0.2035
11179TIP3   OH255027   0.276   1.015   2.556 -0.0694  0.3813 -0.0384
11179TIP3    H155028   0.197   1.044   2.510 -0.5693  0.4133  0.8362
11179TIP3    H255029   0.305   0.937   2.509 -1.4479 -0.4775  0.5264
11180TIP3   OH255030   2.260   3.116  16.407 -0.0754 -0.3390  0.4867
11180TIP3    H155031   2.247   3.113  16.312 -2.5075  0.9835  0.7486
11180TIP3    H255032   2.190   3.173  16.439  2.2143  1.2537  2.8243
11181TIP3   OH255033   0.092   1.563  15.342  1.3407  0.3385  0.8677
11181TIP3    H155034   0.024   1.550  15.408  1.5998  1.5990  1.3802
11181TIP3    H255035   0.140   1.480  15.343  0.4757 -0.1806  1.2467
11182TIP3   OH255036   6.679   4.536   3.047 -0.3563  0.1646 -0.4804
11182TIP3    H155037   6.751   4.502   2.995 -0.0264  0.2227 -0.0657
11182TIP3    H255038   6.696   4.503   3.136 -0.5481  0.6262 -0.2719
11183TIP3   OH255039   1.136   3.786  12.144 -0.3616 -0.1509 -0.0627
11183TIP3    H155040   1.193   3.850  12.103 -0.7301  0.7978  0.8791
11183TIP3    H255041   1.123   3.819  12.233 -0.8616 -1.3334  0.3172
11184TIP3   OH255042   2.305   4.568   3.033 -0.0310  0.1189 -0.2701
11184TIP3    H155043   2.363   4.600   2.964  0.2574  0.7026  0.2398
11184TIP3    H255044   2.360   4.509   3.085 -0.1149  0.0510 -0.2589
11185TIP3   OH255045   4.597   0.152  13.512 -0.3076  0.0709  0.1256
11185TIP3    H155046   4.620   0.059  13.515  1.4829  0.5594  2.2704
11185TIP3    H255047   4.602   0.182  13.603  0.6570  2.6352 -0.7140
11186TIP3   OH255048   4.236   0.056  14.785  0.2730 -0.1352  0.4831
11186TIP3    H155049   4.156   0.027  14.742 -0.1189 -1.1917  1.8770
11186TIP3    H255050   4.301   0.058  14.715 -0.8589  0.2954 -0.5700
11187TIP3   OH255051   5.719   1.098  14.257 -1.0220 -0.0355  0.1036
11187TIP3    H155052   5.629   1.065  14.251 -0.7957 -0.9544  1.5713
11187TIP3    H255053   5.734   1.112  14.351 -0.2751  1.9624 -0.2737
11188TIP3   OH255054   1.099   5.258   6.230  0.4139  0.2053  0.2822
11188TIP3    H155055   1.059   5.313   6.298  0.4156  1.8353 -1.0029
11188TIP3    H255056   1.026   5.234   6.173  0.6534  0.0489  0.0400
11189TIP3   OH255057   6.214   2.265   4.628 -0.5174 -0.8550  0.3507
11189TIP3    H155058   6.273   2.248   4.701 -0.2087 -1.8820 -0.1274
11189TIP3    H255059   6.271   2.300   4.559 -1.0076  1.3747  1.0237
11190TIP3   OH255060   2.248   2.884  15.548  0.7032 -0.1168  0.1814
11190TIP3    H155061   2.232   2.956  15.609 -0.4149  1.3967 -1.8330
11190TIP3    H255062   2.190   2.813  15.579 -0.0161  0.7043  0.7502
11191TIP3   OH255063   6.480   0.885  12.344  0.1662  0.4954 -0.1486
11191TIP3    H155064   6.412   0.939  12.304 -0.8060  0.3187  1.2434
11191TIP3    H255065   6.485   0.808  12.288  0.3872  1.2573 -1.1972
11192TIP3   OH255066   0.177   3.711  13.185  0.3871  0.0718 -0.0688
11192TIP3    H155067   0.097   3.743  13.144 -0.9745 -2.4484  0.5187
11192TIP3    H255068   0.200   3.633  13.135  2.7680  1.0118 -0.5223
11193TIP3   OH255069   2.986   1.997   2.961  0.1949 -0.0365  0.4391
11193TIP3    H155070   2.937   2.021   2.883 -0.3411  0.5711  0.9611
11193TIP3    H255071   2.981   1.901   2.964  0.4167 -0.0744 -0.3938
11194TIP3   OH255072   4.552   1.811   5.260  0.1657  0.1116 -0.2526
11194TIP3    H155073   4.488   1.740   5.267  0.6666 -0.4207 -0.9929
11194TIP3    H255074   4.504   1.884   5.222 -1.1759  1.2375  3.3382
11195TIP3   OH255075   3.892   0.632   1.403  0.6426  0.3783  0.4223
11195TIP3    H155076   3.841   0.712   1.390  0.1161  0.0543  0.4768
11195TIP3    H255077   3.827   0.561   1.401  0.9979  0.0194  1.1713
11196TIP3   OH255078   6.159   2.120   3.611  0.0385  0.0098  0.2119
11196TIP3    H155079   6.137   2.164   3.693 -0.9710 -0.9988  0.4822
11196TIP3    H255080   6.254   2.134   3.602  0.1075  0.3806  1.3929
11197TIP3   OH255081   1.433   3.423   1.940 -0.3144  0.0932 -0.3738
11197TIP3    H155082   1.397   3.494   1.887  0.2941  1.5139  1.0787
11197TIP3    H255083   1.524   3.416   1.912  0.2397  1.4122  1.0387
11198TIP3   OH255084   2.571   6.302   4.999 -0.3275  0.1966  0.0273
11198TIP3    H155085   2.663   6.299   4.972 -0.0410 -0.4727  0.9980
11198TIP3    H255086   2.528   6.358   4.936  0.6631  0.1116 -0.7296
11199TIP3   OH255087   1.295   4.183   3.830 -0.1338 -0.0538 -0.7751
11199TIP3    H155088   1.224   4.125   3.801  0.0402 -0.7413  0.1325
11199TIP3    H255089   1.312   4.240   3.755 -1.2047 -0.3143 -1.2242
11200TIP3   OH255090   6.241   5.400  15.440 -0.6504  0.4785  0.1599
11200TIP3    H155091   6.334   5.420  15.429 -0.6157  1.1705  1.7141
11200TIP3    H255092   6.240   5.318  15.490 -0.8711 -0.8788 -1.9641
11201TIP3   OH255093   3.032   0.329   2.156 -0.1144 -0.0891 -0.3998
11201TIP3    H155094   2.980   0.249   2.160 -0.4832  0.1231 -0.8565
11201TIP3    H255095   3.115   0.302   2.117  0.4834 -0.6080  1.1912
11202TIP3   OH255096   5.585   6.155   3.961  0.1220 -0.5859  0.1363
11202TIP3    H155097   5.522   6.154   3.890 -0.3608  0.6446  0.5240
11202TIP3    H255098   5.670   6.150   3.918 -0.0984  1.7753 -0.6707
11203TIP3   OH255099   4.438   1.039  14.417  0.6395 -0.2557  0.3756
11203TIP3    H155100   4.480   1.024  14.502  2.0037  0.1555 -0.1969
11203TIP3    H255101   4.369   1.103  14.435  1.1272  0.0658  1.1296
11204TIP3   OH255102   4.968   5.436  12.357  0.3056  0.1014 -0.6135
11204TIP3    H155103   4.954   5.523  12.319 -2.2531 -0.3488 -0.7842
11204TIP3    H255104   4.887   5.417  12.404  1.2087 -1.8087  0.2316
11205TIP3   OH255105   4.354   1.674   5.674  0.4511  0.0254  0.4348
11205TIP3    H155106   4.329   1.598   5.621 -1.3528  2.4954 -2.4002
11205TIP3    H255107   4.439   1.700   5.639  0.8874 -0.4137  1.1482
11206TIP3   OH255108   2.592   1.587  12.997  0.0870  0.4163 -0.3071
11206TIP3    H155109   2.570   1.654  13.063 -2.4993  0.6526 -1.3178
11206TIP3    H255110   2.535   1.608  12.923  1.7130 -0.8802 -1.9704
11207TIP3   OH255111   2.848   2.393   4.430 -0.3531  0.5372  0.2424
11207TIP3    H155112   2.817   2.444   4.504 -0.9091  0.5502 -0.0014
11207TIP3    H255113   2.911   2.451   4.385  2.3202 -0.5670  2.4296
11208TIP3   OH255114   2.869   2.701  11.864  0.5033  0.3004 -0.3022
11208TIP3    H155115   2.865   2.795  11.853  0.3467  0.0411 -2.6037
11208TIP3    H255116   2.948   2.674  11.816  0.1704 -0.8044 -0.2544
11209TIP3   OH255117   5.219   0.305  12.374 -0.5347  0.1470 -0.0501
11209TIP3    H155118   5.311   0.329  12.365 -0.5243  0.5947  1.1299
11209TIP3    H255119   5.219   0.231  12.434 -1.0839  1.5116  1.6930
11210TIP3   OH255120   5.043   4.101  15.059  0.2677  0.6770  0.0021
11210TIP3    H155121   5.072   4.018  15.099  2.3938  0.1996 -2.3671
11210TIP3    H255122   5.024   4.158  15.133  0.0908 -1.5081  1.6829
11211TIP3   OH255123   1.895   5.959  13.238  0.1435 -0.2109  0.3800
11211TIP3    H155124   1.869   5.996  13.323  0.5405 -0.3094  0.5477
11211TIP3    H255125   1.929   5.872  13.260 -0.5711 -0.5836  0.0126
11212TIP3   OH255126   1.574   6.209   1.025 -0.5654  0.1264  0.1311
11212TIP3    H155127   1.525   6.273   1.076 -0.5470  2.5811 -2.7951
11212TIP3    H255128   1.516   6.186   0.953  0.4494 -1.1932 -0.2824
11213TIP3   OH255129   4.833   0.493   3.373  1.0442 -0.5426  0.0956
11213TIP3    H155130   4.833   0.428   3.443  0.2542  0.2569  0.8577
11213TIP3    H255131   4.769   0.558   3.401 -0.1329 -0.7898 -1.9363
11214TIP3   OH255132   1.538   1.142  11.829 -0.3919  0.3500  0.0883
11214TIP3    H155133   1.533   1.161  11.922  0.6091 -1.8685  0.6315
11214TIP3    H255134   1.555   1.048  11.824  1.9339  0.8085 -2.2657
11215TIP3   OH255135   0.759   6.172  16.128  0.3793  0.0770 -0.3140
11215TIP3    H155136   0.693   6.210  16.070  1.4826  1.5966 -0.6068
11215TIP3    H255137   0.766   6.081  16.100  0.1000  0.5128 -1.8253
11216TIP3   OH255138   4.101   0.739  14.907  0.1517  0.1997 -0.1017
11216TIP3    H155139   4.014   0.701  14.910  0.0895  0.4487  2.4092
11216TIP3    H255140   4.086   0.834  14.901  0.2383  0.2627  0.6379
11217TIP3   OH255141   0.074   0.450   0.821 -0.0290 -0.3240 -0.3872
11217TIP3    H155142   0.060   0.393   0.897  2.4257  0.3040  0.5982
11217TIP3    H255143  -0.014   0.475   0.793 -0.9869 -0.3723  2.4220
11218TIP3   OH255144   3.687   6.394   5.153  0.3322 -0.4071 -0.2598
11218TIP3    H155145   3.665   6.388   5.246 -0.3156 -0.9907 -0.4485
11218TIP3    H255146   3.783   6.400   5.152  0.3888 -1.0664  0.4168
11219TIP3   OH255147   3.206   0.010   3.268  0.8267  0.0866 -0.1914
11219TIP3    H155148   3.233  -0.072   3.310  0.5914  0.4165  0.6119
11219TIP3    H255149   3.285   0.043   3.226  0.6663 -1.1315 -1.5054
11220TIP3   OH255150   0.744   5.084   5.022 -0.0627  0.2256 -0.3834
11220TIP3    H155151   0.718   4.992   5.026  1.0668 -0.0685  0.9256
11220TIP3    H255152   0.840   5.081   5.025 -0.0345  1.4481 -0.0137
11221TIP3   OH255153   0.587   6.607   5.545  0.5749 -0.0394 -0.6148
11221TIP3    H155154   0.664   6.598   5.601 -0.6846  1.0946  1.3374
11221TIP3    H255155   0.580   6.701   5.529  0.8478 -0.3365 -2.6168
11222TIP3   OH255156   5.062   3.664   3.268 -0.0693 -0.2450 -0.2179
11222TIP3    H155157   5.116   3.639   3.343 -0.2833 -4.0304 -1.2000
11222TIP3    H255158   5.124   3.702   3.205  0.7326 -0.5117  0.4059
11223TIP3   OH255159   4.911   3.699   1.057 -0.0259  0.1987 -0.1719
11223TIP3    H155160   4.907   3.611   1.019 -0.1430 -1.5192  3.5428
11223TIP3    H255161   4.823   3.734   1.047 -0.7212 -1.2433  0.7356
11224TIP3   OH255162   0.916   5.811  11.437 -0.7351  0.2806  0.4041
11224TIP3    H155163   0.956   5.776  11.358 -1.4439 -1.8262  0.9429
11224TIP3    H255164   0.823   5.816  11.416 -0.8601  0.1985  0.9302
11225TIP3   OH255165   1.281   6.579  15.436  0.4337 -0.0097 -0.4512
11225TIP3    H155166   1.301   6.564  15.528  1.0110  0.2331 -0.5340
11225TIP3    H255167   1.321   6.664  15.416 -0.3101  0.2885 -0.7347
11226TIP3   OH255168   3.185   3.594   2.547  0.3515 -0.2413  0.1103
11226TIP3    H155169   3.226   3.507   2.553  1.6551  0.4442  1.6087
11226TIP3    H255170   3.152   3.610   2.635 -1.5178  0.0373 -0.6137
11227TIP3   OH255171   1.672   4.685  15.777 -0.8504 -0.4454 -0.0257
11227TIP3    H155172   1.584   4.649  15.786 -1.0509 -0.4567 -1.6953
11227TIP3    H255173   1.699   4.658  15.689  0.6855 -0.1528  0.3443
11228TIP3   OH255174   4.956   6.034   3.717  0.0608  1.0061  0.1912
11228TIP3    H155175   4.973   6.122   3.749  1.0698  0.6452  0.6543
11228TIP3    H255176   5.017   5.978   3.765 -0.9828 -0.0324  0.3408
11229TIP3   OH255177   6.734   4.797  14.474  0.3481  0.1337  0.0236
11229TIP3    H155178   6.753   4.857  14.402 -0.5464 -0.8616 -1.0641
11229TIP3    H255179   6.734   4.710  14.434  0.5351 -0.5022  1.3645
11230TIP3   OH255180   2.495   0.128   1.937  0.3861  0.1997 -0.4527
11230TIP3    H155181   2.466   0.181   1.863  0.7062 -0.3206 -0.9554
11230TIP3    H255182   2.489   0.038   1.905 -1.8005 -0.2065  0.9504
11231TIP3   OH255183   4.021   1.368  16.413  0.0445 -0.2147 -0.1553
11231TIP3    H155184   4.095   1.415  16.453 -1.4311  1.7906  0.3103
11231TIP3    H255185   4.009   1.291  16.468  0.8070  0.2605  0.6897
11232TIP3   OH255186   1.224   2.078  14.581 -0.0602 -0.3312 -0.1178
11232TIP3    H155187   1.209   1.989  14.614  0.3047 -0.4471 -0.2613
11232TIP3    H255188   1.171   2.134  14.638 -1.2118 -0.7546 -0.7582
11233TIP3   OH255189   2.640   2.399   5.175 -0.3568 -0.5358  0.6748
11233TIP3    H155190   2.690   2.332   5.129  1.2314 -0.1738  1.8260
11233TIP3    H255191   2.566   2.418   5.117  0.1467 -1.9985 -0.4699
11234TIP3   OH255192   2.086   0.181   3.702  0.3469 -0.1628 -0.3841
11234TIP3    H155193   2.159   0.123   3.678  1.3078  0.0291  1.9217
11234TIP3    H255194   2.046   0.138   3.777 -0.8632  0.6158 -0.5831
11235TIP3   OH255195   2.485   5.318  16.196 -0.1150 -0.1308 -0.1738
11235TIP3    H155196   2.577   5.336  16.214  0.1906 -2.2496  0.5056
11235TIP3    H255197   2.449   5.402  16.168  1.8890  0.8414  0.0997
11236TIP3   OH255198   2.922   4.808  15.938  0.6981  0.0502 -0.0952
11236TIP3    H155199   2.990   4.809  15.871  1.5594 -1.2575  0.7180
11236TIP3    H255200   2.963   4.850  16.014 -0.1858  1.3054 -0.3157
11237TIP3   OH255201   2.089   4.079  11.466  0.3245 -0.2928  0.8323
11237TIP3    H155202   2.090   4.035  11.382 -2.7172  3.1380 -1.1589
11237TIP3    H255203   2.038   4.021  11.523  0.4672 -1.5701 -0.3275
11238TIP3   OH255204   3.822   5.267  15.898 -0.1660 -0.7562 -0.1561
11238TIP3    H155205   3.757   5.331  15.867 -1.0642 -1.6955 -0.2442
11238TIP3    H255206   3.826   5.281  15.992 -0.4419 -0.6302 -0.1610
11239TIP3   OH255207   3.465   1.717  16.237 -0.6087  0.2751 -0.2382
11239TIP3    H155208   3.489   1.628  16.215  1.5861  0.4391  1.3345
11239TIP3    H255209   3.514   1.771  16.174  1.1140  0.5022  1.2669
11240TIP3   OH255210   1.130   2.650  15.968 -0.7440 -0.2750  0.2464
11240TIP3    H155211   1.119   2.715  16.037 -0.7680  1.2575 -1.1963
11240TIP3    H255212   1.040   2.623  15.946 -0.7826 -0.1186  0.2096
11241TIP3   OH255213   1.967   6.389  13.349  0.3570  1.0179 -0.5518
11241TIP3    H155214   1.983   6.324  13.418 -1.2601  1.8810  0.6641
11241TIP3    H255215   1.878   6.371  13.320 -0.0679  2.6332 -0.2654
11242TIP3   OH255216   3.095   3.004   4.951  0.1727  0.2540  0.0549
11242TIP3    H155217   3.033   3.057   5.001  0.0896 -0.9831  1.2970
11242TIP3    H255218   3.163   3.065   4.924 -1.0943  1.4393 -0.5112
11243TIP3   OH255219   6.016   3.068  15.740 -0.1472  0.1548  0.2873
11243TIP3    H155220   6.101   3.086  15.779 -0.4963 -0.6111  1.4302
11243TIP3    H255221   5.954   3.081  15.812 -1.0066  0.8219 -0.5656
11244TIP3   OH255222   4.284   2.525   2.972 -0.6789  0.6917  0.3737
11244TIP3    H155223   4.221   2.536   2.901  1.0525  1.2161 -1.1154
11244TIP3    H255224   4.366   2.502   2.928 -0.4401 -2.6735  2.4410
11245TIP3   OH255225   5.101   6.174  14.932 -0.0219 -0.1286  0.2608
11245TIP3    H155226   5.012   6.205  14.915  0.2433  1.0531  0.9351
11245TIP3    H255227   5.100   6.148  15.024  0.1680 -0.6979  0.1019
11246TIP3   OH255228   6.240   1.356  14.743  0.0478  0.2779  0.6981
11246TIP3    H155229   6.252   1.336  14.835  1.8271  0.8033  0.5935
11246TIP3    H255230   6.318   1.322  14.700 -1.9912 -2.4760 -1.0448
11247TIP3   OH255231   3.072   2.913   5.348  0.2062 -0.1420 -0.3891
11247TIP3    H155232   3.129   2.837   5.358  0.1850 -0.1741 -0.5172
11247TIP3    H255233   3.123   2.975   5.296 -0.0931 -0.3968 -0.9887
11248TIP3   OH255234   3.588   1.460   3.248  0.5827 -0.3524  0.2997
11248TIP3    H155235   3.677   1.473   3.215  0.5025 -0.4143  0.0528
11248TIP3    H255236   3.598   1.399   3.321  0.6883 -0.7397 -0.0360
11249TIP3   OH255237   4.188   2.389   4.684  0.3498 -0.2334  0.6951
11249TIP3    H155238   4.142   2.406   4.766 -0.6093  0.5390  0.0005
11249TIP3    H255239   4.274   2.430   4.697  0.3480 -0.4559  1.4579
11250TIP3   OH255240   4.653   0.328  14.337  0.1677 -0.1408 -0.0896
11250TIP3    H155241   4.696   0.295  14.258 -0.0318  0.8280 -0.6004
11250TIP3    H255242   4.591   0.394  14.306 -0.0098  0.1512  0.8611
11251TIP3   OH255243   3.290   3.154  16.650 -0.3358  0.0964 -0.2446
11251TIP3    H155244   3.302   3.227  16.710  0.5426 -0.9218  0.8405
11251TIP3    H255245   3.224   3.185  16.587 -1.6390  1.0011  1.5142
11252TIP3   OH255246   6.601   4.566  16.410 -0.3592  0.5410  0.0750
11252TIP3    H155247   6.611   4.495  16.347 -1.2371  0.2156  0.2934
11252TIP3    H255248   6.515   4.604  16.391  0.1244  1.5828 -0.0733
11253TIP3   OH255249   0.743   2.119   1.610  0.3920 -0.0330  0.1233
11253TIP3    H155250   0.803   2.045   1.623 -0.8337 -1.0807 -0.0156
11253TIP3    H255251   0.665   2.079   1.572 -0.6348  1.2118  0.8916
11254TIP3   OH255252   5.280   0.889   6.403 -0.2232 -0.0089 -0.0153
11254TIP3    H155253   5.320   0.867   6.319 -0.9977 -0.8562 -0.1699
11254TIP3    H255254   5.298   0.982   6.415 -1.8955  0.6087 -2.1195
11255TIP3   OH255255   1.368   1.716  14.420  0.3422  0.3412 -0.1937
11255TIP3    H155256   1.295   1.755  14.373 -0.6324 -0.6169  0.4711
11255TIP3    H255257   1.326   1.667  14.492  1.6061 -0.5810 -0.0680
11256TIP3   OH255258   5.027   5.899   2.766 -0.1264  0.2047  0.2199
11256TIP3    H155259   5.097   5.886   2.830  0.3935  1.5918 -0.0438
11256TIP3    H255260   4.968   5.825   2.779  2.2123 -1.8504 -0.6496
11257TIP3   OH255261   0.178   5.601   0.270  0.0284 -0.3949 -0.4102
11257TIP3    H155262   0.215   5.602   0.182  0.8551  3.8639 -0.1513
11257TIP3    H255263   0.254   5.608   0.328 -0.6182 -1.2655  0.5588
11258TIP3   OH255264   4.859   3.287   3.264  0.4523 -0.0406 -0.2975
11258TIP3    H155265   4.921   3.337   3.211 -0.4792  0.8049 -0.6103
11258TIP3    H255266   4.822   3.351   3.325  0.5573 -0.7299  0.5019
11259TIP3   OH255267   5.193   5.700  11.755  0.5862 -0.6859  0.3126
11259TIP3    H155268   5.165   5.776  11.805  2.0151 -0.0872  0.2092
11259TIP3    H255269   5.153   5.625  11.800 -0.0589  0.0412  0.9507
11260TIP3   OH255270   6.492   2.953  12.262  0.4736  0.3010 -0.4485
11260TIP3    H155271   6.585   2.933  12.255  0.6817  0.9298  0.3745
11260TIP3    H255272   6.464   2.910  12.343  0.1741  0.5285 -0.4295
11261TIP3   OH255273   1.784   6.449  17.116 -0.2204 -0.2978 -0.6024
11261TIP3    H155274   1.798   6.541  17.138 -0.2538 -0.7725  1.5562
11261TIP3    H255275   1.866   6.420  17.077  0.2219  0.3088 -0.1203
11262TIP3   OH255276   6.176   2.970   5.756  0.2366 -0.2952 -0.5202
11262TIP3    H155277   6.167   2.876   5.771 -0.4526 -0.1351  0.1305
11262TIP3    H255278   6.118   3.010   5.821  1.2438  0.6111 -0.1657
11263TIP3   OH255279   6.265   3.147  12.402 -0.4164 -0.7355  0.2023
11263TIP3    H155280   6.211   3.087  12.350  0.6184 -0.3196 -1.3594
11263TIP3    H255281   6.342   3.163  12.349  1.4803 -1.6235  2.5838
11264TIP3   OH255282   6.107   1.369  17.282  0.1601 -0.4668  0.2646
11264TIP3    H155283   6.094   1.293  17.225  0.3551  0.9290 -1.6989
11264TIP3    H255284   6.175   1.420  17.239 -1.6520  2.0541  0.2595
11265TIP3   OH255285   6.415   1.096   0.228 -0.1507  0.0942  0.3832
11265TIP3    H155286   6.444   1.142   0.150 -0.8022  0.6848  0.4870
11265TIP3    H255287   6.351   1.032   0.196  2.9204 -2.8156 -0.1544
11266TIP3   OH255288   1.589   0.185  16.459 -0.1737 -0.0258  0.0557
11266TIP3    H155289   1.649   0.252  16.492 -0.5128  0.0664  0.4985
11266TIP3    H255290   1.557   0.141  16.538 -0.4760 -0.2557 -0.1961
11267TIP3   OH255291   6.549   3.161  12.103 -0.1811 -0.0566  0.1724
11267TIP3    H155292   6.518   3.095  12.164  0.2567  1.3044  1.9306
11267TIP3    H255293   6.603   3.220  12.156  0.0427  1.3047 -1.4811
11268TIP3   OH255294   2.072   6.720   1.709  0.2447  0.1089 -0.1836
11268TIP3    H155295   2.105   6.719   1.619  0.0643  0.1634 -0.2501
11268TIP3    H255296   2.060   6.813   1.730 -0.3645  0.0662 -0.3416
11269TIP3   OH255297   3.660   3.929  14.742  0.7322 -0.5667  0.1225
11269TIP3    H155298   3.611   3.850  14.718  0.9337 -0.9690  1.0154
11269TIP3    H255299   3.592   3.991  14.768  0.6202 -0.7099  0.1758
11270TIP3   OH255300   0.824   4.561   6.922  0.5335  0.0432 -0.1747
11270TIP3    H155301   0.876   4.619   6.978 -0.9414 -0.6252  1.9867
11270TIP3    H255302   0.889   4.513   6.871  1.9681  0.5536  1.1118
11271TIP3   OH255303   5.918   3.285  16.458 -0.2813 -0.4420 -0.1350
11271TIP3    H155304   5.876   3.357  16.504  1.3161 -0.1165  0.8512
11271TIP3    H255305   5.929   3.217  16.525 -0.4406 -1.0475 -0.7081
11272TIP3   OH255306   5.887   1.835  16.368 -0.2278 -0.5215  0.0431
11272TIP3    H155307   5.871   1.908  16.308 -0.1275  0.2573  0.9531
11272TIP3    H255308   5.871   1.872  16.455  0.3290 -1.4474  0.5427
11273TIP3   OH255309   2.497   5.924  14.954 -0.2703 -0.3035  0.5376
11273TIP3    H155310   2.414   5.968  14.936  0.4438  0.2585 -1.4669
11273TIP3    H255311   2.499   5.850  14.894  1.9552  1.3461 -1.4985
11274TIP3   OH255312   6.060   4.376   3.637 -0.5918 -0.9135 -0.0256
11274TIP3    H155313   6.061   4.313   3.709 -0.1442 -0.3989  0.4252
11274TIP3    H255314   6.113   4.335   3.568 -1.3945 -1.6076 -0.2480
11275TIP3   OH255315   3.740   6.284  10.450  0.2046  0.1334  0.2654
11275TIP3    H155316   3.749   6.298  10.355  0.2490 -2.0788 -0.0953
11275TIP3    H255317   3.706   6.366  10.483  2.4538  1.7835 -1.3235
11276TIP3   OH255318   2.840   6.212   1.169  0.2300  0.2760 -0.0530
11276TIP3    H155319   2.846   6.193   1.262  0.0630  2.1035  0.3385
11276TIP3    H255320   2.756   6.255   1.158 -0.1195 -0.6391 -1.1973
11277TIP3   OH255321   3.444   1.470  13.098 -0.1721  0.1043 -0.3064
11277TIP3    H155322   3.478   1.542  13.044 -1.6432  1.2681  0.2875
11277TIP3    H255323   3.412   1.512  13.177  0.3067 -1.4000  0.7106
11278TIP3   OH255324   5.710   2.823  12.916  0.4629  0.1035  0.2700
11278TIP3    H155325   5.714   2.904  12.865 -1.3648  0.7017  1.0315
11278TIP3    H255326   5.789   2.824  12.969  0.5243  1.3153  0.1604
11279TIP3   OH255327   3.394   1.476   1.833 -0.1768 -0.5836  0.1067
11279TIP3    H155328   3.470   1.531   1.853  0.4211 -1.8196  1.2955
11279TIP3    H255329   3.369   1.500   1.744 -0.4645  2.2633  0.8989
11280TIP3   OH255330   3.372   6.130  13.699 -0.0493 -0.9446  0.6174
11280TIP3    H155331   3.336   6.069  13.762 -2.1724 -0.3523 -0.0031
11280TIP3    H255332   3.389   6.209  13.750 -2.1376 -0.3306  0.4100
11281TIP3   OH255333   6.419   1.832  14.393 -0.2840 -0.0823  0.1289
11281TIP3    H155334   6.476   1.839  14.469  0.3110 -0.6010 -0.2643
11281TIP3    H255335   6.475   1.797  14.324 -2.1465 -4.9096  0.9105
11282TIP3   OH255336   1.818   3.523  12.702  0.2889  0.6476 -0.2029
11282TIP3    H155337   1.781   3.562  12.781 -0.0018  1.4716 -0.7373
11282TIP3    H255338   1.888   3.583  12.676  2.0707 -0.9447  0.8443
11283TIP3   OH255339   1.022   3.786   3.219  0.3346 -0.6050  0.3633
11283TIP3    H155340   0.954   3.754   3.278  0.4043 -0.8404  0.3164
11283TIP3    H255341   0.979   3.790   3.133  0.7698 -2.0912  0.0626
11284TIP3   OH255342   1.086   5.670  13.989  0.7535  0.1198 -0.7232
11284TIP3    H155343   1.147   5.729  14.033 -1.7029  2.2043  0.0779
11284TIP3    H255344   1.062   5.717  13.908 -0.9922  0.1058 -0.2318
11285TIP3   OH255345   2.933   3.074  16.692  0.4761  0.4285  0.1125
11285TIP3    H155346   2.840   3.095  16.684  1.1119  3.7700  0.9372
11285TIP3    H255347   2.974   3.118  16.618  1.2992 -2.1717 -1.0502
11286TIP3   OH255348   3.221   1.322  13.713 -0.0269  0.0085 -0.0474
11286TIP3    H155349   3.231   1.290  13.623 -2.0162  1.3997 -0.8161
11286TIP3    H255350   3.176   1.252  13.759 -0.5779 -0.0100 -0.6126
11287TIP3   OH255351   1.740   1.405  13.111  0.3420  0.0060 -0.1513
11287TIP3    H155352   1.699   1.486  13.081  0.0010 -0.1017  0.0340
11287TIP3    H255353   1.732   1.407  13.206  0.6861 -0.0562 -0.1191
11288TIP3   OH255354   4.983   2.368   4.050  0.3170  0.3150 -0.7151
11288TIP3    H155355   5.027   2.454   4.055  0.5055  0.1202  1.5037
11288TIP3    H255356   5.032   2.313   4.111  0.9703 -1.7476 -3.0696
11289TIP3   OH255357   6.017   3.673   5.018  0.3658 -0.6955  0.4947
11289TIP3    H155358   5.993   3.672   5.111 -0.5824 -3.0919  0.2485
11289TIP3    H255359   6.005   3.764   4.992 -0.7269 -0.2695  2.3829
11290TIP3   OH255360   5.231   3.415   2.695 -0.8383  0.0453  0.4570
11290TIP3    H155361   5.162   3.476   2.669  0.9009  1.9152  0.0676
11290TIP3    H255362   5.271   3.387   2.612 -0.2795  0.0109  0.7345
11291TIP3   OH255363   1.047   4.658   0.107 -0.2612 -0.3179  0.1936
11291TIP3    H155364   0.982   4.656   0.036 -0.0286  1.6119 -0.1015
11291TIP3    H255365   1.116   4.715   0.075  0.8025 -1.0193  1.1930
11292TIP3   OH255366   6.807   1.369   5.411 -0.3036 -0.3060  0.2003
11292TIP3    H155367   6.879   1.314   5.443 -1.0683 -0.9520  0.8450
11292TIP3    H255368   6.833   1.458   5.433  0.0314 -0.5862  0.9590
11293TIP3   OH255369   4.987   3.659   3.729  0.1844  0.0265  0.4085
11293TIP3    H155370   5.022   3.694   3.811  1.3701  0.6418 -0.3518
11293TIP3    H255371   5.064   3.643   3.675 -0.4972 -1.6102 -0.1148
11294TIP3   OH255372   4.426   6.356   2.452  0.1705  0.9021  0.4927
11294TIP3    H155373   4.334   6.368   2.476 -0.1229 -0.2254 -0.0122
11294TIP3    H255374   4.426   6.277   2.398  1.6072  0.2326  1.4643
11295TIP3   OH255375   2.318   4.149   1.155 -0.0882 -0.7350  0.2378
11295TIP3    H155376   2.247   4.184   1.210  0.3623 -0.7339  0.8255
11295TIP3    H255377   2.398   4.178   1.199  0.2790 -0.6093 -0.5101
11296TIP3   OH255378   3.247   3.609   1.381  0.2053  0.4528  0.1181
11296TIP3    H155379   3.309   3.629   1.451  1.3857  1.3544 -1.1366
11296TIP3    H255380   3.286   3.651   1.303 -0.7805 -1.0039 -1.1780
11297TIP3   OH255381   3.485   1.556   3.686  0.2622 -0.2751 -0.2220
11297TIP3    H155382   3.419   1.578   3.620  0.8675 -2.1191 -1.4588
11297TIP3    H255383   3.451   1.595   3.767  0.0670  3.0019 -1.8122
11298TIP3   OH255384   2.349   4.749  13.833  0.3343 -0.4498 -0.0678
11298TIP3    H155385   2.413   4.820  13.838 -0.3447  0.2132 -0.8016
11298TIP3    H255386   2.394   4.680  13.785 -0.2154  0.8047 -2.4600
11299TIP3   OH255387   4.400   1.490  13.383  0.2220  0.2242 -0.0120
11299TIP3    H155388   4.490   1.518  13.402  0.1846  0.2634  0.1109
11299TIP3    H255389   4.384   1.419  13.445  0.3917 -0.2218 -0.4794
11300TIP3   OH255390   6.697   3.031   5.889  0.0168 -0.4907 -0.2651
11300TIP3    H155391   6.791   3.018   5.872 -0.2987 -2.6305 -0.5824
11300TIP3    H255392   6.682   2.990   5.974 -0.9836 -1.9061 -1.1022
11301TIP3   OH255393   4.930   1.256  13.336  0.1488  0.5164  0.0066
11301TIP3    H155394   4.861   1.194  13.312 -0.3928  1.5616 -1.2181
11301TIP3    H255395   4.948   1.238  13.428  0.8713 -2.2551 -0.6457
11302TIP3   OH255396   4.067   0.088  16.155  0.4617 -0.5791 -0.5460
11302TIP3    H155397   4.099   0.169  16.115  0.8533 -0.5749 -0.2386
11302TIP3    H255398   3.991   0.114  16.206  1.1169 -0.2415  0.2752
11303TIP3   OH255399   5.747   1.645  12.099 -0.6568  0.6224  0.4065
11303TIP3    H155400   5.799   1.674  12.174  1.6052  0.6793 -1.1006
11303TIP3    H255401   5.725   1.554  12.118 -0.6006  0.8203  1.4041
11304TIP3   OH255402   0.183   3.803  16.359 -0.7416  0.2821 -0.0927
11304TIP3    H155403   0.098   3.827  16.395  0.4509  3.2464  0.8281
11304TIP3    H255404   0.240   3.878  16.377  1.7462 -1.1002 -1.8447
11305TIP3   OH255405   3.606   1.346   5.095  0.4333  0.0217 -0.0321
11305TIP3    H155406   3.553   1.421   5.123 -0.7834 -0.9461  0.3268
11305TIP3    H255407   3.609   1.353   5.000  1.7454  1.4507  0.0954
11306TIP3   OH255408   6.181   5.244   4.231  0.8771  0.1350  0.5305
11306TIP3    H155409   6.125   5.301   4.283 -2.8014 -2.1968 -0.6844
11306TIP3    H255410   6.216   5.300   4.162 -0.0779  1.6087  1.2252
11307TIP3   OH255411   1.777   0.701   2.728  0.6138 -0.1275 -0.4663
11307TIP3    H155412   1.776   0.620   2.777 -1.7792  0.0295 -0.2264
11307TIP3    H255413   1.734   0.765   2.784 -3.0890 -0.1851 -3.0833
11308TIP3   OH255414   3.188   1.524   5.652  0.0905 -0.0703 -0.2241
11308TIP3    H155415   3.143   1.506   5.734  0.9668 -1.4121 -0.0188
11308TIP3    H255416   3.258   1.459   5.649 -0.4492 -0.5784 -2.4310
11309TIP3   OH255417   4.417   3.856   4.382 -0.3743  0.3392  0.4652
11309TIP3    H155418   4.482   3.898   4.326  1.7129 -1.7015  1.2596
11309TIP3    H255419   4.402   3.919   4.453  0.3230  1.0806 -0.0426
11310TIP3   OH255420   0.812   0.530  16.670 -0.8510 -0.2681  0.0825
11310TIP3    H155421   0.723   0.566  16.673 -0.8572 -0.3842  1.5366
11310TIP3    H255422   0.823   0.488  16.755  1.1181  0.9822  0.4687
11311TIP3   OH255423   3.508   0.687  10.539  0.1113 -0.0652  0.1263
11311TIP3    H155424   3.421   0.697  10.501  0.5169 -0.9821 -1.0726
11311TIP3    H255425   3.536   0.600  10.512  0.5138 -0.6516  2.3477
11312TIP3   OH255426   5.594   4.473  11.064 -0.2836 -0.0330  0.1628
11312TIP3    H155427   5.677   4.431  11.088 -0.3501  0.7822  1.8680
11312TIP3    H255428   5.528   4.404  11.076 -0.1601  0.0235  1.2253
11313TIP3   OH255429   4.390   0.313   0.211  0.1582 -0.1217 -0.0849
11313TIP3    H155430   4.418   0.280   0.296 -0.8811  2.3054  1.2226
11313TIP3    H255431   4.418   0.404   0.209 -0.9304  0.2034 -1.8450
11314TIP3   OH255432   2.939   3.229   0.725  0.0366 -0.2464 -0.1749
11314TIP3    H155433   2.929   3.256   0.817 -0.9369 -0.2288 -0.2722
11314TIP3    H255434   3.031   3.245   0.705  0.6076 -1.6042  1.2350
11315TIP3   OH255435   2.114   1.495  14.715 -0.3783  0.4819 -0.4087
11315TIP3    H155436   2.038   1.520  14.768  1.1646  1.3469  1.4053
11315TIP3    H255437   2.124   1.402  14.731 -0.6332  0.5028 -0.1139
11316TIP3   OH255438   0.916   6.379   0.028  0.3996  0.0424  0.0177
11316TIP3    H155439   0.941   6.289   0.049  0.1940 -0.1598 -0.6029
11316TIP3    H255440   0.912   6.381  -0.067 -1.7538  0.1462  0.1022
11317TIP3   OH255441   3.576   3.453  15.784  0.4361 -0.4446 -0.0194
11317TIP3    H155442   3.518   3.415  15.850 -1.2068 -1.3532 -1.9135
11317TIP3    H255443   3.657   3.403  15.792  0.3934 -0.2774  1.5552
11318TIP3   OH255444   1.661   1.971   0.724 -0.7365  0.4760  0.1000
11318TIP3    H155445   1.604   1.912   0.675  1.3299  0.2421 -2.1606
11318TIP3    H255446   1.629   2.059   0.702 -0.5165  0.3368 -0.8067
11319TIP3   OH255447   4.697   5.094  11.133  0.4613  0.1006  0.3210
11319TIP3    H155448   4.762   5.090  11.202  2.6432  0.5691 -1.6300
11319TIP3    H255449   4.717   5.019  11.077 -2.0187 -0.9656  0.8074
11320TIP3   OH255450   1.369   6.561   2.986 -0.2294  0.5675  0.5475
11320TIP3    H155451   1.352   6.653   2.965  2.5645  0.8824 -0.4938
11320TIP3    H255452   1.441   6.536   2.928 -0.8757 -2.2604  0.8983
11321TIP3   OH255453   3.397   3.517   2.171  0.1178  0.5590 -0.1114
11321TIP3    H155454   3.316   3.490   2.213  0.0815 -0.9635 -1.1238
11321TIP3    H255455   3.448   3.436   2.162  0.2911  0.9211 -2.5933
11322TIP3   OH255456   3.645   5.366   2.028 -0.1179  0.9111  0.0529
11322TIP3    H155457   3.720   5.308   2.045  0.3737  0.9607 -1.8940
11322TIP3    H255458   3.679   5.434   1.970 -0.8573  2.8249  1.7909
11323TIP3   OH255459   3.931   6.765   0.679  0.1217 -0.3260 -0.2350
11323TIP3    H155460   3.864   6.764   0.747  0.7192 -0.3595  0.3635
11323TIP3    H255461   3.945   6.857   0.660 -0.3261 -0.3317 -0.5946
11324TIP3   OH255462   1.938   0.371  11.691  0.2529 -0.1745 -0.0644
11324TIP3    H155463   1.953   0.459  11.657 -1.3456  0.3534  0.5522
11324TIP3    H255464   1.999   0.361  11.763  1.9679 -0.3963 -1.5189
11325TIP3   OH255465   6.804   5.389   4.570 -0.1715 -0.1475  0.1965
11325TIP3    H155466   6.757   5.432   4.499 -1.1980 -1.0607  0.3052
11325TIP3    H255467   6.750   5.313   4.592  1.6177 -1.5088 -0.0075
11326TIP3   OH255468   4.317   1.585  14.219  0.3441  0.4686 -0.1387
11326TIP3    H155469   4.356   1.599  14.305  2.5566 -0.9791 -0.8563
11326TIP3    H255470   4.330   1.668  14.173 -0.5367  1.1316  0.7907
11327TIP3   OH255471   2.409   0.586   5.620  0.4162 -0.8324  0.0013
11327TIP3    H155472   2.503   0.565   5.622  0.9813  1.6452  1.0365
11327TIP3    H255473   2.392   0.624   5.707 -1.1058  0.5201 -0.8825
11328TIP3   OH255474   5.811   3.173  16.868 -0.9111  0.2980 -0.2729
11328TIP3    H155475   5.775   3.091  16.902 -2.8844  1.6268  0.9555
11328TIP3    H255476   5.771   3.241  16.922  0.8038  2.0845 -1.1714
11329TIP3   OH255477   0.805   0.843   3.091  0.0006 -1.1296  0.0848
11329TIP3    H155478   0.722   0.796   3.087 -0.4063 -0.3354 -1.3116
11329TIP3    H255479   0.846   0.826   3.006 -1.7613  3.9019 -1.9609
11330TIP3   OH255480   5.777   0.357  11.903  0.2078 -0.7751 -0.4805
11330TIP3    H155481   5.849   0.362  11.966  0.7520  1.2696 -1.2289
11330TIP3    H255482   5.810   0.300  11.833  1.1011  0.1080 -0.7975
11331TIP3   OH255483   5.746   3.040   2.733  0.3149  0.0038 -0.2530
11331TIP3    H155484   5.660   3.064   2.768 -0.4959 -1.6419 -1.0603
11331TIP3    H255485   5.808   3.068   2.801 -0.8442  1.2321  0.3220
11332TIP3   OH255486   4.163   4.709  16.441 -0.9396 -0.0644 -0.1350
11332TIP3    H155487   4.223   4.654  16.391 -0.8020  0.6531 -0.7599
11332TIP3    H255488   4.173   4.796  16.404  0.6876  0.9261  2.4714
11333TIP3   OH255489   1.019   5.072  12.959 -0.1514  0.2107  0.1137
11333TIP3    H155490   0.951   5.140  12.964  1.6418  1.9711  1.7277
11333TIP3    H255491   1.062   5.087  12.875 -1.0316 -0.1696 -0.4019
11334TIP3   OH255492   5.114   6.685  11.637  0.0926  0.5486 -0.2235
11334TIP3    H155493   5.209   6.678  11.646  0.0969  1.4457  0.4843
11334TIP3    H255494   5.089   6.605  11.591  1.1564  0.1726 -0.1760
11335TIP3   OH255495   1.569   3.242  15.878 -0.5009 -0.7047  0.1349
11335TIP3    H155496   1.592   3.280  15.794  0.5547 -0.8036  0.3787
11335TIP3    H255497   1.642   3.263  15.936 -0.5785 -1.8061  0.6628
11336TIP3   OH255498   5.521   5.094  15.118  0.3449  0.6239  0.1112
11336TIP3    H155499   5.572   5.016  15.140 -0.0032 -0.2036 -1.9348
11336TIP3    H255500   5.432   5.062  15.108  0.2587  1.2142 -1.0925
11337TIP3   OH255501   2.609   6.176  11.955  0.3010 -0.2709  0.5885
11337TIP3    H155502   2.517   6.155  11.971  0.1840 -1.1545 -1.0925
11337TIP3    H255503   2.607   6.259  11.906  0.4209 -0.0935  0.8813
11338TIP3   OH255504   4.558   6.348   1.687 -0.0597 -0.0989  0.1317
11338TIP3    H155505   4.568   6.383   1.776 -0.2566  0.0931  0.0785
11338TIP3    H255506   4.646   6.317   1.664 -0.1966 -0.9508  0.7222
11339TIP3   OH255507   5.773   0.898   2.772  0.4204 -0.0132 -0.1597
11339TIP3    H155508   5.832   0.851   2.831  0.8653 -0.7103 -1.1651
11339TIP3    H255509   5.756   0.981   2.817  1.9404  0.0719  0.2705
11340TIP3   OH255510   5.060   2.164   6.005  0.5537  0.3590 -0.0341
11340TIP3    H155511   5.005   2.229   6.047  0.2899 -0.9274  1.6603
11340TIP3    H255512   5.007   2.130   5.932 -1.2077 -1.3310  1.9689
11341TIP3   OH255513   1.477   4.916  14.533  0.1010 -0.2837 -0.1123
11341TIP3    H155514   1.487   4.998  14.582  0.0441 -0.8661  0.8747
11341TIP3    H255515   1.533   4.928  14.456 -0.2806  0.8741 -0.2198
11342TIP3   OH255516   1.150   1.872  14.761 -0.1613  0.2416 -0.2229
11342TIP3    H155517   1.089   1.816  14.808 -1.3653  0.6425 -1.2937
11342TIP3    H255518   1.193   1.924  14.829 -0.0823 -0.9417  0.6414
11343TIP3   OH255519   5.618   0.354   0.089 -0.0865  0.3885  0.3328
11343TIP3    H155520   5.696   0.384   0.043 -0.7212  0.1907 -0.8879
11343TIP3    H255521   5.569   0.434   0.110 -0.7423  0.3751 -1.0614
11344TIP3   OH255522   6.752   4.585   4.017 -0.2087 -0.3782 -0.1233
11344TIP3    H155523   6.821   4.519   4.021 -0.5429 -0.6793  0.8281
11344TIP3    H255524   6.751   4.624   4.104  0.0187  0.9265 -0.6831
11345TIP3   OH255525   4.289   3.256  11.522 -0.1428 -0.8324  0.2799
11345TIP3    H155526   4.342   3.175  11.523 -2.5367 -2.4475  0.4828
11345TIP3    H255527   4.228   3.245  11.595  0.9557  2.2135  1.7234
11346TIP3   OH255528   2.138   1.397   6.539 -0.1020  0.2647 -0.0476
11346TIP3    H155529   2.097   1.433   6.618  0.4267  0.1399  0.2882
11346TIP3    H255530   2.144   1.303   6.556 -1.7026 -0.0378 -1.0231
11347TIP3   OH255531   5.774   1.252  12.962 -0.0381 -0.0446 -0.0067
11347TIP3    H155532   5.687   1.292  12.953 -0.5505 -1.2718 -0.7627
11347TIP3    H255533   5.777   1.187  12.891  0.3169 -2.0845  1.8208
11348TIP3   OH255534   5.077   0.438  15.423  0.9066  0.4430  0.4448
11348TIP3    H155535   5.167   0.416  15.447  0.9085 -0.7678 -0.6013
11348TIP3    H255536   5.082   0.460  15.329  0.2992  1.4853  0.6427
11349TIP3   OH255537   5.340   5.024  17.094  0.1892  0.6389 -0.0919
11349TIP3    H155538   5.249   5.050  17.111  0.6583  1.0668  1.8969
11349TIP3    H255539   5.354   4.947  17.148  0.7021 -0.0562 -1.1998
11350TIP3   OH255540   4.046   5.038   6.141  0.1441  0.4077  0.1730
11350TIP3    H155541   3.967   5.010   6.188  0.9211 -1.2492  0.5192
11350TIP3    H255542   4.056   4.974   6.071  1.5539  0.2163  0.5339
11351TIP3   OH255543   0.843   4.167   0.215  0.5022 -0.8468  0.6372
11351TIP3    H155544   0.863   4.153   0.308  0.1225 -1.0378  0.6907
11351TIP3    H255545   0.891   4.247   0.192 -0.2932 -0.1723  1.2927
11352TIP3   OH255546   5.353   1.553  14.054  0.1646  0.0776 -0.2405
11352TIP3    H155547   5.446   1.549  14.076  0.1681  2.6398  0.3579
11352TIP3    H255548   5.308   1.554  14.139 -0.3075  0.9417 -0.5029
11353TIP3   OH255549   3.398   5.029   5.176 -0.1625  0.6873 -0.1884
11353TIP3    H155550   3.476   5.055   5.225 -0.8040  1.2278  0.5481
11353TIP3    H255551   3.392   5.092   5.105  1.1831 -0.5278 -1.4354
11354TIP3   OH255552   5.246   0.865  11.050  0.0219  0.2478 -0.8556
11354TIP3    H155553   5.250   0.769  11.057 -0.9111  0.1862 -1.1265
11354TIP3    H255554   5.228   0.881  10.958  0.0424  0.6854 -0.7830
11355TIP3   OH255555   1.083   4.289  15.669 -0.6392  0.3386  0.1123
11355TIP3    H155556   1.112   4.304  15.579  0.2083  4.0393  0.9202
11355TIP3    H255557   0.990   4.315  15.669 -0.9305 -0.7081  0.0496
11356TIP3   OH255558   4.639   4.350  15.735 -0.6344 -0.2034  0.3014
11356TIP3    H155559   4.684   4.354  15.650 -0.9883  0.6682  0.1567
11356TIP3    H255560   4.583   4.272  15.728 -1.8880  0.7753 -0.8836
11357TIP3   OH255561   2.388   6.294  12.325 -0.1088  0.3214 -0.4060
11357TIP3    H155562   2.359   6.381  12.297  1.6869  1.2520  0.5047
11357TIP3    H255563   2.341   6.278  12.406 -1.5415 -0.2022 -1.3274
11358TIP3   OH255564   2.535   0.638  14.534 -0.0376  0.0889  0.0969
11358TIP3    H155565   2.573   0.609  14.450  3.4939  0.2756  1.5238
11358TIP3    H255566   2.523   0.557  14.583 -2.1379 -0.0219 -0.5750
11359TIP3   OH255567   3.608   0.489  12.796  0.3996  0.7479 -0.1728
11359TIP3    H155568   3.702   0.479  12.778  0.2644  1.4536 -1.3402
11359TIP3    H255569   3.570   0.508  12.710 -0.7199  1.1507  0.4116
11360TIP3   OH255570   3.196   0.009   4.123 -0.5852 -0.2578 -0.1271
11360TIP3    H155571   3.234  -0.068   4.082 -1.9995 -2.2549  2.2301
11360TIP3    H255572   3.251   0.024   4.201 -0.9770  0.4737  0.0150
11361TIP3   OH255573   5.340   6.354   1.000  0.0900 -0.2397  1.2253
11361TIP3    H155574   5.317   6.315   1.084  0.4853 -0.5943  1.1738
11361TIP3    H255575   5.308   6.291   0.935  0.1255 -0.1519  1.1231
11362TIP3   OH255576   1.618   1.621   4.977 -0.3599 -0.6991 -0.2075
11362TIP3    H155577   1.637   1.560   5.048 -0.6303 -0.7100 -0.1431
11362TIP3    H255578   1.523   1.618   4.968 -0.5088  0.7865  0.7633
11363TIP3   OH255579   6.508   2.688  12.758 -0.0045 -0.5898 -0.3113
11363TIP3    H155580   6.544   2.635  12.687 -0.9591 -0.9461 -0.5356
11363TIP3    H255581   6.547   2.651  12.837 -0.4640 -1.4590 -0.4906
11364TIP3   OH255582   3.246   2.809   2.700 -0.3539  0.1886  0.9071
11364TIP3    H155583   3.213   2.719   2.695  0.9224 -0.3773  2.5007
11364TIP3    H255584   3.248   2.838   2.608  0.2813 -1.7753  0.2713
11365TIP3   OH255585   6.385   3.711   3.216 -0.6091  0.4319  0.0519
11365TIP3    H155586   6.453   3.776   3.234 -0.0358 -0.0439 -0.3355
11365TIP3    H255587   6.434   3.633   3.190 -1.3574  0.5514 -1.8040
11366TIP3   OH255588   6.236   2.129  16.058  0.3925  0.1145  0.3750
11366TIP3    H155589   6.173   2.116  15.987  0.6732  1.6434 -0.1696
11366TIP3    H255590   6.211   2.064  16.124 -0.2844 -0.8814 -0.8261
11367TIP3   OH255591   5.296   5.051  12.374 -0.9165 -0.8123  0.1223
11367TIP3    H155592   5.283   5.042  12.279 -0.5917  0.0374 -0.0064
11367TIP3    H255593   5.276   5.143  12.393 -0.4794 -0.8501  0.7952
11368TIP3   OH255594   1.982   2.054  16.154 -0.1801  0.1798  0.1054
11368TIP3    H155595   2.016   2.121  16.095  2.5505 -0.5918  0.7325
11368TIP3    H255596   2.026   1.973  16.127 -0.5956 -0.6209  1.7268
11369TIP3   OH255597   4.158   5.089  16.663 -0.4458 -0.0599  0.3645
11369TIP3    H155598   4.147   5.072  16.569 -3.2216 -1.1570  0.8289
11369TIP3    H255599   4.212   5.017  16.695 -0.6579 -0.4454 -0.1412
11370TIP3   OH255600   2.558   1.257   4.388  0.2331 -0.3725  0.3510
11370TIP3    H155601   2.553   1.289   4.297  1.0719  0.4088  0.5752
11370TIP3    H255602   2.482   1.199   4.397 -1.3314  1.5583 -0.0694
11371TIP3   OH255603   1.997   6.132   3.822  0.0463 -0.2620  0.4910
11371TIP3    H155604   2.033   6.215   3.856  1.1281  0.1242 -1.5206
11371TIP3    H255605   2.060   6.066   3.851  0.5474 -0.0333 -0.0469
11372TIP3   OH255606   4.297   2.665  14.118  0.4321 -0.0005  0.2532
11372TIP3    H155607   4.296   2.633  14.208 -0.0619 -1.3218 -0.2177
11372TIP3    H255608   4.332   2.593  14.066  0.3876  0.6246 -0.6726
11373TIP3   OH255609   6.579   3.519  14.145 -0.3100  0.8844 -0.2932
11373TIP3    H155610   6.518   3.592  14.157 -1.4006 -0.0299 -0.2834
11373TIP3    H255611   6.563   3.461  14.219  2.1226  1.6988  0.9354
11374TIP3   OH255612   5.205   3.454   5.638 -0.8112  0.9495  0.3759
11374TIP3    H155613   5.298   3.433   5.631 -0.7140  0.7870  2.0185
11374TIP3    H255614   5.167   3.424   5.555  0.8105  2.2006 -0.8260
11375TIP3   OH255615   3.749   4.946  12.638  0.0916  0.0367  0.4957
11375TIP3    H155616   3.803   5.019  12.667 -0.2591  0.5573 -0.1302
11375TIP3    H255617   3.811   4.875  12.619  0.6954  1.0349 -1.4455
11376TIP3   OH255618   2.643   2.804  11.449  0.0695  0.0026  0.9016
11376TIP3    H155619   2.736   2.782  11.437  0.1365  1.0324 -0.5956
11376TIP3    H255620   2.641   2.850  11.533  0.4362 -2.6113  2.3994
11377TIP3   OH255621   2.087   5.092  10.786 -0.2213  0.2796 -0.6582
11377TIP3    H155622   2.048   5.017  10.741  2.3930 -1.4480 -0.1840
11377TIP3    H255623   2.078   5.072  10.879  0.6238  0.4479 -0.5329
11378TIP3   OH255624   4.672   0.723  13.651 -0.3435 -0.8462  0.1416
11378TIP3    H155625   4.715   0.643  13.621 -0.6593 -0.4032 -1.5615
11378TIP3    H255626   4.729   0.793  13.619 -1.5126 -0.3065 -0.7757
11379TIP3   OH255627   1.268   4.080   6.165  0.4899 -0.6665 -0.3365
11379TIP3    H155628   1.238   4.112   6.250 -0.9352  0.3918 -1.2157
11379TIP3    H255629   1.363   4.068   6.176  0.6032  1.1580  0.8649
11380TIP3   OH255630   4.781   1.774  16.642  0.2376 -0.8835  0.3743
11380TIP3    H155631   4.801   1.867  16.630  0.8098 -1.1673 -0.9960
11380TIP3    H255632   4.816   1.753  16.729  1.9217 -0.2933 -0.1419
11381TIP3   OH255633   4.933   5.064  10.783 -0.2608 -0.3906  0.4054
11381TIP3    H155634   5.018   5.101  10.806  0.2746 -1.8118  0.7931
11381TIP3    H255635   4.936   4.974  10.818 -3.2353  0.6349  3.5800
11382TIP3   OH255636   3.070   3.683  14.903 -0.5351 -0.3609 -0.7373
11382TIP3    H155637   3.091   3.597  14.938  2.8654  1.8260  2.9840
11382TIP3    H255638   3.058   3.668  14.809  0.0429 -4.8156 -0.2264
11383TIP3   OH255639   0.747   1.451  16.965  0.4670  0.2025  0.3075
11383TIP3    H155640   0.737   1.541  16.997 -1.5756  0.2191 -0.2726
11383TIP3    H255641   0.745   1.459  16.870 -1.9999 -0.6422  0.2561
11384TIP3   OH255642   5.758   0.715  15.565  0.3249  0.4049 -0.0022
11384TIP3    H155643   5.743   0.621  15.577  0.5930  0.4333  0.5791
11384TIP3    H255644   5.672   0.751  15.544  0.1950  0.0491 -0.0820
11385TIP3   OH255645   6.162   0.922   4.878  0.8997 -0.1128  0.0152
11385TIP3    H155646   6.141   0.861   4.949  0.1844 -0.7018 -0.6827
11385TIP3    H255647   6.257   0.924   4.875  0.9598  0.8080  1.7391
11386TIP3   OH255648   0.440   4.413   3.501  0.2381 -0.0491 -0.5825
11386TIP3    H155649   0.531   4.398   3.475  0.4477 -0.1790  0.1953
11386TIP3    H255650   0.394   4.430   3.419  0.3156 -3.2258 -1.3444
11387TIP3   OH255651   6.741   0.712  13.756  0.0336  0.0445  0.5773
11387TIP3    H155652   6.758   0.628  13.714  1.2028  1.4908 -1.9776
11387TIP3    H255653   6.808   0.720  13.823  1.0485 -0.2761 -0.3963
11388TIP3   OH255654   6.011   4.818  13.962 -0.0619  0.4931 -0.1483
11388TIP3    H155655   6.073   4.781  13.899  0.0883  0.6656 -0.1029
11388TIP3    H255656   6.011   4.756  14.035 -1.1602 -0.3489 -0.8422
11389TIP3   OH255657   0.363   1.833  12.991 -0.0983 -0.7972 -0.3123
11389TIP3    H155658   0.379   1.833  13.085  0.0118  1.0575 -0.3041
11389TIP3    H255659   0.279   1.787  12.981 -1.1384  0.7578  0.9152
11390TIP3   OH255660   1.564   0.903  14.215  0.2568 -0.3798 -0.1928
11390TIP3    H155661   1.516   0.879  14.136 -0.4988  0.7697 -0.0958
11390TIP3    H255662   1.651   0.866  14.202  0.1543 -0.1519 -1.5920
11391TIP3   OH255663   2.699   3.944  14.157  0.3399 -0.1010  0.6067
11391TIP3    H155664   2.668   3.854  14.165  2.5278 -1.1207 -1.5756
11391TIP3    H255665   2.669   3.972  14.070  0.9139  0.7615  0.6833
11392TIP3   OH255666   1.047   1.778  16.160  0.2989 -0.0912  0.2436
11392TIP3    H155667   1.126   1.762  16.212  0.2362  1.3595  0.8249
11392TIP3    H255668   1.074   1.761  16.070  1.0901 -0.2822  0.5135
11393TIP3   OH255669   6.201   2.611  13.030  0.0380  0.2561  0.3471
11393TIP3    H155670   6.264   2.662  13.080 -0.2783  0.7714  0.2177
11393TIP3    H255671   6.231   2.520  13.040  0.7099  0.4812  0.4082
11394TIP3   OH255672   5.065   0.281  15.891  0.1310  0.2203  0.1070
11394TIP3    H155673   5.107   0.344  15.832 -2.4114  0.2216 -1.7940
11394TIP3    H255674   5.125   0.274  15.966  2.6508  1.4541 -1.7188
11395TIP3   OH255675   4.109   0.456  10.311  0.2434 -0.2289  0.1587
11395TIP3    H155676   4.136   0.546  10.291 -0.4440 -0.2987 -1.1266
11395TIP3    H255677   4.021   0.449  10.275  0.1399 -1.3055  0.6004
11396TIP3   OH255678   6.372   3.142   0.830 -0.4238 -0.8713 -0.0233
11396TIP3    H155679   6.284   3.107   0.816 -0.7123  0.7761 -2.7380
11396TIP3    H255680   6.424   3.067   0.859 -1.9264 -2.6657 -1.8424
11397TIP3   OH255681   6.365   4.946  16.328  0.0070  0.4570  1.0807
11397TIP3    H155682   6.447   4.909  16.297 -0.7011 -0.5041  0.3341
11397TIP3    H255683   6.366   4.929  16.422  0.4774  0.0678  1.0094
11398TIP3   OH255684   1.128   6.030  17.220  0.0050  0.2668 -0.9722
11398TIP3    H155685   1.088   6.025  17.133  0.3987  0.2349 -1.1552
11398TIP3    H255686   1.210   6.078  17.206 -0.6428  1.5851 -0.3554
11399TIP3   OH255687   0.849   5.651  12.342  0.3432 -0.1206 -0.3940
11399TIP3    H155688   0.785   5.596  12.295  0.9482 -1.2709  0.1065
11399TIP3    H255689   0.921   5.662  12.280  1.2636 -1.8663  0.3268
11400TIP3   OH255690   3.885   3.546   5.123  0.3074 -0.2731 -0.5039
11400TIP3    H155691   3.861   3.603   5.050  0.2489 -0.5296 -0.6874
11400TIP3    H255692   3.955   3.492   5.088 -0.8808 -1.5787 -0.9280
11401TIP3   OH255693   3.850   4.858   1.544  0.2391 -0.1850  0.2450
11401TIP3    H155694   3.882   4.771   1.566  0.8039 -0.1497 -0.4063
11401TIP3    H255695   3.784   4.843   1.476 -0.2343 -0.1628  0.6982
11402TIP3   OH255696   3.271   6.576   5.404 -0.3000  0.4662  0.2786
11402TIP3    H155697   3.350   6.579   5.351 -1.0792 -2.0783 -1.1064
11402TIP3    H255698   3.295   6.523   5.480 -0.2464  0.9423  0.5929
11403TIP3   OH255699   0.720   6.199  11.714 -1.0033 -0.2704 -0.1290
11403TIP3    H155700   0.640   6.155  11.743 -0.5091 -0.2958  1.2381
11403TIP3    H255701   0.740   6.160  11.629 -1.4099 -1.5913  0.3817
11404TIP3   OH255702   1.718   6.771   4.586  0.0449  0.0562 -0.3601
11404TIP3    H155703   1.632   6.810   4.596 -0.7856 -2.1670  1.7815
11404TIP3    H255704   1.709   6.711   4.512  0.2158  1.0200 -1.1634
11405TIP3   OH255705   1.995   1.057   4.391  0.0967 -0.2678  0.8108
11405TIP3    H155706   1.990   1.139   4.341 -0.5072 -1.0619 -0.4478
11405TIP3    H255707   1.904   1.039   4.415 -0.3423 -2.6143 -2.3028
11406TIP3   OH255708   2.282   3.050   2.370  0.5887  0.5694 -0.0798
11406TIP3    H155709   2.311   2.962   2.393  2.3635  0.7752 -1.4226
11406TIP3    H255710   2.319   3.107   2.437 -1.1058  0.2368  1.1618
11407TIP3   OH255711   6.325   3.776   2.060 -0.3811  0.6053 -0.4451
11407TIP3    H155712   6.246   3.780   2.114  0.0955  1.2587  0.2186
11407TIP3    H255713   6.314   3.696   2.008 -1.2081  0.3775  0.0599
11408TIP3   OH255714   3.002   5.452  12.843 -0.3272  0.2095 -0.3140
11408TIP3    H155715   3.092   5.442  12.814 -0.6294  0.9778 -1.5633
11408TIP3    H255716   2.982   5.370  12.888  1.6573  0.8593  1.8624
11409TIP3   OH255717   2.741   5.032  14.908 -0.5719  0.9329 -0.0064
11409TIP3    H155718   2.690   5.084  14.845 -0.6191 -0.2948 -0.9945
11409TIP3    H255719   2.694   4.949  14.914  0.6045  0.2571  0.0423
11410TIP3   OH255720   1.038   3.300   1.378  0.2125 -0.7541  0.3047
11410TIP3    H155721   0.979   3.272   1.447  1.5541 -2.3016  0.8672
11410TIP3    H255722   1.011   3.250   1.301  0.3857 -1.0030  0.4036
11411TIP3   OH255723   2.486   2.214   1.369  0.1854 -0.3809 -0.1972
11411TIP3    H155724   2.576   2.200   1.341 -0.8428 -2.1770 -2.7997
11411TIP3    H255725   2.438   2.138   1.337 -2.3979  0.8377  0.5719
11412TIP3   OH255726   4.581   1.374  15.865  0.1767  0.4425  0.4230
11412TIP3    H155727   4.648   1.353  15.800  0.5544 -0.3722  1.0525
11412TIP3    H255728   4.617   1.341  15.947  0.1149  2.2801  1.2112
11413TIP3   OH255729   5.735   4.536   5.215  0.5216 -0.6055  0.3806
11413TIP3    H155730   5.764   4.611   5.164 -1.0105  0.1550  0.5910
11413TIP3    H255731   5.640   4.532   5.199  0.4699 -2.0399  0.9652
11414TIP3   OH255732   0.726   2.941   4.677 -0.3903 -0.5199  0.2502
11414TIP3    H155733   0.669   2.972   4.607 -0.6245  0.3279  0.8067
11414TIP3    H255734   0.775   3.018   4.704 -1.3549 -0.4849  2.0105
11415TIP3   OH255735   1.071   5.789   0.012 -0.1502 -0.0769 -0.9023
11415TIP3    H155736   1.054   5.804   0.106  0.6205  0.2000 -0.8060
11415TIP3    H255737   1.090   5.876  -0.023  0.4535 -0.3055 -1.1387
11416TIP3   OH255738   5.267   3.111   4.924 -0.4207 -0.1216 -0.6115
11416TIP3    H155739   5.302   3.070   5.003 -2.8488 -0.5316  0.2896
11416TIP3    H255740   5.315   3.069   4.852 -0.2117 -1.8402  0.5087
11417TIP3   OH255741   2.512   6.815  16.840  0.0414 -0.0806  0.2326
11417TIP3    H155742   2.584   6.849  16.787 -1.1421 -0.3297 -1.5897
11417TIP3    H255743   2.520   6.720  16.834  0.3723 -0.1218  1.1882
11418TIP3   OH255744   3.096   1.280  13.251  0.3731  0.0907 -0.1610
11418TIP3    H155745   3.059   1.305  13.335 -0.7011 -0.6932 -0.3825
11418TIP3    H255746   3.079   1.186  13.245  0.0248  0.2276 -1.4541
11419TIP3   OH255747   0.437   4.782   3.222 -0.1858 -0.2844 -1.2262
11419TIP3    H155748   0.395   4.703   3.258  0.5128  0.2824  0.8667
11419TIP3    H255749   0.529   4.758   3.214  0.0257  0.3208 -0.5843
11420TIP3   OH255750   1.584   2.099  13.213 -0.1513 -0.1106  0.0119
11420TIP3    H155751   1.594   2.180  13.163 -1.1287 -0.4698 -0.7727
11420TIP3    H255752   1.523   2.121  13.283 -0.3330 -0.1279 -0.1386
11421TIP3   OH255753   5.885   0.320  15.819  0.1017  0.2185 -0.1887
11421TIP3    H155754   5.844   0.236  15.841 -0.9398  1.0832  1.1571
11421TIP3    H255755   5.824   0.386  15.849  1.8202  1.5164  0.5428
11422TIP3   OH255756   4.425   5.969   6.302 -0.2092 -0.5763 -0.4615
11422TIP3    H155757   4.517   5.993   6.309  0.0098 -1.2480 -0.9813
11422TIP3    H255758   4.426   5.879   6.270 -1.0579 -0.1650 -1.7175
11423TIP3   OH255759   5.074   1.702   1.998  0.3352 -0.1599  0.5239
11423TIP3    H155760   5.168   1.695   2.016  0.6377  1.4979 -0.2447
11423TIP3    H255761   5.063   1.658   1.914  0.1237 -1.8249  1.4118
11424TIP3   OH255762   4.417   2.922   1.779  0.0950 -0.0266  0.3752
11424TIP3    H155763   4.355   2.892   1.845 -0.2515 -1.8110 -0.7175
11424TIP3    H255764   4.409   3.017   1.779 -0.9908 -0.1110  1.8319
11425TIP3   OH255765   3.884   0.950  12.610 -0.2245  0.4188 -0.1408
11425TIP3    H155766   3.922   1.003  12.679  1.4224  0.2280 -0.8848
11425TIP3    H255767   3.941   0.873  12.604 -2.2711 -1.2307  0.5782
11426TIP3   OH255768   2.861   1.594  12.255  0.2465  0.0309 -0.3257
11426TIP3    H155769   2.830   1.645  12.180  0.5436  0.8438  0.0992
11426TIP3    H255770   2.797   1.612  12.324 -2.5540 -4.1890 -1.6550
11427TIP3   OH255771   5.098   5.133   0.559 -0.2902  0.1528  0.1145
11427TIP3    H155772   5.170   5.073   0.543 -0.2281  0.4217 -0.6289
11427TIP3    H255773   5.075   5.120   0.651  0.3456 -0.3219  0.2032
11428TIP3   OH255774   5.615   3.581   0.715 -0.4084 -0.3465  0.4849
11428TIP3    H155775   5.625   3.666   0.673 -0.1720 -0.3517  0.5324
11428TIP3    H255776   5.641   3.518   0.647  0.1627 -0.3462  0.7045
11429TIP3   OH255777   2.584   0.917   0.198 -0.1539  0.1780 -0.3806
11429TIP3    H155778   2.555   0.876   0.117 -0.8565 -0.9328  0.4145
11429TIP3    H255779   2.639   0.850   0.240  1.9894  1.5335 -0.9519
11430TIP3   OH255780   0.489   5.020  11.528  0.1778 -0.3774 -0.5433
11430TIP3    H155781   0.407   5.005  11.575 -0.2442  0.1020 -1.1136
11430TIP3    H255782   0.485   4.959  11.454 -0.2213  0.4874 -1.2445
11431TIP3   OH255783   4.679   2.168  15.627  0.2516  0.4672 -0.1217
11431TIP3    H155784   4.704   2.258  15.607  0.0316  0.0974 -2.1477
11431TIP3    H255785   4.672   2.166  15.722  2.4758  1.9990  0.1189
11432TIP3   OH255786   5.571   3.225  13.867  0.0066  0.3622  0.0983
11432TIP3    H155787   5.660   3.231  13.901  0.9202 -0.5689 -2.0574
11432TIP3    H255788   5.532   3.152  13.917  1.6684 -1.6867 -1.5003
11433TIP3   OH255789   4.974   4.068   1.420  0.3651 -0.4054  0.5615
11433TIP3    H155790   5.030   3.993   1.442 -0.3373 -0.5701  1.8509
11433TIP3    H255791   5.001   4.093   1.332 -0.3007 -3.0319 -0.4474
11434TIP3   OH255792   1.805   6.553  12.412 -0.1481  0.4626 -1.1978
11434TIP3    H155793   1.883   6.531  12.463 -1.4213 -1.4948 -0.0013
11434TIP3    H255794   1.784   6.472  12.366 -2.3771  0.4639 -0.2369
11435TIP3   OH255795   4.823   0.858  15.068  0.1978 -0.0959 -0.4832
11435TIP3    H155796   4.885   0.828  15.134  0.0094 -0.5836 -0.5300
11435TIP3    H255797   4.757   0.907  15.117  0.6134  0.4119 -0.4294
11436TIP3   OH255798   4.510   2.110   5.902 -0.4889 -0.3043  0.1873
11436TIP3    H155799   4.509   2.093   5.996 -1.1775 -0.6858  0.1150
11436TIP3    H255800   4.419   2.101   5.874 -0.3039 -0.1226 -0.5046
11437TIP3   OH255801   4.594   2.383   0.053 -0.4388  0.4323  0.0758
11437TIP3    H155802   4.613   2.473   0.079  4.2614 -0.2951 -0.3651
11437TIP3    H255803   4.628   2.376  -0.037  2.0470 -2.4970  1.1390
11438TIP3   OH255804   1.452   5.246   2.495  0.7156 -0.4094 -0.0334
11438TIP3    H155805   1.531   5.249   2.441  0.0930  0.4497 -0.9041
11438TIP3    H255806   1.484   5.235   2.585  1.8563  0.8012 -0.2862
11439TIP3   OH255807   2.530   5.286  12.160  0.0224 -0.0206  0.5069
11439TIP3    H155808   2.536   5.321  12.071  0.0762 -1.4751 -0.0667
11439TIP3    H255809   2.588   5.342  12.211 -0.3079  1.0728 -0.2915
11440TIP3   OH255810   5.547   0.043  12.795  0.2541 -0.5480 -0.3539
11440TIP3    H155811   5.544  -0.052  12.779  1.1613 -0.5201 -0.7472
11440TIP3    H255812   5.558   0.081  12.708 -1.9800  0.0360 -0.3939
11441TIP3   OH255813   0.223   1.629   1.759 -0.4192  0.3914  0.2129
11441TIP3    H155814   0.135   1.667   1.758 -0.3150  0.6120 -0.6899
11441TIP3    H255815   0.209   1.534   1.750 -0.5992  0.3546  0.8603
11442TIP3   OH255816   0.775   4.719  11.010  0.1661  0.2145 -0.3105
11442TIP3    H155817   0.770   4.729  11.105  1.1490  0.8340 -0.3183
11442TIP3    H255818   0.862   4.751  10.987  0.1387 -0.4306 -1.3622
11443TIP3   OH255819   4.537   5.980  15.917  0.1807  0.1294  0.1648
11443TIP3    H155820   4.445   5.972  15.944 -0.1029  2.5546  0.0218
11443TIP3    H255821   4.586   5.936  15.987 -0.9872  0.1691  1.0320
11444TIP3   OH255822   5.694   1.304  14.064  0.0931  0.0597  0.4961
11444TIP3    H155823   5.607   1.283  14.032 -1.0044  1.9090  2.1617
11444TIP3    H255824   5.722   1.226  14.113 -0.7542 -0.4067  0.2389
11445TIP3   OH255825   0.219   1.502  11.116  0.3197  0.2675  0.0597
11445TIP3    H155826   0.162   1.537  11.184  1.4431  1.9390  0.1732
11445TIP3    H255827   0.177   1.529  11.034 -0.1281 -0.2680  0.1107
11446TIP3   OH255828   0.642   4.732  16.848 -0.0949 -0.5437 -0.3604
11446TIP3    H155829   0.606   4.717  16.761 -1.3915  0.6857 -0.0564
11446TIP3    H255830   0.682   4.649  16.873 -0.2718 -1.0877 -1.8633
11447TIP3   OH255831   4.153   6.465  15.371 -0.1212 -0.3332  0.0715
11447TIP3    H155832   4.117   6.407  15.303 -0.0738 -0.8067  0.4455
11447TIP3    H255833   4.196   6.535  15.322  1.6533 -1.7287 -0.4035
11448TIP3   OH255834   4.713   2.190  14.325 -0.0959  0.4007 -0.3281
11448TIP3    H155835   4.669   2.122  14.376  0.1775  0.4413 -0.0342
11448TIP3    H255836   4.788   2.145  14.286  1.2257  0.9653  1.4627
11449TIP3   OH255837   4.362   5.603   9.978 -0.3421 -0.0195 -0.2156
11449TIP3    H155838   4.403   5.584   9.894  0.1323 -1.9417  0.4400
11449TIP3    H255839   4.374   5.698   9.989 -2.5816  0.6944 -3.4165
11450TIP3   OH255840   4.486   2.891  10.966  0.4161  0.3704 -0.6149
11450TIP3    H155841   4.452   2.845  10.889 -0.2354  0.6012 -0.4616
11450TIP3    H255842   4.517   2.820  11.024 -1.4616  0.0572  0.0386
11451TIP3   OH255843   6.691   5.827   1.780 -0.0485  0.4848 -0.4544
11451TIP3    H155844   6.731   5.875   1.852  0.5808  0.9017 -1.0723
11451TIP3    H255845   6.747   5.846   1.704  0.7053 -1.8931 -0.5292
11452TIP3   OH255846   3.277   5.783  11.875 -0.1696  0.1688 -0.0751
11452TIP3    H155847   3.190   5.744  11.867  0.1789 -0.6025 -0.1377
11452TIP3    H255848   3.335   5.709  11.893  0.5607  0.6142 -0.5801
11453TIP3   OH255849   6.770   0.859   0.015 -0.0104 -0.3604 -0.1987
11453TIP3    H155850   6.755   0.765   0.030  0.1738 -0.4826 -0.8011
11453TIP3    H255851   6.865   0.867   0.007  0.1415  0.1437  1.6728
11454TIP3   OH255852   6.815   5.792   6.594  0.1274 -0.7974 -0.0292
11454TIP3    H155853   6.739   5.797   6.537  0.6182  1.3062 -0.5508
11454TIP3    H255854   6.781   5.759   6.678 -1.2568 -0.3105 -0.3953
11455TIP3   OH255855   6.773   3.504  16.274  0.6504 -0.1266  0.1044
11455TIP3    H155856   6.836   3.503  16.346  1.1749 -1.8615 -0.3476
11455TIP3    H255857   6.714   3.431  16.293 -0.8662  1.1006  0.1941
11456TIP3   OH255858   6.686   2.669   6.670  0.0862  0.0937 -0.6143
11456TIP3    H155859   6.691   2.626   6.756  1.6172  0.3613 -0.5607
11456TIP3    H255860   6.772   2.709   6.658 -0.4411  0.8748 -1.8581
11457TIP3   OH255861   6.024   2.941  11.695  0.6733  0.4173 -0.3675
11457TIP3    H155862   5.987   3.018  11.652  1.0970  0.7739 -0.0979
11457TIP3    H255863   6.034   2.877  11.625  0.8370  0.8023 -0.6977
11458TIP3   OH255864   0.833   1.179  14.384 -0.1412 -0.0671  1.0357
11458TIP3    H155865   0.871   1.145  14.465  1.6954 -2.9959 -0.9899
11458TIP3    H255866   0.749   1.134  14.376 -0.0757 -0.1824  1.0063
11459TIP3   OH255867   6.414   4.882   2.317  0.3008 -0.0484  0.3220
11459TIP3    H155868   6.426   4.849   2.407  0.8585  0.0847  0.2955
11459TIP3    H255869   6.387   4.805   2.267  1.5101 -0.4568  0.2798
11460TIP3   OH255870   4.677   5.504   0.735 -0.4903 -0.4709  0.0404
11460TIP3    H155871   4.707   5.444   0.666  1.9089  0.2758  0.3768
11460TIP3    H255872   4.654   5.584   0.688 -1.5529 -0.9081 -0.1832
11461TIP3   OH255873   2.582   4.250   2.866  1.0345 -0.2670  0.3295
11461TIP3    H155874   2.543   4.242   2.779  0.9205 -1.0038  0.4425
11461TIP3    H255875   2.509   4.233   2.926  0.7106  1.9623  0.6088
11462TIP3   OH255876   3.828   6.092  13.379  0.3747 -0.8939  0.1913
11462TIP3    H155877   3.746   6.138  13.397  1.8385  1.5892  0.8086
11462TIP3    H255878   3.869   6.083  13.465  1.7235 -0.1563 -0.3568
11463TIP3   OH255879   0.228   5.306   4.459 -0.1053  0.2815  0.1975
11463TIP3    H155880   0.164   5.315   4.530 -0.9240 -0.8907 -0.3945
11463TIP3    H255881   0.313   5.314   4.503 -0.6274  0.6118  1.1614
11464TIP3   OH255882   6.225   4.434  11.476  0.1113  0.3323  0.4062
11464TIP3    H155883   6.290   4.456  11.410 -0.6639 -0.6731 -0.7191
11464TIP3    H255884   6.147   4.483  11.451  0.1695  0.8773  1.2657
11465TIP3   OH255885   3.040   1.796   4.880 -0.3255 -0.3950 -0.3404
11465TIP3    H155886   3.097   1.749   4.941  0.6167 -0.0195 -0.9260
11465TIP3    H255887   3.094   1.812   4.803 -0.6659  1.5631 -0.2036
11466TIP3   OH255888   2.588   2.811  12.335  0.2296  0.0647  1.0335
11466TIP3    H155889   2.674   2.787  12.300 -0.1403 -1.9169  1.4114
11466TIP3    H255890   2.565   2.891  12.288  1.4181 -0.4591 -0.5110
11467TIP3   OH255891   5.820   1.902   1.013  0.9539 -0.2652  0.1598
11467TIP3    H155892   5.802   1.813   1.044  0.8718 -0.3026  0.0056
11467TIP3    H255893   5.869   1.890   0.932  1.4055 -0.1643  0.4200
11468TIP3   OH255894   5.545   2.239   1.628 -0.5572 -0.1596  0.0859
11468TIP3    H155895   5.490   2.316   1.614 -2.6527 -1.3723  1.3196
11468TIP3    H255896   5.500   2.169   1.580 -0.7101 -1.4241  2.0489
11469TIP3   OH255897   0.844   2.090   0.530  1.0778  0.0750 -0.1536
11469TIP3    H155898   0.902   2.079   0.605  1.1080  1.3099  0.0113
11469TIP3    H255899   0.904   2.093   0.455  1.2338  1.2015  0.0031
11470TIP3   OH255900   1.939   0.342  12.522 -0.0714 -0.1762  0.3613
11470TIP3    H155901   2.010   0.302  12.571  1.9765 -0.1042 -2.3899
11470TIP3    H255902   1.924   0.283  12.448 -0.5090  1.5164 -0.9503
11471TIP3   OH255903   4.974   1.121   2.099 -0.0888  0.2143  0.1303
11471TIP3    H155904   5.034   1.060   2.056 -1.1560 -0.3175 -0.6059
11471TIP3    H255905   4.944   1.073   2.177 -0.6095 -0.0454 -0.2292
11472TIP3   OH255906   4.924   6.560  15.371 -0.2536 -0.2536 -0.2637
11472TIP3    H155907   4.853   6.576  15.309 -0.9038  0.5014  0.6524
11472TIP3    H255908   4.880   6.525  15.448  0.4037 -0.0336  0.2120
11473TIP3   OH255909   5.941   1.346  14.425  0.2891  0.3893 -0.3289
11473TIP3    H155910   5.903   1.434  14.425 -0.6834  0.0056 -2.8382
11473TIP3    H255911   6.015   1.351  14.365 -0.1987 -0.6491 -1.0491
11474TIP3   OH255912   4.326   1.323   0.554  0.0968 -0.3279  0.6832
11474TIP3    H155913   4.355   1.379   0.482 -1.9167 -1.7731 -1.3680
11474TIP3    H255914   4.258   1.373   0.598 -0.9654 -0.7240 -0.4883
11475TIP3   OH255915   1.588   2.081   6.618  0.1029  0.4692 -0.2159
11475TIP3    H155916   1.660   2.094   6.679  0.0434  0.7537 -0.2065
11475TIP3    H255917   1.628   2.088   6.531 -0.2718  2.7739 -0.2418
11476TIP3   OH255918   1.485   3.758  16.355  0.4559 -0.8286  0.2521
11476TIP3    H155919   1.434   3.812  16.415 -0.5203 -2.0477  0.5201
11476TIP3    H255920   1.475   3.802  16.270 -0.0116 -0.3776  0.5340
11477TIP3   OH255921   5.534   1.081  13.445 -0.3454 -0.1305  0.6531
11477TIP3    H155922   5.543   1.087  13.540 -0.1406 -0.6149  0.6646
11477TIP3    H255923   5.605   1.024  13.418  0.5744  1.2777  0.0266
11478TIP3   OH255924   5.283   6.480  12.617  0.5636 -0.0504  0.2990
11478TIP3    H155925   5.258   6.444  12.532 -1.2952 -0.2588  0.8933
11478TIP3    H255926   5.288   6.574  12.602  0.0284 -0.0657 -0.0149
11479TIP3   OH255927   6.355   1.118  17.160 -0.5352  0.1941 -0.4740
11479TIP3    H155928   6.294   1.060  17.207 -0.4162 -0.7671 -1.4869
11479TIP3    H255929   6.315   1.129  17.074 -0.2670  1.1715 -0.4686
11480TIP3   OH255930   3.224   5.078   2.829  0.1343  0.3213 -0.9464
11480TIP3    H155931   3.236   4.984   2.842 -1.3655  0.1868 -0.4539
11480TIP3    H255932   3.199   5.111   2.916 -1.4985  0.8218 -1.5929
11481TIP3   OH255933   3.232   0.431   1.412 -0.2923  0.5728  0.8037
11481TIP3    H155934   3.260   0.407   1.323 -1.8286  0.9204  0.2062
11481TIP3    H255935   3.262   0.521   1.423  2.4731 -0.4114  1.7640
11482TIP3   OH255936   3.504   5.442   5.387 -0.6200 -0.1331 -0.4027
11482TIP3    H155937   3.425   5.414   5.433 -1.1608  1.0488 -0.5783
11482TIP3    H255938   3.520   5.531   5.419 -0.1885  0.1670 -1.4365
11483TIP3   OH255939   2.315   0.894  12.419 -0.0483 -0.2839 -0.3597
11483TIP3    H155940   2.252   0.843  12.470  1.3739 -1.4606  0.2482
11483TIP3    H255941   2.295   0.985  12.440  0.6333 -0.7464  2.4975
11484TIP3   OH255942   1.719   1.004  10.518  0.1423  0.0414  0.1315
11484TIP3    H155943   1.690   0.927  10.469  0.6941 -0.7714  1.0466
11484TIP3    H255944   1.696   0.984  10.609 -0.4804  1.3330  0.2564
11485TIP3   OH255945   4.563   4.558   2.677  0.5600 -0.4580  0.0295
11485TIP3    H155946   4.475   4.591   2.696  0.4749  1.1060 -2.8574
11485TIP3    H255947   4.614   4.584   2.754 -0.8553  1.2754  0.4322
11486TIP3   OH255948   6.719   3.479   5.938 -0.2780  0.2047 -0.0940
11486TIP3    H155949   6.713   3.552   5.877  1.1191  0.8151  0.4666
11486TIP3    H255950   6.811   3.477   5.964 -0.2324 -1.9496 -0.3366
11487TIP3   OH255951   1.510   2.816   1.291  0.3354  0.4696 -0.5953
11487TIP3    H155952   1.606   2.816   1.286  0.3708  1.3048 -0.0380
11487TIP3    H255953   1.482   2.834   1.201  0.7118  0.4523 -0.7165
11488TIP3   OH255954   2.438   5.788   2.810 -0.1584  0.2368 -0.0289
11488TIP3    H155955   2.419   5.831   2.894  1.0185  1.1822 -0.2298
11488TIP3    H255956   2.517   5.737   2.828 -0.1900  0.0451 -0.4444
11489TIP3   OH255957   4.387   1.666   3.120 -0.9078  0.2518 -0.2633
11489TIP3    H155958   4.385   1.572   3.140  0.5708  0.1468 -0.5278
11489TIP3    H255959   4.391   1.709   3.205 -0.4075  0.0293 -0.1749
11490TIP3   OH255960   0.771   2.385  14.145 -0.1272 -0.2007 -0.6792
11490TIP3    H155961   0.706   2.323  14.110  1.6600 -1.7121 -1.4370
11490TIP3    H255962   0.848   2.373  14.088  0.7931  1.6137  0.1398
11491TIP3   OH255963   4.466   0.643  16.220 -0.4870  0.2981  0.1805
11491TIP3    H155964   4.460   0.664  16.126 -0.5397  3.7374  0.8814
11491TIP3    H255965   4.560   0.633  16.236 -0.5495 -1.3637 -0.4389
11492TIP3   OH255966   1.643   6.545   3.797 -0.2880 -0.6181 -0.1883
11492TIP3    H155967   1.694   6.501   3.730 -0.5922  0.4505 -1.1433
11492TIP3    H255968   1.706   6.565   3.866  0.0553 -1.5873 -0.2199
11493TIP3   OH255969   1.895   1.071   2.808 -0.2664  0.2637  0.8816
11493TIP3    H155970   1.806   1.043   2.833 -0.5841  0.9437  0.5036
11493TIP3    H255971   1.914   1.022   2.728 -1.3056  2.0360 -0.4726
11494TIP3   OH255972   1.321   4.230  16.735 -0.3256 -0.3536  0.1784
11494TIP3    H155973   1.244   4.249  16.683 -0.0000  0.5070 -0.0020
11494TIP3    H255974   1.309   4.140  16.764 -1.4210 -0.2088  0.1987
11495TIP3   OH255975   0.684   0.225  11.216  0.1061  0.4221 -0.2227
11495TIP3    H155976   0.702   0.209  11.124  0.5562 -0.9368  0.0916
11495TIP3    H255977   0.699   0.141  11.259  1.9063  1.4984  1.3804
11496TIP3   OH255978   0.188   0.964   1.040  0.0904  0.0103  0.2155
11496TIP3    H155979   0.278   0.962   1.008 -0.8959  2.0019 -2.8441
11496TIP3    H255980   0.141   0.902   0.984 -0.8183  0.3050  0.6427
11497TIP3   OH255981   0.298   3.418   2.952  0.4195 -0.6990 -0.2022
11497TIP3    H155982   0.295   3.409   3.047 -1.1173 -0.9843 -0.2624
11497TIP3    H255983   0.309   3.328   2.920 -3.0994 -1.1344 -0.4013
11498TIP3   OH255984   3.800   2.596   6.094  0.3768  0.0003 -0.7072
11498TIP3    H155985   3.814   2.657   6.167  1.9572 -2.6052  1.2759
11498TIP3    H255986   3.715   2.620   6.058 -0.1740  1.7449  1.6358
11499TIP3   OH255987   5.465   3.167  12.531 -0.0353 -0.0544 -0.2255
11499TIP3    H155988   5.398   3.165  12.462 -0.2076  0.6441 -0.0824
11499TIP3    H255989   5.450   3.250  12.576  1.7590  0.7156 -1.0036
11500TIP3   OH255990   5.730   1.168   2.847  0.4195  0.4140 -0.3187
11500TIP3    H155991   5.670   1.189   2.918  0.9815 -1.2922  0.6895
11500TIP3    H255992   5.774   1.251   2.827 -0.8751  1.2439  0.2394
11501TIP3   OH255993   5.819   6.810   1.352  0.0312  0.0596  0.8548
11501TIP3    H155994   5.780   6.839   1.269  1.1587  1.4110  0.7884
11501TIP3    H255995   5.883   6.743   1.325 -0.5023 -0.4184  0.7568
11502TIP3   OH255996   2.130   2.686   3.905  0.3554  0.1506  0.0382
11502TIP3    H155997   2.168   2.710   3.989 -0.7862 -1.5109  1.0501
11502TIP3    H255998   2.102   2.769   3.866 -1.0006  0.7430  2.2167
11503TIP3   OH255999   5.395   3.223  14.873 -0.3808  0.1054 -0.4219
11503TIP3    H156000   5.335   3.218  14.799 -0.3667  0.0736 -0.4303
11503TIP3    H256001   5.429   3.313  14.870 -0.3828  0.1049 -0.4526
11504TIP3   OH256002   5.807   1.506  17.051 -0.5636 -0.6668  0.1761
11504TIP3    H156003   5.899   1.481  17.041 -0.3036  1.1029 -2.5618
11504TIP3    H256004   5.772   1.506  16.961 -2.2892  2.0185  0.7739
11505TIP3   OH256005   1.438   1.036  15.337 -0.0948  0.4838  0.1598
11505TIP3    H156006   1.382   1.032  15.259 -1.8672  1.3277  1.3507
11505TIP3    H256007   1.403   0.967  15.394  0.0195  1.0901  0.9633
11506TIP3   OH256008   1.330   3.151   3.231  0.0471 -0.1691 -0.3020
11506TIP3    H156009   1.389   3.186   3.164  0.7062 -3.2658 -1.4058
11506TIP3    H256010   1.292   3.229   3.272  2.4936  1.8396 -1.7073
11507TIP3   OH256011   6.462   0.418   6.160  0.6031 -0.1129 -0.7871
11507TIP3    H156012   6.397   0.461   6.103 -0.4782 -1.3071 -0.4823
11507TIP3    H256013   6.473   0.331   6.122 -0.2042 -0.9582  0.8824
11508TIP3   OH256014   1.885   4.033   3.371  0.2470 -0.1995 -0.9281
11508TIP3    H156015   1.876   4.126   3.350  2.1441  0.5413  1.3598
11508TIP3    H256016   1.795   4.002   3.380 -0.3865  1.6879 -0.5154
11509TIP3   OH256017   0.411   5.446   4.909  0.2045  0.0858  0.4939
11509TIP3    H156018   0.479   5.413   4.968  0.8545 -1.0620 -0.8743
11509TIP3    H256019   0.329   5.423   4.951  0.6499  0.1558  1.4249
11510TIP3   OH256020   6.183   3.078   6.610  0.6661  0.5807  0.2723
11510TIP3    H156021   6.278   3.064   6.610  0.4202 -1.2259  1.3951
11510TIP3    H256022   6.167   3.141   6.680  1.3369  3.5089 -2.0695
11511TIP3   OH256023   5.679   3.158   5.847 -0.6777 -0.1796  0.6884
11511TIP3    H156024   5.629   3.110   5.913 -0.5108  0.7997  1.5422
11511TIP3    H256025   5.738   3.214   5.897 -1.4457  1.5338 -0.2688
11512TIP3   OH256026   3.959   0.982  15.632 -0.1887 -0.2103  0.2477
11512TIP3    H156027   4.032   1.044  15.622  0.4545 -0.9741  0.1981
11512TIP3    H256028   3.923   0.973  15.543 -0.6851  0.5567  0.3545
11513TIP3   OH256029   2.752   3.367  11.729  0.0826  0.1676 -0.5498
11513TIP3    H156030   2.841   3.341  11.754 -0.4943 -0.6747  0.7045
11513TIP3    H256031   2.710   3.388  11.812 -1.1992 -0.4397 -1.0326
11514TIP3   OH256032   0.560   6.031  11.832  0.2727  0.6016 -0.9563
11514TIP3    H156033   0.465   6.030  11.825  0.2293  0.2949 -0.3798
11514TIP3    H256034   0.586   5.942  11.809  0.2523  0.0697  0.9753
11515TIP3   OH256035   2.111   6.529   3.029 -0.1416  0.0732  0.1613
11515TIP3    H156036   2.168   6.603   3.048  0.0786  0.1362 -0.7473
11515TIP3    H256037   2.075   6.547   2.943 -2.9893  0.9376  1.4934
11516TIP3   OH256038   4.895   2.299  17.068  0.2517  0.0767  0.3041
11516TIP3    H156039   4.894   2.325  17.160 -0.9739  0.7883  0.1047
11516TIP3    H256040   4.889   2.382  17.020  0.1624 -0.3391 -0.4104
11517TIP3   OH256041   6.027   1.063   3.887 -0.2839  0.6680  0.0423
11517TIP3    H156042   5.976   1.120   3.945 -0.2811  0.3036  0.3988
11517TIP3    H256043   6.095   1.025   3.942  1.8394  2.9446 -0.9265
11518TIP3   OH256044   3.434   5.035  16.931 -0.5382  0.1478 -0.1068
11518TIP3    H156045   3.446   5.130  16.929  0.2865  0.0382 -0.3665
11518TIP3    H256046   3.343   5.022  16.903 -0.6122  0.8544 -0.2021
11519TIP3   OH256047   3.032   2.402  16.097 -0.0155 -0.4105 -0.4091
11519TIP3    H156048   3.082   2.478  16.125 -1.1286 -0.1871  1.0170
11519TIP3    H256049   3.097   2.338  16.068  1.0815 -0.1672  1.5132
11520TIP3   OH256050   5.311   5.561  14.215  0.2133 -0.0449  0.2278
11520TIP3    H156051   5.349   5.594  14.133 -0.3807 -1.4975 -0.6534
11520TIP3    H256052   5.292   5.469  14.196 -2.4965  0.3178  1.0946
11521TIP3   OH256053   6.503   4.061   4.677 -0.8190 -0.5290 -0.4350
11521TIP3    H156054   6.467   4.144   4.648  0.1557 -0.3538 -1.1606
11521TIP3    H256055   6.463   4.045   4.762 -1.1092  0.6137 -0.3602
11522TIP3   OH256056   1.225   0.849   6.442 -0.0584 -0.3078 -0.1887
11522TIP3    H156057   1.303   0.793   6.440 -0.9080 -1.5078 -0.1744
11522TIP3    H256058   1.172   0.813   6.513 -0.8061  0.2712 -0.4506
11523TIP3   OH256059   1.134   1.893  13.882  0.2569 -0.2102 -0.6099
11523TIP3    H156060   1.151   1.871  13.790 -0.7966 -1.4292 -0.5322
11523TIP3    H256061   1.208   1.855  13.930  1.2444  1.1610 -1.0349
11524TIP3   OH256062   3.070   0.241   0.344  0.1712  0.7928 -0.1067
11524TIP3    H156063   3.126   0.170   0.314  0.7747  0.5401  1.5958
11524TIP3    H256064   3.131   0.307   0.378 -0.5057  1.0515  0.6214
11525TIP3   OH256065   1.357   1.019  15.927  0.1404  0.2601  0.1265
11525TIP3    H156066   1.347   1.094  15.869 -1.0593  0.6988  0.8866
11525TIP3    H256067   1.412   0.957  15.877 -0.8275  0.6413 -1.4470
11526TIP3   OH256068   1.764   1.126  13.426 -0.6623  0.1473 -0.9514
11526TIP3    H156069   1.779   1.217  13.401 -1.4152  0.3267 -0.7382
11526TIP3    H256070   1.733   1.084  13.345 -0.4555  0.1085 -1.0117
11527TIP3   OH256071   3.492   4.159   4.298  0.3690 -0.1037 -0.8207
11527TIP3    H156072   3.545   4.205   4.362  0.4871 -0.5814 -0.5747
11527TIP3    H256073   3.548   4.089   4.265  0.7330  0.8760 -2.3361
11528TIP3   OH256074   6.807   0.643   0.612 -0.2509  0.2286 -0.6962
11528TIP3    H156075   6.847   0.710   0.555 -0.6688  0.0759 -1.1728
11528TIP3    H256076   6.865   0.567   0.603  1.4721  1.2162  1.5634
11529TIP3   OH256077   0.957   2.020   3.420  0.5737  0.8254 -0.0064
11529TIP3    H156078   0.994   1.934   3.400  0.2206  0.6631  0.0353
11529TIP3    H256079   0.964   2.028   3.515 -1.3607 -0.0679  0.2326
11530TIP3   OH256080   0.960   0.585   1.425  0.5348  0.4220 -0.2281
11530TIP3    H156081   1.030   0.536   1.468 -2.0827 -0.1776  3.5513
11530TIP3    H256082   0.935   0.531   1.350  2.1169 -0.7884  0.0866
11531TIP3   OH256083   2.740   2.708  14.414 -0.0129 -0.0901  0.0914
11531TIP3    H156084   2.802   2.678  14.481 -0.6442  1.6780  1.5181
11531TIP3    H256085   2.669   2.749  14.463  0.0633  2.2911 -1.6667
11532TIP3   OH256086   4.383   2.731  10.761  0.6864 -0.3046  0.2780
11532TIP3    H156087   4.448   2.711  10.694  0.5374 -2.3518  0.7108
11532TIP3    H256088   4.324   2.656  10.761  0.0039  0.1986  1.9083
11533TIP3   OH256089   6.060   1.776   4.160  0.0969  0.4635  0.2360
11533TIP3    H156090   6.026   1.860   4.128  2.9086  0.9169 -1.7685
11533TIP3    H256091   6.009   1.758   4.238 -1.7236  3.2263 -0.2393
11534TIP3   OH256092   1.967   4.616   0.270  0.0190 -0.7900 -0.8737
11534TIP3    H156093   2.062   4.607   0.275  0.0764  0.1768 -0.0882
11534TIP3    H256094   1.949   4.704   0.305 -0.9144  0.1784 -3.6314
11535TIP3   OH256095   5.400   2.956  16.470  0.4459  0.1208  0.3089
11535TIP3    H156096   5.337   2.953  16.542  0.0025  0.7752 -0.0439
11535TIP3    H256097   5.399   3.048  16.442  0.4254 -0.1829 -0.6885
11536TIP3   OH256098   2.750   1.068   3.034 -0.0736  0.0030 -0.4762
11536TIP3    H156099   2.800   1.101   3.109  0.5662  0.0797 -0.9295
11536TIP3    H256100   2.714   0.985   3.064  1.5165 -0.7545 -0.6063
11537TIP3   OH256101   6.764   1.577  11.652 -0.2876 -0.2731  0.0841
11537TIP3    H156102   6.803   1.655  11.691 -0.2904  0.3421 -1.1185
11537TIP3    H256103   6.676   1.604  11.627 -0.3300 -0.6943 -0.2365
11538TIP3   OH256104   1.313   4.756  13.708  0.2498  0.2209  0.2559
11538TIP3    H156105   1.286   4.844  13.681  0.7795  0.1908 -0.3861
11538TIP3    H256106   1.233   4.703  13.700  0.4113  0.1987 -1.3462
11539TIP3   OH256107   6.596   1.090   1.905  0.3650 -0.1243 -0.4286
11539TIP3    H156108   6.504   1.088   1.930  0.4922  2.0876  0.3015
11539TIP3    H256109   6.642   1.046   1.977  0.0186  0.0096 -0.1273
11540TIP3   OH256110   1.620   5.013   3.822  0.1409 -0.3501 -0.2250
11540TIP3    H156111   1.678   4.952   3.777 -0.6757 -1.1001 -0.2597
11540TIP3    H256112   1.550   5.031   3.760 -1.2994 -1.8359  0.9483
11541TIP3   OH256113   2.597   3.068   5.205 -0.3409  0.2685 -0.5286
11541TIP3    H156114   2.507   3.089   5.182 -0.5708  0.8904  0.8841
11541TIP3    H256115   2.620   3.132   5.273  0.1632 -1.7684  1.2687
11542TIP3   OH256116   5.991   0.198   4.340  0.4726  0.1724  0.2686
11542TIP3    H156117   5.933   0.130   4.305  0.0564  0.0478  1.1979
11542TIP3    H256118   5.960   0.279   4.300 -1.5321  0.3803  2.1655
11543TIP3   OH256119   5.079   6.230   3.058  0.0623  0.0600 -0.4884
11543TIP3    H156120   5.027   6.278   3.123 -0.2559 -0.0006 -0.6942
11543TIP3    H256121   5.107   6.297   2.996 -0.2061  0.0138 -0.6609
11544TIP3   OH256122   6.113   5.070  10.517 -0.0510  0.8693  0.5418
11544TIP3    H156123   6.131   5.160  10.489  0.7241  0.7196  0.5707
11544TIP3    H256124   6.025   5.075  10.556 -0.0954  1.5712  0.3628
11545TIP3   OH256125   6.185   0.090  16.943  0.1322  0.0952 -0.4307
11545TIP3    H156126   6.232   0.165  16.908 -1.8307  1.7811  0.4201
11545TIP3    H256127   6.097   0.096  16.904  0.1320 -2.1706 -0.9051
11546TIP3   OH256128   0.190   5.289  15.555  0.1480  0.1599  0.4498
11546TIP3    H156129   0.238   5.351  15.500  0.7829 -1.4295 -0.7948
11546TIP3    H256130   0.101   5.290  15.520  0.0293  0.7442  0.7590
11547TIP3   OH256131   5.792   5.721  14.595 -0.1316  0.5234  0.4179
11547TIP3    H156132   5.716   5.778  14.585  0.5490  0.9912 -2.4350
11547TIP3    H256133   5.860   5.777  14.631  0.0908  1.1671 -0.9797
11548TIP3   OH256134   4.548   5.602  13.508 -0.1905 -0.0805 -0.1152
11548TIP3    H156135   4.455   5.578  13.518 -0.2842 -0.2704 -1.3495
11548TIP3    H256136   4.547   5.673  13.444  0.5150 -0.0642 -0.1047
11549TIP3   OH256137   0.549   2.567  11.673 -0.5921  0.0099  0.1876
11549TIP3    H156138   0.631   2.603  11.706 -0.5981  0.8884 -0.7345
11549TIP3    H256139   0.541   2.602  11.584 -1.8564 -0.2365  0.1912
11550TIP3   OH256140   2.720   3.676  14.289 -0.1821 -0.2568 -0.2030
11550TIP3    H156141   2.638   3.685  14.338  0.2616 -1.2040  0.7275
11550TIP3    H256142   2.777   3.624  14.346  0.4343 -1.1669 -1.6058
11551TIP3   OH256143   1.511   5.822  15.601 -0.1058  0.1473  0.0397
11551TIP3    H156144   1.437   5.770  15.632  0.7017 -0.5136  0.8979
11551TIP3    H256145   1.550   5.858  15.681  1.3746 -0.7179 -0.2672
11552TIP3   OH256146   6.265   2.701   2.332 -0.4322 -0.3067  0.1581
11552TIP3    H156147   6.227   2.625   2.288 -1.6823 -0.3550  1.2883
11552TIP3    H256148   6.320   2.665   2.401 -0.3803 -0.2023  0.1719
11553TIP3   OH256149   6.159   2.138  13.567  0.4870 -0.3349 -0.0766
11553TIP3    H156150   6.073   2.170  13.541 -0.0597 -2.8566 -1.5292
11553TIP3    H256151   6.158   2.141  13.663 -0.9900  0.1993 -0.1011
11554TIP3   OH256152   3.738   3.360  17.247 -0.0395 -0.2072 -0.5623
11554TIP3    H156153   3.757   3.447  17.282  0.2758 -0.5760  0.1999
11554TIP3    H256154   3.678   3.376  17.174  0.3143  0.6764 -0.6645
11555TIP3   OH256155   0.901   5.417  12.122  0.6532  0.0955 -0.4691
11555TIP3    H156156   0.812   5.407  12.088  0.5066  0.8092 -0.3046
11555TIP3    H256157   0.934   5.328  12.127 -0.4542 -0.2824  0.5136
11556TIP3   OH256158   5.335   2.443  13.990 -0.0221  0.1406 -0.4825
11556TIP3    H156159   5.389   2.451  13.912  1.6846  2.9721  0.9041
11556TIP3    H256160   5.395   2.459  14.063 -1.6482 -2.0594  1.4071
11557TIP3   OH256161   1.857   3.284   1.327  0.3339  0.3934 -0.5769
11557TIP3    H156162   1.839   3.349   1.259 -2.2175  1.0586  0.6646
11557TIP3    H256163   1.886   3.336   1.403 -0.1412 -0.0403 -0.0926
11558TIP3   OH256164   0.636   4.952  14.097 -0.1831  0.2285 -0.0766
11558TIP3    H156165   0.615   4.948  14.190 -0.8187  0.6597 -0.1954
11558TIP3    H256166   0.728   4.928  14.092  0.1544  1.3108  0.7874
11559TIP3   OH256167   4.151   4.710   6.154 -0.4639 -0.2784  0.2431
11559TIP3    H156168   4.063   4.718   6.118 -0.6560  1.8455  1.0818
11559TIP3    H256169   4.208   4.706   6.078 -1.2125 -0.6848 -0.3037
11560TIP3   OH256170   4.179   3.250   4.220  0.0722  0.5735  0.1341
11560TIP3    H156171   4.151   3.289   4.303  0.8476 -0.6389  0.9791
11560TIP3    H256172   4.098   3.224   4.176 -0.4395  2.6645 -0.2285
11561TIP3   OH256173   4.842   3.511   0.884  0.2506  0.5755 -0.5648
11561TIP3    H156174   4.895   3.440   0.849  0.8939  1.0082 -0.4800
11561TIP3    H256175   4.772   3.467   0.931  1.1538 -0.0068  0.2539
11562TIP3   OH256176   0.553   0.301  16.965 -0.5381 -0.0737 -0.2808
11562TIP3    H156177   0.549   0.313  17.060 -0.0171 -0.1297 -0.2478
11562TIP3    H256178   0.534   0.208  16.952  0.3522 -0.2793 -0.1543
11563TIP3   OH256179   3.571   6.627   1.082  0.4976 -0.0470  0.0250
11563TIP3    H156180   3.627   6.703   1.069  0.4662  0.0845  0.6303
11563TIP3    H256181   3.497   6.641   1.024  1.6472 -0.7949 -1.6728
11564TIP3   OH256182   3.688   4.551   2.764 -0.6581 -0.0357  0.3750
11564TIP3    H156183   3.683   4.575   2.672 -0.4691 -0.6266  0.2083
11564TIP3    H256184   3.721   4.630   2.808 -0.8905  0.2899 -0.0411
11565TIP3   OH256185   3.343   2.506  11.066 -0.5745 -0.4419  0.2185
11565TIP3    H156186   3.248   2.511  11.058 -0.4825  1.1069 -0.0206
11565TIP3    H256187   3.363   2.413  11.054 -2.0841 -0.8336  0.6437
11566TIP3   OH256188   6.334   4.234  13.424  0.2466 -0.4369 -0.1670
11566TIP3    H156189   6.416   4.184  13.430  0.8376  0.2904 -1.7655
11566TIP3    H256190   6.293   4.223  13.509 -0.0971 -4.4076 -0.7428
11567TIP3   OH256191   6.171   2.693   1.295 -0.2629 -0.2596 -0.0636
11567TIP3    H156192   6.239   2.730   1.351 -1.3598 -0.0538  1.1642
11567TIP3    H256193   6.161   2.756   1.224 -0.5853  0.7033  0.8296
11568TIP3   OH256194   6.440   0.650   4.579  0.1129 -0.0107 -0.2866
11568TIP3    H156195   6.454   0.617   4.490  0.0471 -0.3890 -0.1590
11568TIP3    H256196   6.517   0.704   4.597  0.8961 -1.2093  0.0101
11569TIP3   OH256197   1.143   5.527  12.208  0.2791  0.1804 -0.0823
11569TIP3    H156198   1.188   5.600  12.167 -0.2505  0.3622 -0.3512
11569TIP3    H256199   1.064   5.515  12.155  0.7661 -1.1100 -0.5406
11570TIP3   OH256200   5.859   0.557   3.300 -0.5357  0.1081 -0.2071
11570TIP3    H156201   5.886   0.512   3.380 -0.4762 -0.6825 -0.6592
11570TIP3    H256202   5.922   0.528   3.234 -1.2398 -0.1159 -0.7898
11571TIP3   OH256203   5.798   4.105  12.575 -0.1276  0.6645 -0.2862
11571TIP3    H156204   5.720   4.060  12.608  0.1446  0.1432 -0.3540
11571TIP3    H256205   5.782   4.197  12.596 -0.6087  0.5191  0.0126
11572TIP3   OH256206   4.444   6.430  14.389  0.3669  0.6150  0.3095
11572TIP3    H156207   4.355   6.435  14.355  1.4220  0.4218 -2.5497
11572TIP3    H256208   4.465   6.337  14.390  0.3854  0.6204  1.4375
11573TIP3   OH256209   0.793   0.638  13.589  0.2000 -0.0344  0.5487
11573TIP3    H156210   0.774   0.686  13.509  0.9501  0.7283  0.8242
11573TIP3    H256211   0.709   0.599  13.614 -0.2191  0.4195 -0.1412
11574TIP3   OH256212   2.688   6.237  14.994 -0.0322 -0.3015  0.2265
11574TIP3    H156213   2.742   6.298  14.945  2.0818 -2.3089 -0.0332
11574TIP3    H256214   2.653   6.177  14.928  1.4933 -2.0169  0.9323
11575TIP3   OH256215   3.946   1.199  12.358  0.1458  0.1235 -0.6163
11575TIP3    H156216   3.858   1.167  12.379  0.4639 -0.6251 -0.3879
11575TIP3    H256217   3.948   1.288  12.392 -0.0485 -0.3539  0.6714
11576TIP3   OH256218   1.441   4.215   4.722 -0.3519  0.4440  0.1813
11576TIP3    H156219   1.427   4.176   4.808  0.6404  0.8464  0.5286
11576TIP3    H256220   1.531   4.247   4.724 -0.4520  0.8216 -0.8649
11577TIP3   OH256221   4.076   4.693  15.384 -0.2460  0.0557  0.1179
11577TIP3    H156222   4.136   4.677  15.311 -1.2009  0.2869 -0.7429
11577TIP3    H256223   4.064   4.788  15.385 -0.9221 -0.0222  0.0063
11578TIP3   OH256224   4.467   4.299   3.173 -0.3137  0.1798  0.5661
11578TIP3    H156225   4.438   4.212   3.202  0.5152  0.3179  1.8339
11578TIP3    H256226   4.563   4.295   3.179 -0.0511  0.1002 -2.5185
11579TIP3   OH256227   5.888   0.111  12.978 -0.5675 -0.2694  0.8083
11579TIP3    H156228   5.807   0.078  13.016 -0.7440 -0.6395  0.1177
11579TIP3    H256229   5.928   0.034  12.936 -0.6470  0.2436 -0.2272
11580TIP3   OH256230   3.945   6.755  15.089  0.8051  0.5064 -0.3040
11580TIP3    H156231   3.867   6.806  15.112 -0.2930  0.7134 -4.2366
11580TIP3    H256232   3.925   6.666  15.119 -0.8765  0.6121 -1.0408
11581TIP3   OH256233   3.772   0.804   3.812  0.1665  0.3931  0.0879
11581TIP3    H156234   3.780   0.710   3.796  0.1308  0.3737  0.1861
11581TIP3    H256235   3.764   0.843   3.725 -0.4614  0.2502  0.0825
11582TIP3   OH256236   2.748   4.827  11.087 -0.3005  0.1125  0.1179
11582TIP3    H156237   2.840   4.839  11.065 -0.2450 -0.0428  0.2652
11582TIP3    H256238   2.714   4.770  11.018  0.1463 -1.3086  1.0553
11583TIP3   OH256239   0.755   4.922  15.101 -0.3914  0.3026  0.0474
11583TIP3    H156240   0.702   5.000  15.084 -0.8655  0.0414  0.3322
11583TIP3    H256241   0.724   4.889  15.185 -0.4836 -0.4329 -0.2717
11584TIP3   OH256242   0.292   1.946  12.433 -0.1965  0.0413 -0.5716
11584TIP3    H156243   0.237   2.003  12.487 -0.7086 -0.5777 -0.4285
11584TIP3    H256244   0.381   1.974  12.451 -0.4695  1.1975 -0.9548
11585TIP3   OH256245   0.921   6.749   0.098 -0.4120  0.4808  0.3303
11585TIP3    H156246   0.943   6.717   0.185 -1.9236 -0.4867  0.3904
11585TIP3    H256247   1.003   6.780   0.061  0.3263  0.4221  1.9077
11586TIP3   OH256248   3.559   2.437   4.502 -0.3288 -0.1042  0.0086
11586TIP3    H156249   3.599   2.384   4.433 -0.4416  1.8333 -1.5661
11586TIP3    H256250   3.623   2.506   4.519 -1.4534  0.9314  0.0162
11587TIP3   OH256251   3.167   1.814  14.422 -0.2422 -0.0898  0.0668
11587TIP3    H156252   3.094   1.811  14.483 -0.3544 -1.3353 -0.1056
11587TIP3    H256253   3.219   1.736  14.443  0.6193  0.3683 -0.3205
11588TIP3   OH256254   6.108   4.208  12.581 -0.4533  0.0071 -0.0452
11588TIP3    H156255   6.167   4.140  12.549  0.5239  0.9814 -0.3340
11588TIP3    H256256   6.048   4.224  12.509 -1.1093 -0.9983  0.2550
11589TIP3   OH256257   3.645   6.770   0.749  0.3702  0.0783 -0.2330
11589TIP3    H156258   3.712   6.787   0.683  0.1846 -0.1413 -0.4784
11589TIP3    H256259   3.592   6.699   0.712 -0.3535  0.6423 -0.3013
11590TIP3   OH256260   3.393   4.394   0.037 -0.5020  0.0592 -0.3793
11590TIP3    H156261   3.464   4.375  -0.025 -0.9328 -0.8616 -0.5974
11590TIP3    H256262   3.407   4.485   0.062  0.3958  0.0694 -0.8997
11591TIP3   OH256263   1.610   6.142  12.621 -0.2624 -0.1900  0.1886
11591TIP3    H156264   1.571   6.215  12.571 -0.0551 -1.2716 -1.5812
11591TIP3    H256265   1.578   6.063  12.577 -0.0376 -1.1727  1.7624
11592TIP3   OH256266   3.229   6.429   0.740  0.5889  0.2316  0.3034
11592TIP3    H156267   3.257   6.366   0.807  0.4959 -0.0513  0.0773
11592TIP3    H256268   3.152   6.471   0.779 -0.4486 -1.0840 -0.2821
11593TIP3   OH256269   2.913   6.741   3.913 -0.0665 -0.2061 -0.3514
11593TIP3    H156270   2.907   6.668   3.974 -0.8879  0.0019 -0.1814
11593TIP3    H256271   2.963   6.808   3.960 -0.7783 -0.0103  0.1340
11594TIP3   OH256272   3.276   1.448  16.740 -0.1570 -0.1438 -0.3857
11594TIP3    H156273   3.209   1.467  16.805  0.4755  0.0035  0.2272
11594TIP3    H256274   3.267   1.519  16.676 -1.5801 -0.9551 -1.1099
11595TIP3   OH256275   6.814   4.481  16.662  0.5659  0.0030 -0.3045
11595TIP3    H156276   6.873   4.435  16.603  1.6704  1.0995 -0.0660
11595TIP3    H256277   6.726   4.458  16.630  1.0780 -2.1040 -0.2980
11596TIP3   OH256278   3.975   0.595   0.703 -0.5729 -0.2618  0.0688
11596TIP3    H156279   3.952   0.535   0.632  1.0530  0.1559 -0.8261
11596TIP3    H256280   3.918   0.569   0.776  0.6005 -3.3639 -0.0599
11597TIP3   OH256281   1.919   4.148  13.781 -0.1993  0.1110  0.5718
11597TIP3    H156282   1.867   4.184  13.852 -0.4057  0.4791  0.2362
11597TIP3    H256283   1.945   4.224  13.729 -0.3226 -0.1849  0.0720
11598TIP3   OH256284   4.365   1.801  14.039 -0.1801 -0.0527 -0.0316
11598TIP3    H156285   4.341   1.888  14.006  1.5441  0.7667  0.8430
11598TIP3    H256286   4.339   1.741  13.969 -1.7710  1.1107 -0.4734
11599TIP3   OH256287   2.238   1.405  12.585  0.0155  0.0541  0.0280
11599TIP3    H156288   2.228   1.455  12.504 -0.0436  0.2817  0.1752
11599TIP3    H256289   2.168   1.437  12.642  0.3593  0.2420  0.3445
11600TIP3   OH256290   5.233   1.085   3.498  0.0200 -0.2031 -0.3602
11600TIP3    H156291   5.240   1.058   3.590 -2.7130  1.4867  0.3859
11600TIP3    H256292   5.216   1.003   3.451  0.2169 -0.9294  0.7899
11601TIP3   OH256293   5.871   3.145   0.520  0.1602  0.1152  0.1955
11601TIP3    H156294   5.819   3.115   0.446 -1.2696 -0.6843  1.4845
11601TIP3    H256295   5.846   3.236   0.533  0.4721  0.2788 -0.3426
11602TIP3   OH256296   5.591   4.267   2.225  0.5068 -0.0721 -0.3460
11602TIP3    H156297   5.515   4.324   2.222  0.1965 -0.4730 -0.1638
11602TIP3    H256298   5.561   4.189   2.272  0.8960 -0.4258 -0.6791
11603TIP3   OH256299   0.425   4.228   3.824 -0.5978  0.6011  0.0013
11603TIP3    H156300   0.384   4.300   3.775  0.7005 -0.1403 -2.2427
11603TIP3    H256301   0.371   4.152   3.806  2.2342 -0.6502 -3.9268
11604TIP3   OH256302   5.747   3.357  15.594 -0.3650  0.3669 -0.1583
11604TIP3    H156303   5.744   3.442  15.550 -0.0195 -0.0399 -0.9877
11604TIP3    H256304   5.817   3.365  15.658 -1.3994  1.2274  0.8871
11605TIP3   OH256305   6.424   0.150   3.793  0.6356  0.0574 -0.2702
11605TIP3    H156306   6.437   0.072   3.848  1.8089  0.2019 -0.3280
11605TIP3    H256307   6.400   0.115   3.707  0.0559 -0.2039 -0.0075
11606TIP3   OH256308   6.311   4.137  15.378 -0.1872 -0.0981  0.1382
11606TIP3    H156309   6.286   4.228  15.361 -0.4225 -0.1175  0.3837
11606TIP3    H256310   6.314   4.097  15.291 -1.9438 -0.3326  0.1812
11607TIP3   OH256311   3.790   1.549  12.912 -0.1325  0.6849  0.3115
11607TIP3    H156312   3.774   1.538  13.006  0.5225  3.0020  0.7090
11607TIP3    H256313   3.709   1.520  12.870 -0.9416  0.9889  1.6609
11608TIP3   OH256314   6.549   4.435   1.602  0.1243 -0.7531  0.5891
11608TIP3    H156315   6.617   4.501   1.613  0.5362 -0.7748 -1.5399
11608TIP3    H256316   6.592   4.366   1.551 -0.3571 -2.5865  2.6045
11609TIP3   OH256317   1.798   5.108  14.958 -0.3123  0.4011 -0.6507
11609TIP3    H156318   1.703   5.112  14.972 -0.7995 -0.6717 -3.2987
11609TIP3    H256319   1.809   5.038  14.895  2.0295  2.2141 -2.3161
11610TIP3   OH256320   3.264   6.448   4.567 -0.5694  0.1869 -0.8544
11610TIP3    H156321   3.296   6.466   4.656 -0.1768 -3.3976 -0.1810
11610TIP3    H256322   3.336   6.474   4.510  0.7526 -1.1219  0.1737
11611TIP3   OH256323   6.796   0.823  10.825 -0.1255 -0.6806 -0.0931
11611TIP3    H156324   6.784   0.917  10.817  0.6059 -0.8024 -3.1468
11611TIP3    H256325   6.708   0.789  10.845 -0.3646  0.6159  1.1278
11612TIP3   OH256326   5.400   2.990  14.406 -0.4925  0.4612  0.1344
11612TIP3    H156327   5.388   2.901  14.373 -2.4924  0.2578  1.3723
11612TIP3    H256328   5.460   3.031  14.343 -0.4186 -1.4035 -1.0394
11613TIP3   OH256329   5.746   3.712  12.451 -0.2530  0.1590  0.1414
11613TIP3    H156330   5.774   3.645  12.389  0.6785  1.1984 -0.5805
11613TIP3    H256331   5.789   3.688  12.533  0.3317  0.0534 -0.1940
11614TIP3   OH256332   3.863   0.622  15.023  0.2973  0.9784 -0.3721
11614TIP3    H156333   3.804   0.692  14.994  0.0701  1.3662  0.9686
11614TIP3    H256334   3.904   0.657  15.102 -1.2434 -1.0854  1.4285
11615TIP3   OH256335   1.323   3.296  17.081 -0.0231  0.3266 -0.1183
11615TIP3    H156336   1.322   3.296  16.985 -1.2178  3.2894 -0.1811
11615TIP3    H256337   1.235   3.268  17.106 -0.3601  1.5164  0.0535
11616TIP3   OH256338   4.015   0.652  16.257 -0.2399  0.1586 -0.2122
11616TIP3    H156339   4.008   0.743  16.286 -0.8384  0.0654 -0.0681
11616TIP3    H256340   3.930   0.613  16.277 -0.1698 -0.2931 -0.7617
11617TIP3   OH256341   6.019   2.089  13.221  0.4043 -0.7675  0.0107
11617TIP3    H156342   6.074   2.014  13.245  0.0730  0.0957  3.7530
11617TIP3    H256343   6.082   2.155  13.191  0.8175 -1.9993 -1.9172
11618TIP3   OH256344   6.568   6.801  12.719 -0.6778  0.3784 -0.3666
11618TIP3    H156345   6.510   6.769  12.650 -0.3102  1.3171 -1.1366
11618TIP3    H256346   6.594   6.723  12.768  0.7462 -0.6201 -2.6131
11619TIP3   OH256347   6.005   3.579  10.596  0.2847 -0.0442 -0.2578
11619TIP3    H156348   6.057   3.501  10.617 -0.4726  0.4060  3.6573
11619TIP3    H256349   6.064   3.652  10.615 -0.5800  0.3883  0.8600
11620TIP3   OH256350   6.766   1.509   0.475  0.3190  0.0422 -0.0153
11620TIP3    H156351   6.777   1.578   0.409  0.1891  0.1445  0.0712
11620TIP3    H256352   6.708   1.547   0.541  0.3033 -0.1243  0.0682
11621TIP3   OH256353   5.179   5.147   4.769 -0.0157  0.0202 -0.0506
11621TIP3    H156354   5.116   5.180   4.705  0.6774 -1.7805 -1.7042
11621TIP3    H256355   5.130   5.085   4.822  0.3363 -1.4087 -1.3605
11622TIP3   OH256356   6.701   0.804  17.034 -0.2266 -0.0438  0.3560
11622TIP3    H156357   6.734   0.786  17.123 -0.3862  2.6366  0.9780
11622TIP3    H256358   6.612   0.835  17.048 -0.1070  0.7748 -0.7342
11623TIP3   OH256359   5.058   1.580  13.615 -0.2707 -0.0311  0.3966
11623TIP3    H156360   5.062   1.593  13.521 -1.1159 -0.3791  0.3086
11623TIP3    H256361   5.087   1.663  13.652 -0.3398  0.2464 -0.1652
11624TIP3   OH256362   3.143   2.922   1.997  0.0461  0.0277 -0.0026
11624TIP3    H156363   3.087   2.924   2.075 -0.2502  0.7395 -0.2209
11624TIP3    H256364   3.083   2.943   1.925  0.0111 -2.1032 -0.6232
11625TIP3   OH256365   3.823   2.787   5.155 -0.2213  0.3558  0.0875
11625TIP3    H156366   3.731   2.761   5.160  0.1446 -1.6794 -2.6276
11625TIP3    H256367   3.851   2.794   5.246 -2.6521 -0.5322  0.9309
11626TIP3   OH256368   5.996   4.218   1.799  0.0263  0.0437  0.2104
11626TIP3    H156369   5.920   4.263   1.763  0.0475  0.7450  1.0216
11626TIP3    H256370   6.002   4.136   1.749  0.2058  1.0988 -1.5065
11627TIP3   OH256371   4.161   4.675   2.484 -0.1973 -0.0342 -0.1160
11627TIP3    H156372   4.202   4.637   2.562  1.5793  0.6815 -0.6789
11627TIP3    H256373   4.178   4.611   2.415 -2.2149 -0.9138  0.1658
11628TIP3   OH256374   3.521   4.050  14.040  0.0452 -0.1202 -0.4678
11628TIP3    H156375   3.571   4.106  14.099  0.0229 -0.1453 -0.4237
11628TIP3    H256376   3.502   3.972  14.092  1.3587 -0.8166 -1.0014
11629TIP3   OH256377   5.983   2.274  15.681  0.0766 -0.3452  0.0995
11629TIP3    H156378   5.966   2.221  15.602 -0.3797 -1.0681  0.6741
11629TIP3    H256379   5.939   2.357  15.663 -0.8741 -0.8573 -0.0035
11630TIP3   OH256380   6.383   0.336  12.366 -0.2449 -0.2095 -0.5191
11630TIP3    H156381   6.346   0.283  12.296 -3.0126 -1.6367  1.9046
11630TIP3    H256382   6.384   0.425  12.331  0.0161 -1.1254 -2.9344
11631TIP3   OH256383   0.427   1.143   2.762  0.0594  0.2626  0.0752
11631TIP3    H156384   0.379   1.117   2.682  0.7162  2.0737 -0.9194
11631TIP3    H256385   0.425   1.238   2.761  0.8384  0.3029  1.7928
11632TIP3   OH256386   4.009   3.802  15.397  0.0047  0.0382 -0.2698
11632TIP3    H156387   3.959   3.879  15.426  0.3381  0.6079 -1.2072
11632TIP3    H256388   4.100   3.831  15.399  0.1071 -0.2391 -0.9367
11633TIP3   OH256389   4.928   4.955  11.654 -0.1282 -0.7149 -0.2695
11633TIP3    H156390   4.920   4.903  11.734 -1.3368  0.5047  0.4172
11633TIP3    H256391   4.879   5.035  11.672  0.3013 -0.0569 -1.9273
11634TIP3   OH256392   5.215   3.974  13.284  0.6415  0.3810 -0.1988
11634TIP3    H156393   5.125   3.999  13.305  0.6292 -0.8675  1.3561
11634TIP3    H256394   5.267   4.004  13.358  0.7274 -3.3485  1.3759
11635TIP3   OH256395   5.458   3.391  12.680  0.4886  0.1037  0.2900
11635TIP3    H156396   5.505   3.373  12.762 -0.5889 -0.3062  0.8347
11635TIP3    H256397   5.443   3.485  12.682 -0.2866 -0.0259  0.9895
11636TIP3   OH256398   4.058   4.914   5.429  0.3483  0.2966 -0.2831
11636TIP3    H156399   4.081   4.829   5.468 -4.1554 -0.2708  1.4145
11636TIP3    H256400   4.055   4.897   5.335 -0.8397 -1.5364  0.0562
11637TIP3   OH256401   5.590   1.594  14.161  0.0376  0.4952 -0.0815
11637TIP3    H156402   5.629   1.631  14.240 -0.0114  0.4491 -0.0354
11637TIP3    H256403   5.642   1.516  14.142  2.2152  2.3756 -2.0456
11638TIP3   OH256404   4.383   1.564  13.078  0.1584 -0.2280  0.0461
11638TIP3    H156405   4.293   1.532  13.072 -0.1661 -0.1537  3.4964
11638TIP3    H256406   4.389   1.632  13.011 -2.6069  0.3579  0.3303
11639TIP3   OH256407   5.934   2.381   4.031 -0.4074 -0.4833  0.3783
11639TIP3    H156408   5.923   2.444   4.102  1.1989 -0.1418  0.3481
11639TIP3    H256409   5.859   2.323   4.038  0.0170 -0.7931  2.7245
11640TIP3   OH256410   5.354   4.179   4.787  0.5010 -0.2180  0.0884
11640TIP3    H156411   5.405   4.116   4.736 -1.7010 -0.6751 -1.6001
11640TIP3    H256412   5.399   4.262   4.774 -0.0716 -0.3041 -2.7313
11641TIP3   OH256413   0.669   4.761   3.077 -0.5377  0.0768 -0.0698
11641TIP3    H156414   0.740   4.795   3.131  0.6843  0.9218 -2.1240
11641TIP3    H256415   0.685   4.666   3.073  1.4262  0.4407 -1.7700
11642TIP3   OH256416   3.635   3.630   0.876  0.3129 -0.0605  0.6006
11642TIP3    H156417   3.619   3.538   0.895 -1.6286  0.2581  0.5766
11642TIP3    H256418   3.693   3.660   0.947 -1.1310 -0.6611  2.0519
11643TIP3   OH256419   3.634   1.060  14.306  0.8270 -0.1285  0.3016
11643TIP3    H156420   3.724   1.030  14.321  0.9189 -1.3975 -2.5541
11643TIP3    H256421   3.579   0.996  14.351  1.2818 -0.6504  0.1224
11644TIP3   OH256422   3.285   4.580  11.229  0.3075  0.2714 -0.4746
11644TIP3    H156423   3.258   4.655  11.176 -0.7891 -0.3598 -0.8106
11644TIP3    H256424   3.379   4.594  11.244  0.0654  1.8235 -0.3440
11645TIP3   OH256425   6.196   2.517   1.557 -0.2460 -0.6635  0.2667
11645TIP3    H156426   6.253   2.576   1.508  0.3938 -0.0851  1.6717
11645TIP3    H256427   6.151   2.573   1.619  0.7701 -1.7070  1.9973
11646TIP3   OH256428   1.249   3.429   4.157 -0.2048 -0.2905 -0.0501
11646TIP3    H156429   1.243   3.375   4.235 -1.0779  1.0694  0.8492
11646TIP3    H256430   1.290   3.510   4.187 -1.5139  0.6548 -0.7578
11647TIP3   OH256431   1.187   5.879  12.586 -0.4081 -0.6606  0.0649
11647TIP3    H156432   1.177   5.785  12.571  2.1365 -0.9446 -0.0998
11647TIP3    H256433   1.121   5.919  12.529 -1.9621 -2.3355  0.6245
11648TIP3   OH256434   6.370   3.315   1.840 -0.1804 -0.1194  0.2567
11648TIP3    H156435   6.431   3.260   1.888 -1.0145  0.2977  1.8240
11648TIP3    H256436   6.365   3.396   1.891 -2.2774 -0.2752  0.3448
11649TIP3   OH256437   5.390   0.707  15.102  0.2104  0.2368 -0.8306
11649TIP3    H156438   5.414   0.658  15.024 -0.3000 -0.1737 -0.7362
11649TIP3    H256439   5.418   0.652  15.175 -1.1045 -0.3150 -0.7163
11650TIP3   OH256440   0.766   4.108   6.910 -0.4691  0.3368  0.0969
11650TIP3    H156441   0.790   4.161   6.834 -0.8521  0.1973 -0.1242
11650TIP3    H256442   0.764   4.170   6.983 -0.1427  0.4803 -0.0142
11651TIP3   OH256443   2.357   5.004   4.425 -0.1216  0.0233  0.0386
11651TIP3    H156444   2.348   4.949   4.347  0.2532  0.5445 -0.3755
11651TIP3    H256445   2.419   4.957   4.481 -1.0291 -0.7647  0.3964
11652TIP3   OH256446   6.791   1.222  16.351 -0.1130  0.3783  0.1814
11652TIP3    H156447   6.773   1.155  16.417  0.5732  0.4850  0.4761
11652TIP3    H256448   6.858   1.183  16.295 -1.0937  0.0631 -0.8030
11653TIP3   OH256449   2.051   6.346   2.308  0.3525  0.6144  0.0476
11653TIP3    H156450   1.982   6.306   2.255  3.1019 -2.2312 -1.4975
11653TIP3    H256451   2.030   6.321   2.398 -0.9802  0.3478 -0.3318
11654TIP3   OH256452   2.762   1.649  11.034  0.2117  0.0093  0.2179
11654TIP3    H156453   2.823   1.640  10.961  0.8403 -0.0641  0.7433
11654TIP3    H256454   2.704   1.721  11.009  0.6331  0.2013 -0.2018
11655TIP3   OH256455   1.121   1.680  15.891 -0.3672 -0.5011  0.7534
11655TIP3    H156456   1.075   1.597  15.908 -3.2622  0.5052 -1.6406
11655TIP3    H256457   1.181   1.660  15.820  0.8193 -1.1247  1.9090
11656TIP3   OH256458   2.660   0.104   0.121  0.1737  0.3261  0.3460
11656TIP3    H156459   2.736   0.147   0.162 -0.8287  2.6111 -0.1243
11656TIP3    H256460   2.589   0.116   0.184 -0.0439 -0.9724  0.3560
11657TIP3   OH256461   0.853   2.381  12.124  0.3659 -0.0850  0.5875
11657TIP3    H156462   0.789   2.439  12.084 -0.5448 -1.3796  0.1542
11657TIP3    H256463   0.924   2.376  12.060 -0.5252 -1.1548 -0.3284
11658TIP3   OH256464   4.114   1.747  16.588 -0.1347  0.0577  0.2475
11658TIP3    H156465   4.164   1.827  16.570  0.1221  0.3374  2.1103
11658TIP3    H256466   4.026   1.778  16.608 -0.5220 -0.2827 -0.8750
11659TIP3   OH256467   6.040   0.467  14.862 -0.2864 -0.5261 -0.5972
11659TIP3    H156468   6.116   0.485  14.806  0.0324  0.6586  0.1891
11659TIP3    H256469   6.006   0.554  14.883 -0.4129 -0.9578  1.0383
11660TIP3   OH256470   4.094   5.197  14.561 -0.3121 -0.0215 -0.0039
11660TIP3    H156471   4.145   5.258  14.508 -1.1461  2.2807  1.7327
11660TIP3    H256472   4.012   5.187  14.513  0.3213 -0.7849 -0.9338
11661TIP3   OH256473   3.553   6.300   2.080 -0.3187  0.1712  0.0844
11661TIP3    H156474   3.570   6.222   2.132  3.1906  1.5420  1.0748
11661TIP3    H256475   3.592   6.281   1.994  0.2877  0.7188  0.2366
11662TIP3   OH256476   4.354   3.857  15.684 -0.1976  0.0166 -0.1049
11662TIP3    H156477   4.360   3.878  15.778  0.0146  0.5500 -0.2384
11662TIP3    H256478   4.424   3.794  15.669  1.0280  1.4015 -0.3120
11663TIP3   OH256479   2.817   0.238  14.452 -0.6915  0.0067  0.1507
11663TIP3    H156480   2.824   0.187  14.371  0.9711  0.0316  0.2607
11663TIP3    H256481   2.825   0.329  14.423  0.5384 -0.0146  0.3983
11664TIP3   OH256482   5.284   5.231   5.674 -0.3479 -0.4499  1.1047
11664TIP3    H156483   5.238   5.314   5.687 -0.9315 -0.6801  0.5776
11664TIP3    H256484   5.374   5.256   5.654 -0.6351  0.0881  0.4444
11665TIP3   OH256485   3.660   2.102   4.945 -0.2907  0.1019 -0.3414
11665TIP3    H156486   3.665   2.150   4.862  0.5912 -0.3776 -0.5735
11665TIP3    H256487   3.680   2.167   5.012 -2.0363  0.7422 -0.4005
11666TIP3   OH256488   3.870   1.917   3.372  0.0467  0.2215 -0.3215
11666TIP3    H156489   3.801   1.874   3.422 -0.3407 -0.0419 -1.0761
11666TIP3    H256490   3.828   1.997   3.338 -0.5037 -0.9164 -2.4324
11667TIP3   OH256491   5.765   1.860  14.077 -0.1822  0.2688 -0.0650
11667TIP3    H156492   5.853   1.894  14.069 -0.0895  0.3730  1.2518
11667TIP3    H256493   5.744   1.825  13.990  1.4433 -0.4671 -0.1789
11668TIP3   OH256494   6.675   4.696  14.719  0.2578 -0.3515  0.2014
11668TIP3    H156495   6.667   4.739  14.633 -2.9553  1.5094  1.3411
11668TIP3    H256496   6.763   4.720  14.749  0.2433  1.6415 -1.2071
11669TIP3   OH256497   1.048   4.788  15.263  0.3123 -0.1801 -0.5515
11669TIP3    H156498   0.982   4.836  15.313  1.9035 -0.1018  1.5194
11669TIP3    H256499   1.100   4.856  15.220  0.8640 -0.1391  0.1787
11670TIP3   OH256500   2.806   5.142  13.971 -0.4850  0.2968 -0.2641
11670TIP3    H156501   2.725   5.161  14.017 -0.8330 -1.1780 -0.2469
11670TIP3    H256502   2.831   5.225  13.931 -1.6972  0.8956  0.2029
11671TIP3   OH256503   3.782   2.486   5.382 -0.1692  0.1625  0.4425
11671TIP3    H156504   3.817   2.458   5.298  0.0774  2.0972 -0.1377
11671TIP3    H256505   3.849   2.462   5.446 -0.5260 -1.6513  0.1614
11672TIP3   OH256506   0.018   2.109  13.969  0.1665  0.3307  0.1722
11672TIP3    H156507  -0.068   2.128  14.006 -0.1630 -0.8187  0.0181
11672TIP3    H256508   0.080   2.128  14.039 -0.4166 -1.3721  1.1631
11673TIP3   OH256509   4.802   6.579  14.464  0.0435  0.4588 -0.0913
11673TIP3    H156510   4.887   6.538  14.450  0.7207  1.5321  0.7485
11673TIP3    H256511   4.766   6.535  14.541  0.1631  0.4982 -0.0129
11674TIP3   OH256512   6.320   5.081   3.754 -0.2853 -0.3928 -0.3807
11674TIP3    H156513   6.277   5.151   3.803  0.2821 -0.9177  0.8876
11674TIP3    H256514   6.256   5.056   3.687 -1.3419 -0.1167  0.5191
11675TIP3   OH256515   4.678   5.562   7.026  0.3944 -0.3944 -0.1896
11675TIP3    H156516   4.599   5.617   7.018  0.5873 -0.0563  0.1863
11675TIP3    H256517   4.645   5.472   7.026 -0.0156 -0.2481  0.1563
11676TIP3   OH256518   3.068   4.831   4.015 -0.5939  0.1179 -0.2380
11676TIP3    H156519   3.019   4.905   3.981 -0.3852 -0.0666 -0.9546
11676TIP3    H256520   3.102   4.861   4.100 -0.9503  0.6482 -0.2818
11677TIP3   OH256521   2.413   0.572  12.399 -0.0769  0.5135  0.4865
11677TIP3    H156522   2.400   0.632  12.325  0.4367 -0.8171 -0.6892
11677TIP3    H256523   2.440   0.490  12.359 -1.6861 -0.8010  2.0427
11678TIP3   OH256524   3.025   0.685   1.576 -0.1630 -0.2202  0.0552
11678TIP3    H156525   3.016   0.677   1.671  0.7942 -0.3910  0.1369
11678TIP3    H256526   2.979   0.609   1.541  0.7437 -0.9547  0.4456
11679TIP3   OH256527   4.738   1.510  16.270 -0.2819  0.2408  0.3856
11679TIP3    H156528   4.737   1.517  16.365  1.0403  1.4348  0.3225
11679TIP3    H256529   4.697   1.590  16.238 -0.0485  0.1871 -0.0635
11680TIP3   OH256530   1.412   1.970   4.898 -0.1655  0.1652  0.2737
11680TIP3    H156531   1.483   1.958   4.961 -0.8397  1.7240  1.3667
11680TIP3    H256532   1.456   2.002   4.819  0.3267  1.5918  1.0948
11681TIP3   OH256533   4.091   1.543  15.745 -0.2441 -0.5025 -0.3067
11681TIP3    H156534   4.009   1.590  15.755  0.2964  0.5373 -0.6783
11681TIP3    H256535   4.154   1.610  15.716  0.8419 -1.1842  0.4301
11682TIP3   OH256536   6.300   0.519  14.752  0.2439 -0.3078  0.1760
11682TIP3    H156537   6.311   0.461  14.677  1.7961  0.0246  0.1401
11682TIP3    H256538   6.389   0.546  14.775 -0.4020  1.4802  0.6431
11683TIP3   OH256539   5.896   5.128  11.175 -0.3708 -0.0905 -0.1957
11683TIP3    H156540   5.823   5.068  11.187 -2.7265  2.1871 -2.2323
11683TIP3    H256541   5.888   5.190  11.247 -0.3876  0.0634 -0.3294
11684TIP3   OH256542   1.945   0.202  13.912  0.0397  0.2957 -0.4381
11684TIP3    H156543   1.900   0.117  13.910 -2.2031  1.4383  0.2195
11684TIP3    H256544   2.014   0.191  13.978  0.4770 -1.3416 -1.1442
11685TIP3   OH256545   6.174   3.776  16.534 -0.7764  0.1302 -0.0405
11685TIP3    H156546   6.212   3.725  16.605 -0.2188  0.1540 -0.3181
11685TIP3    H256547   6.173   3.716  16.459  1.0847  0.9240 -0.7148
11686TIP3   OH256548   3.991   3.390   2.746 -0.3742 -0.1971 -0.0836
11686TIP3    H156549   3.958   3.313   2.700 -0.7325 -0.4675  0.6159
11686TIP3    H256550   4.048   3.354   2.815 -1.1897  0.1275  0.7634
11687TIP3   OH256551   4.060   5.753  12.596  0.0154 -0.1910  0.8925
11687TIP3    H156552   3.996   5.713  12.655 -0.6882 -3.0920 -1.6934
11687TIP3    H256553   4.044   5.847  12.602 -1.3028 -0.5631  3.8129
11688TIP3   OH256554   0.379   0.399  15.008 -0.0209  0.4401 -0.2383
11688TIP3    H156555   0.378   0.387  14.913  0.8354 -0.6546 -0.1143
11688TIP3    H256556   0.403   0.313  15.043 -1.3710  0.5680  1.0185
11689TIP3   OH256557   4.337   0.231  16.430 -0.2000 -0.0765 -0.3474
11689TIP3    H156558   4.300   0.292  16.366 -2.2535 -0.9638 -0.0470
11689TIP3    H256559   4.414   0.194  16.386 -0.1344  1.1669 -1.3192
11690TIP3   OH256560   0.728   1.240   6.652  0.1195 -0.1086  0.4199
11690TIP3    H156561   0.724   1.296   6.575  0.2183 -0.7535 -0.0597
11690TIP3    H256562   0.819   1.208   6.654  0.3753  0.6308  1.3270
11691TIP3   OH256563   0.633   1.107   4.183  0.4880  0.2291  0.0514
11691TIP3    H156564   0.554   1.054   4.169  0.4264  0.3827 -0.1976
11691TIP3    H256565   0.608   1.194   4.151  1.3100 -0.1243 -1.6123
11692TIP3   OH256566   4.137   6.104  14.777  0.1689 -0.3641 -0.2274
11692TIP3    H156567   4.072   6.055  14.827  0.3721  0.8593  1.2673
11692TIP3    H256568   4.221   6.074  14.813  0.3161  0.4996  0.1542
11693TIP3   OH256569   0.263   3.700   6.899  0.3156 -0.3243  0.4182
11693TIP3    H156570   0.236   3.664   6.983  0.2673 -1.6810 -0.1652
11693TIP3    H256571   0.215   3.649   6.834  2.2267 -0.9716 -0.5307
11694TIP3   OH256572   4.887   2.633  16.305  0.6675  0.4362  0.5841
11694TIP3    H156573   4.981   2.625  16.323  0.7117 -0.2710  0.0795
11694TIP3    H256574   4.881   2.637  16.210  0.1708  0.2889  0.6092
11695TIP3   OH256575   5.335   5.961   1.178 -0.2590  0.0086  0.4446
11695TIP3    H156576   5.280   6.014   1.121  0.4678  1.0986  0.7383
11695TIP3    H256577   5.348   6.016   1.256  3.6696  1.0270 -0.8313
11696TIP3   OH256578   1.985   3.559  13.806  0.4597 -0.1149 -0.6811
11696TIP3    H156579   1.971   3.545  13.712 -2.3727 -1.8988 -0.0722
11696TIP3    H256580   1.900   3.587  13.839  1.3685  0.3036  1.3981
11697TIP3   OH256581   1.851   2.363  13.290 -0.2225 -0.3063  0.4303
11697TIP3    H156582   1.857   2.284  13.236  1.0193 -0.4503  0.7503
11697TIP3    H256583   1.799   2.336  13.366  1.1341 -1.1574  1.0866
11698TIP3   OH256584   1.057   3.837  12.496 -0.5203 -0.0597 -0.2726
11698TIP3    H156585   1.039   3.895  12.570 -1.3984 -0.0559 -0.4815
11698TIP3    H256586   1.136   3.790  12.521 -1.3961 -0.8063  1.1218
11699TIP3   OH256587   0.178   3.195  11.665 -0.7526  0.0090 -0.2488
11699TIP3    H156588   0.236   3.237  11.728  0.1267 -1.7398  0.1237
11699TIP3    H256589   0.224   3.204  11.581 -1.6585  1.8308 -0.5743
11700TIP3   OH256590   1.245   0.567  11.758  0.1454 -0.8766 -0.3104
11700TIP3    H156591   1.240   0.526  11.671  1.1418 -0.2105 -0.7001
11700TIP3    H256592   1.234   0.495  11.819  1.6546 -1.7072 -0.9848
11701TIP3   OH256593   1.455   3.504   0.644  0.7112  0.6513  0.3406
11701TIP3    H156594   1.373   3.535   0.607 -0.2512  0.4196  2.2231
11701TIP3    H256595   1.447   3.409   0.645  1.5462  0.5593 -0.6621
11702TIP3   OH256596   2.257   1.335   1.008 -0.3707  0.0927  0.5937
11702TIP3    H156597   2.185   1.295   0.958 -0.7621  1.5500 -0.0279
11702TIP3    H256598   2.258   1.286   1.090  0.1062 -2.1706 -0.6944
11703TIP3   OH256599   2.239   4.491  13.477  0.3463 -0.1226  0.9338
11703TIP3    H156600   2.266   4.525  13.562  1.2108  0.8337  0.2867
11703TIP3    H256601   2.183   4.559  13.441 -0.0983 -0.5693  0.7775
11704TIP3   OH256602   0.492   5.979   0.195 -0.1262  0.0040  0.6254
11704TIP3    H156603   0.543   5.912   0.149 -2.5561 -2.0655  0.8446
11704TIP3    H256604   0.479   5.944   0.283 -2.3094  0.2665  0.4375
11705TIP3   OH256605   0.066   0.984   5.899  0.5194  0.0800  0.0416
11705TIP3    H156606   0.021   0.993   5.815 -1.8806 -0.8943  1.1722
11705TIP3    H256607   0.135   1.050   5.896  1.7347 -1.2487 -3.4541
11706TIP3   OH256608   6.566   6.218  12.710  0.7950 -0.2860  0.0678
11706TIP3    H156609   6.599   6.148  12.766  2.0786 -0.5292 -0.9756
11706TIP3    H256610   6.517   6.174  12.641  2.2198 -0.2285 -1.0053
11707TIP3   OH256611   4.263   2.899  11.297 -0.5703  0.1134  0.6929
11707TIP3    H156612   4.261   2.890  11.201 -0.3072 -0.1270  0.7083
11707TIP3    H256613   4.213   2.824  11.329  0.5640 -0.6161  0.7855
11708TIP3   OH256614   1.039   2.033   1.043 -0.1859 -0.2955  0.1169
11708TIP3    H156615   1.132   2.053   1.030 -0.3657  1.5636  1.4823
11708TIP3    H256616   1.038   1.968   1.113  0.1382 -1.2859 -0.7819
11709TIP3   OH256617   4.175   4.395  14.254  0.1866  0.4012  0.0427
11709TIP3    H156618   4.131   4.312  14.273 -3.7806  2.2990 -0.2693
11709TIP3    H256619   4.219   4.417  14.336  0.0833 -1.2862  0.5894
11710TIP3   OH256620   3.524   4.590  15.087 -0.4166  0.9130 -0.1102
11710TIP3    H156621   3.511   4.495  15.087  0.3540  0.8030 -0.7323
11710TIP3    H256622   3.485   4.620  15.005  0.9737  0.8916 -0.7968
11711TIP3   OH256623   2.916   3.620  12.315  0.0429 -0.7495 -0.2390
11711TIP3    H156624   2.994   3.618  12.370  0.0731 -0.8669 -0.2838
11711TIP3    H256625   2.917   3.536  12.270 -1.2181 -1.6000  1.2764
11712TIP3   OH256626   5.811   3.154  13.977 -0.3029  0.2044  0.5584
11712TIP3    H156627   5.866   3.089  13.933 -0.0335  0.6207  0.2851
11712TIP3    H256628   5.861   3.178  14.055  0.2560  1.1483 -0.0858
11713TIP3   OH256629   1.499   5.908  13.909 -0.1705 -0.0576 -0.4218
11713TIP3    H156630   1.527   5.971  13.976 -0.8914 -1.0560  0.8382
11713TIP3    H256631   1.499   5.824  13.954 -0.1287 -0.8267 -1.8452
11714TIP3   OH256632   5.867   3.481  14.063  0.2997 -0.0377  0.4055
11714TIP3    H156633   5.889   3.523  14.146  2.2426  0.0914 -0.1383
11714TIP3    H256634   5.813   3.546  14.017  0.3125  0.4177  1.0228
11715TIP3   OH256635   4.983   4.190  15.966  1.1088  0.4489 -0.2633
11715TIP3    H156636   4.948   4.129  16.031 -0.8958  1.0062 -0.7730
11715TIP3    H256637   5.009   4.134  15.892  0.7335  0.0723 -0.1079
11716TIP3   OH256638   2.338   0.153   4.012  0.0743  0.1690 -0.0677
11716TIP3    H156639   2.255   0.200   4.014 -0.8580 -1.4517  0.4219
11716TIP3    H256640   2.327   0.087   3.945  0.3372 -1.1764  1.1801
11717TIP3   OH256641   5.566   4.228  13.442 -0.3825  0.3562 -0.0752
11717TIP3    H156642   5.584   4.305  13.497 -0.9876  0.8603 -0.5758
11717TIP3    H256643   5.558   4.264  13.353 -0.5335 -0.3030 -0.3293
11718TIP3   OH256644   5.804   2.032   6.596  0.7991 -0.2841  0.0547
11718TIP3    H156645   5.729   2.079   6.558  0.8133 -0.9807 -0.8503
11718TIP3    H256646   5.792   1.941   6.568  2.9602 -0.0879 -1.6333
11719TIP3   OH256647   1.771   2.812  13.465  0.1085 -0.3401  0.2614
11719TIP3    H156648   1.729   2.805  13.551 -0.2220 -1.1324  0.0424
11719TIP3    H256649   1.855   2.768  13.476 -1.5684 -4.0430 -0.8533
11720TIP3   OH256650   4.086   4.872   1.351 -0.0923 -0.0016 -0.4963
11720TIP3    H156651   4.108   4.792   1.398  0.6073  0.7756  0.5257
11720TIP3    H256652   4.009   4.906   1.398  0.0953  0.3367 -0.4328
11721TIP3   OH256653   5.494   6.614   3.558 -0.0188 -0.0165  0.5822
11721TIP3    H156654   5.477   6.666   3.480  0.1779 -1.2231 -0.2781
11721TIP3    H256655   5.551   6.543   3.528  0.7387 -0.0319  1.9877
11722TIP3   OH256656   3.322   6.665   0.999 -0.5224 -0.6288 -0.4814
11722TIP3    H156657   3.237   6.640   0.964 -0.7905 -0.2713 -0.0798
11722TIP3    H256658   3.307   6.747   1.045 -0.1102 -0.9355  0.2166
11723TIP3   OH256659   3.109   0.893  16.533 -0.6842  0.1225  0.1075
11723TIP3    H156660   3.082   0.980  16.504  1.5366  0.3588 -1.4133
11723TIP3    H256661   3.115   0.900  16.628 -1.4585  1.3461  0.0809
11724TIP3   OH256662   3.694   5.509  15.933  0.1396  0.1829  0.2210
11724TIP3    H156663   3.645   5.589  15.916 -0.6896 -0.4377 -0.3429
11724TIP3    H256664   3.642   5.464  16.000  0.3010 -0.1572  0.1169
11725TIP3   OH256665   3.915   3.353   0.351 -0.3606 -0.3527 -0.2972
11725TIP3    H156666   3.984   3.287   0.355  0.5495  0.5651 -0.5851
11725TIP3    H256667   3.895   3.371   0.443  2.4879  2.1163 -0.0649
11726TIP3   OH256668   1.000   0.509   5.373  0.1420  0.0757 -0.1638
11726TIP3    H156669   1.096   0.508   5.374  0.1555 -0.6644 -0.8373
11726TIP3    H256670   0.976   0.421   5.344 -0.7380  0.3805 -0.3807
11727TIP3   OH256671   1.299   4.360   5.760 -0.3453 -0.2054  0.6394
11727TIP3    H156672   1.253   4.321   5.685  1.1213 -1.3467  0.3044
11727TIP3    H256673   1.263   4.314   5.836  0.2137 -1.1031  0.3764
11728TIP3   OH256674   1.423   2.494   2.241  0.5550 -0.0086  0.0167
11728TIP3    H156675   1.382   2.408   2.238 -0.1909  0.3354  0.3056
11728TIP3    H256676   1.482   2.490   2.316  1.9487 -0.8969 -1.1097
11729TIP3   OH256677   5.895   1.340   5.308  0.0996  0.2933 -0.1084
11729TIP3    H156678   5.832   1.287   5.356  1.2951 -1.8229 -0.8308
11729TIP3    H256679   5.857   1.348   5.220  0.1971  0.1304 -0.1660
11730TIP3   OH256680   2.160   3.820   4.092 -0.2393 -0.1775  0.1147
11730TIP3    H156681   2.215   3.796   4.166  0.3518 -0.2774 -0.3538
11730TIP3    H256682   2.096   3.881   4.128 -0.5750 -1.0014  0.9077
11731TIP3   OH256683   4.085   6.169  13.293  0.0454 -0.3757  0.2928
11731TIP3    H156684   3.992   6.164  13.317 -0.4157 -1.4162 -1.6234
11731TIP3    H256685   4.089   6.136  13.204  1.7931  2.7637 -0.9010
11732TIP3   OH256686   1.172   5.366  11.481 -0.4515  0.4584  0.0326
11732TIP3    H156687   1.165   5.461  11.486  1.4183  0.6573 -0.6652
11732TIP3    H256688   1.111   5.340  11.412  1.1462  1.4755 -1.8163
11733TIP3   OH256689   0.754   0.083   2.255  0.4575  0.1087 -0.3357
11733TIP3    H156690   0.690   0.040   2.199  0.0879 -0.2123  0.3325
11733TIP3    H256691   0.839   0.052   2.222  0.1606 -2.4216  1.1528
11734TIP3   OH256692   3.686   5.412   1.209 -0.6955  0.0587  0.1599
11734TIP3    H156693   3.630   5.488   1.221 -0.8193 -0.3235  2.2141
11734TIP3    H256694   3.650   5.346   1.269  1.8765 -0.2053  1.4980
11735TIP3   OH256695   0.198   3.542   4.085 -0.5786 -0.3401  0.2179
11735TIP3    H156696   0.258   3.496   4.144  0.1706 -0.3289 -0.5277
11735TIP3    H256697   0.135   3.583   4.143 -0.4608 -1.1880  0.9647
11736TIP3   OH256698   0.420   3.860   3.292  0.1645  0.4501  0.4473
11736TIP3    H156699   0.392   3.870   3.383 -0.6909  1.6286  0.0739
11736TIP3    H256700   0.439   3.767   3.282 -2.0659 -0.1128  1.1881
11737TIP3   OH256701   3.058   5.865   1.998  0.8383  0.1244 -0.4597
11737TIP3    H156702   2.983   5.852   1.940  0.0399 -0.6383  0.7288
11737TIP3    H256703   3.115   5.790   1.981 -1.4902 -2.5798  2.8921
11738TIP3   OH256704   5.300   4.583  16.260 -0.1712 -0.0232 -0.2852
11738TIP3    H156705   5.217   4.558  16.219 -0.8903  0.5555  0.7699
11738TIP3    H256706   5.311   4.675  16.237 -0.7600  0.4023  1.0812
11739TIP3   OH256707   5.415   3.049   1.302 -0.2676 -0.0806 -0.1909
11739TIP3    H156708   5.468   3.063   1.380  1.1886 -0.7480 -1.0346
11739TIP3    H256709   5.329   3.084   1.324  0.7727  1.8724  0.8942
11740TIP3   OH256710   5.572   1.223   3.066  0.0641 -0.4337 -0.2442
11740TIP3    H156711   5.615   1.238   3.150  0.1231 -1.4125 -0.0956
11740TIP3    H256712   5.505   1.291   3.061  0.0417 -0.3895  0.6058
11741TIP3   OH256713   4.621   6.710  15.953 -0.0916  0.1090  0.0749
11741TIP3    H156714   4.581   6.779  16.005  0.5146 -0.1152  0.8509
11741TIP3    H256715   4.688   6.672  16.010 -0.7084 -1.3985 -0.1772
11742TIP3   OH256716   2.002   0.723  16.237  0.3570 -0.2890  0.5416
11742TIP3    H156717   2.059   0.689  16.169  0.4606 -1.5508  1.2391
11742TIP3    H256718   2.020   0.817  16.240  0.2919 -0.2119 -1.2082
11743TIP3   OH256719   6.080   1.617  14.917 -0.1014  0.7421 -0.2328
11743TIP3    H156720   6.050   1.535  14.878  1.0659  0.3201 -0.2337
11743TIP3    H256721   6.174   1.620  14.899  0.0454  1.6012  0.6324
11744TIP3   OH256722   1.887   2.797   5.276  0.2393  0.0452 -0.1731
11744TIP3    H156723   1.894   2.828   5.186 -1.1406  0.0485 -0.2951
11744TIP3    H256724   1.933   2.713   5.276  0.4161  0.1398 -0.8448
11745TIP3   OH256725   2.231   3.881   6.066 -0.4412 -0.9813 -0.3504
11745TIP3    H156726   2.293   3.932   6.014  1.0460 -0.4353  1.8497
11745TIP3    H256727   2.154   3.937   6.073  0.1617 -0.1456 -0.2141
11746TIP3   OH256728   0.386   3.944  11.603  0.3009 -0.4387 -0.1470
11746TIP3    H156729   0.408   3.898  11.685 -0.1392  0.9596  0.7774
11746TIP3    H256730   0.340   4.023  11.632  0.4145  0.2206 -1.7415
11747TIP3   OH256731   3.609   6.178   2.664 -0.2062  0.1830 -0.4982
11747TIP3    H156732   3.537   6.230   2.628 -0.2827  0.1041 -0.4579
11747TIP3    H256733   3.587   6.088   2.641 -0.0252  0.1768 -0.6516
11748TIP3   OH256734   0.472   6.063  12.710 -0.5581  0.4229 -0.9807
11748TIP3    H156735   0.478   6.155  12.737  0.5691  0.5574 -1.6655
11748TIP3    H256736   0.382   6.054  12.678 -1.0855  0.9351  0.3496
11749TIP3   OH256737   6.509   2.682   6.477  0.7110  0.5574 -0.5379
11749TIP3    H156738   6.536   2.771   6.454  1.8539  0.2871 -0.2317
11749TIP3    H256739   6.553   2.664   6.559 -1.1746  0.4705  0.4910
11750TIP3   OH256740   5.450   4.811   4.482  0.6432  0.4972 -0.0581
11750TIP3    H156741   5.486   4.889   4.525  0.5530  0.6541 -0.2661
11750TIP3    H256742   5.355   4.821   4.490  0.6256  0.5708 -0.3768
11751TIP3   OH256743   2.045   1.207   3.880 -0.1861  0.4254 -0.6255
11751TIP3    H156744   2.111   1.213   3.811 -1.7538  2.2253 -2.0104
11751TIP3    H256745   1.991   1.132   3.855  0.1327  0.1693 -0.5518
11752TIP3   OH256746   0.006   1.391   6.018 -0.4913  0.0903  0.2529
11752TIP3    H156747   0.045   1.324   6.075 -0.2966  0.3478  0.4212
11752TIP3    H256748  -0.050   1.442   6.076 -1.2095 -0.3763 -0.0197
11753TIP3   OH256749   3.344   0.513  15.645  0.7628 -1.1492  0.2112
11753TIP3    H156750   3.260   0.547  15.675  0.0414 -0.1832 -2.7257
11753TIP3    H256751   3.387   0.588  15.604  2.1250 -2.1587 -0.2536
11754TIP3   OH256752   6.244   0.955  11.505  0.4350 -0.4354  0.3086
11754TIP3    H156753   6.238   1.031  11.447  0.6140 -1.4028 -1.0149
11754TIP3    H256754   6.338   0.945  11.520  0.4208 -0.4740  0.3707
11755TIP3   OH256755   1.666   0.013   3.597  0.3894  0.0243 -0.2646
11755TIP3    H156756   1.590   0.023   3.539  0.3653  0.4032 -0.1750
11755TIP3    H256757   1.629   0.019   3.686  0.5769  0.6481 -0.2261
11756TIP3   OH256758   1.678   4.727   1.723 -0.2157 -0.0182 -0.0390
11756TIP3    H156759   1.755   4.678   1.749  0.5543  1.7027  1.0229
11756TIP3    H256760   1.712   4.810   1.689 -1.5530  0.4341 -0.3227
11757TIP3   OH256761   3.267   1.230  15.489  0.9266 -0.0122  0.7220
11757TIP3    H156762   3.312   1.293  15.434  3.2592 -0.8303  1.6383
11757TIP3    H256763   3.296   1.145  15.458 -0.6713 -0.6095  0.7856
11758TIP3   OH256764   3.130   2.005   3.716  0.3040  0.0072 -0.4173
11758TIP3    H156765   3.146   2.017   3.622 -0.4269 -0.0824 -0.5580
11758TIP3    H256766   3.207   2.044   3.758  2.2059 -2.8415 -1.1136
11759TIP3   OH256767   5.741   1.182   1.082  0.1123 -0.0408  0.4201
11759TIP3    H156768   5.800   1.243   1.126  0.7787 -0.6721  0.4156
11759TIP3    H256769   5.661   1.184   1.135 -0.1375  1.3930 -0.0199
11760TIP3   OH256770   5.148   6.407  11.806  0.7600  0.1029 -0.1155
11760TIP3    H156771   5.170   6.365  11.889  0.7885 -1.1285 -0.7318
11760TIP3    H256772   5.159   6.501  11.823  0.7766 -0.1323  1.2583
11761TIP3   OH256773   2.442   3.826  10.772  0.6596  0.6933 -0.0554
11761TIP3    H156774   2.452   3.907  10.722 -0.7176 -0.1094 -1.6774
11761TIP3    H256775   2.348   3.816  10.784  0.8885  0.0243  1.3135
11762TIP3   OH256776   1.167   4.366  13.813  0.7078 -0.6027 -0.8670
11762TIP3    H156777   1.223   4.376  13.736  1.7970 -0.4118 -0.0677
11762TIP3    H256778   1.227   4.339  13.883 -0.2760 -0.8433 -0.1058
11763TIP3   OH256779   1.254   2.338   3.047 -0.0327  0.2483  0.4297
11763TIP3    H156780   1.283   2.271   2.985 -0.1675  1.5089 -1.0243
11763TIP3    H256781   1.279   2.304   3.133  2.2710 -0.4673 -0.4932
11764TIP3   OH256782   1.686   5.625  13.900 -0.0596  0.1278 -0.6554
11764TIP3    H156783   1.653   5.580  13.977  0.6714  0.5581 -0.0798
11764TIP3    H256784   1.757   5.680  13.933 -0.5281  1.2258 -1.4400
11765TIP3   OH256785   5.766   0.539  13.824 -0.0795  0.5818  0.4525
11765TIP3    H156786   5.773   0.579  13.911  3.5934  0.7798  0.1338
11765TIP3    H256787   5.757   0.614  13.765  0.6417  0.6183  0.3868
11766TIP3   OH256788   1.663   3.985   1.762  0.1397  0.7913  0.2861
11766TIP3    H156789   1.660   4.017   1.852  0.3216  2.7854 -0.3835
11766TIP3    H256790   1.579   4.014   1.724 -0.2207 -0.6121 -0.0019
11767TIP3   OH256791   5.586   4.914  14.092 -1.0128  0.4245 -0.6096
11767TIP3    H156792   5.540   4.997  14.083 -0.1297  1.0748  0.6760
11767TIP3    H256793   5.605   4.907  14.186  1.0476 -0.0441 -1.0295
11768TIP3   OH256794   6.017   3.845   2.059 -0.7313 -0.2897  0.1318
11768TIP3    H156795   6.064   3.844   2.142 -0.7863  1.1969  0.1895
11768TIP3    H256796   5.958   3.920   2.065 -0.4569  0.0748 -1.3991
11769TIP3   OH256797   2.569   6.159  17.065  0.4917 -0.2073 -0.1965
11769TIP3    H156798   2.615   6.141  16.983 -0.6396  0.3234 -0.9596
11769TIP3    H256799   2.595   6.088  17.123  1.6277 -0.3639 -0.8806
11770TIP3   OH256800   2.609   1.234  12.536 -0.0238  0.2538 -0.4867
11770TIP3    H156801   2.526   1.243  12.583  0.3169  0.2675  0.1133
11770TIP3    H256802   2.659   1.312  12.560 -0.0294  0.4949 -1.2466
11771TIP3   OH256803   1.790   3.444  16.339  0.0065  0.2777 -0.5572
11771TIP3    H156804   1.813   3.415  16.251  0.9617 -1.0469  0.0991
11771TIP3    H256805   1.874   3.453  16.384 -0.4983  0.4047  0.3836
11772TIP3   OH256806   5.111   4.177  12.247 -0.2806  0.6163 -0.2398
11772TIP3    H156807   5.169   4.230  12.191 -0.9211  0.0522 -1.4561
11772TIP3    H256808   5.128   4.087  12.220 -0.6318  0.3375  0.4569
11773TIP3   OH256809   4.409   1.245  17.270 -0.3398 -0.6728  0.5393
11773TIP3    H156810   4.478   1.310  17.279 -1.1980  0.1745  1.1774
11773TIP3    H256811   4.454   1.165  17.244  0.9498 -0.3144  1.6097
11774TIP3   OH256812   3.747   2.765  14.436  0.6318  0.2297  0.2540
11774TIP3    H156813   3.719   2.674  14.451  0.1148  0.0601 -1.6939
11774TIP3    H256814   3.736   2.807  14.521 -3.0491 -0.4997  0.1931
11775TIP3   OH256815   4.578   0.423   3.907  0.3699 -0.0107 -0.0683
11775TIP3    H156816   4.612   0.349   3.857  2.7755  0.3548  0.9605
11775TIP3    H256817   4.546   0.385   3.988  2.0424  0.0947  0.6641
11776TIP3   OH256818   0.194   3.618  11.951 -0.0064  0.0545 -0.1910
11776TIP3    H156819   0.125   3.667  11.906  0.6235  0.3525 -0.8342
11776TIP3    H256820   0.273   3.670  11.938  0.6281 -1.0087 -0.6822
11777TIP3   OH256821   5.464   6.320  11.035 -0.0662  0.0035  0.3105
11777TIP3    H156822   5.517   6.251  10.995  1.0452  0.7515  0.4473
11777TIP3    H256823   5.386   6.325  10.980  0.3686 -0.5814 -0.3811
11778TIP3   OH256824   2.807   4.756  11.402 -0.5502  0.1521 -0.3884
11778TIP3    H156825   2.730   4.701  11.390 -2.0904  2.1330  0.1833
11778TIP3    H256826   2.881   4.697  11.385 -2.1816 -1.5526 -1.8529
11779TIP3   OH256827   5.958   4.337   1.008  0.6569  0.0910  0.2632
11779TIP3    H156828   6.039   4.355   0.961  0.3118 -0.2275 -0.4582
11779TIP3    H256829   5.891   4.333   0.939  0.3261 -1.4937  0.6683
11780TIP3   OH256830   1.694   3.543  16.655 -0.0802 -0.1237 -0.0947
11780TIP3    H156831   1.719   3.625  16.612  1.4970 -0.2062  0.6374
11780TIP3    H256832   1.633   3.570  16.723  0.0548  0.3944 -0.1752
11781TIP3   OH256833   3.482   5.722  16.503 -0.1450 -0.1054  0.1510
11781TIP3    H156834   3.534   5.715  16.423 -1.5137  1.8488 -0.9621
11781TIP3    H256835   3.525   5.791  16.553 -1.9405  1.9597 -1.0567
11782TIP3   OH256836   5.582   5.692   3.247  0.3044 -0.5896 -0.1138
11782TIP3    H156837   5.532   5.611   3.240  1.5320 -1.4014  0.3327
11782TIP3    H256838   5.607   5.697   3.339 -0.9061  1.0089  0.1574
11783TIP3   OH256839   5.373   0.099  11.853 -0.0566  0.7229 -0.0700
11783TIP3    H156840   5.400   0.180  11.810 -0.0941  0.8184  0.0865
11783TIP3    H256841   5.379   0.118  11.947 -1.3842  0.9851 -0.0317
11784TIP3   OH256842   5.003   1.439   3.195  0.4603 -0.0529  0.8544
11784TIP3    H156843   4.985   1.408   3.284  0.2269  0.0646  0.8494
11784TIP3    H256844   4.916   1.444   3.154  0.6280 -0.7204  0.4220
11785TIP3   OH256845   1.064   3.133  15.032  0.0718  0.9412 -0.6712
11785TIP3    H156846   1.043   3.072  14.961  1.4140 -1.8183  1.2672
11785TIP3    H256847   1.155   3.158  15.016  0.8632 -0.8497  0.8672
11786TIP3   OH256848   5.996   0.452   3.099  0.0811  0.2114 -0.0592
11786TIP3    H156849   6.029   0.410   3.178  3.2159  0.2812 -1.2215
11786TIP3    H256850   5.944   0.385   3.056 -0.5748 -0.2439  1.4211
11787TIP3   OH256851   6.526   2.544   4.315  0.4316  0.1596 -0.3181
11787TIP3    H156852   6.524   2.562   4.221  2.3687 -0.6564 -0.5445
11787TIP3    H256853   6.613   2.505   4.330 -0.4211 -1.0799  1.5598
11788TIP3   OH256854   0.097   2.342   2.062  0.1417 -0.4975 -0.0771
11788TIP3    H156855   0.010   2.379   2.075 -0.1577 -0.3828 -2.1637
11788TIP3    H256856   0.147   2.370   2.139 -1.7507 -0.8887  1.3203
11789TIP3   OH256857   0.283   2.506   2.661 -0.1706 -0.1531  0.1889
11789TIP3    H156858   0.320   2.590   2.634 -0.3236 -0.5129 -1.1511
11789TIP3    H256859   0.307   2.445   2.592 -3.7768 -0.2703 -1.0753
11790TIP3   OH256860   5.122   3.877  13.591 -0.1064  0.3716 -0.1595
11790TIP3    H156861   5.079   3.944  13.537 -2.8159 -1.6264 -0.5965
11790TIP3    H256862   5.170   3.823  13.529 -0.5829 -0.0040 -0.2063
11791TIP3   OH256863   6.490   3.735  13.582  0.0755  0.0343 -0.1767
11791TIP3    H156864   6.563   3.697  13.630 -0.3980  0.9666  1.3214
11791TIP3    H256865   6.428   3.763  13.650 -1.3634 -0.1197 -1.3929
11792TIP3   OH256866   0.141   6.115   6.327  0.6952  0.1150 -0.1260
11792TIP3    H156867   0.220   6.065   6.305 -0.2028 -1.0868 -0.6695
11792TIP3    H256868   0.069   6.054   6.312 -0.5274  1.9575 -1.9615
11793TIP3   OH256869   4.968   6.654   2.434 -0.1745 -0.8063 -0.3288
11793TIP3    H156870   4.949   6.739   2.474 -1.8642 -0.0123 -2.7043
11793TIP3    H256871   4.925   6.590   2.490 -0.8079  0.1192  0.2414
11794TIP3   OH256872   3.332   1.830   0.070  0.6607 -0.4232  0.4772
11794TIP3    H156873   3.353   1.766   0.003  0.7102  0.4054 -0.3077
11794TIP3    H256874   3.400   1.897   0.061 -0.3152  0.5470  0.2075
11795TIP3   OH256875   0.947   1.991   0.771  0.0779  0.1785 -0.2821
11795TIP3    H156876   0.965   2.014   0.862  1.5194  0.3288 -0.5911
11795TIP3    H256877   1.025   1.943   0.742 -0.8228 -0.8096 -1.1149
11796TIP3   OH256878   1.174   4.613  15.684  0.1102 -0.2717 -0.1031
11796TIP3    H156879   1.256   4.582  15.645  0.1425  2.0120 -1.9525
11796TIP3    H256880   1.152   4.546  15.749  0.9974 -3.2472 -2.7519
11797TIP3   OH256881   6.504   0.810  13.837 -0.0789 -0.9316  0.8055
11797TIP3    H156882   6.449   0.794  13.761 -1.8142  0.3136  1.7524
11797TIP3    H256883   6.593   0.793  13.807 -0.7087 -0.2360 -1.5476
11798TIP3   OH256884   4.137   6.534  16.180 -0.1287  0.0651  0.3655
11798TIP3    H156885   4.060   6.536  16.236 -0.3243  0.9551  0.0641
11798TIP3    H256886   4.108   6.571  16.097  0.9798  1.7746  0.7155
11799TIP3   OH256887   0.817   1.261  13.935 -0.5946 -0.1039  0.1818
11799TIP3    H156888   0.794   1.354  13.940  1.4140  0.3489  2.0279
11799TIP3    H256889   0.883   1.257  13.865 -0.0003  0.0292  0.7276
11800TIP3   OH256890   0.294   6.208   3.174 -0.4694  0.0436  0.0032
11800TIP3    H156891   0.274   6.115   3.173 -1.3200  0.2203 -2.0107
11800TIP3    H256892   0.255   6.242   3.093 -1.8171  2.4991  1.6380
11801TIP3   OH256893   3.047   6.789  12.121 -0.0022  0.1493 -0.0209
11801TIP3    H156894   3.124   6.834  12.156  1.0952 -0.3286 -1.7574
11801TIP3    H256895   2.987   6.784  12.195  1.4172  1.0082  1.2278
11802TIP3   OH256896   2.134   5.213   3.736  0.2167 -0.1571  0.5611
11802TIP3    H156897   2.185   5.138   3.704  0.4403  0.5047 -0.6306
11802TIP3    H256898   2.191   5.288   3.722  0.2157  0.1949  2.2753
11803TIP3   OH256899   2.683   3.284   0.959  0.2506 -0.0329 -0.6155
11803TIP3    H156900   2.682   3.331   1.043  2.5106  0.5566 -0.8963
11803TIP3    H256901   2.653   3.196   0.981  1.1161  0.0245  0.8833
11804TIP3   OH256902   1.622   3.063  14.478 -0.5765  0.0073 -0.1089
11804TIP3    H156903   1.631   3.084  14.385  1.8246  1.7243  0.4654
11804TIP3    H256904   1.540   3.105  14.504 -1.6943 -1.1714 -1.5942
11805TIP3   OH256905   5.616   6.791   2.908 -0.2371  0.1417 -0.5171
11805TIP3    H156906   5.617   6.885   2.891 -0.7887  0.1776 -0.3585
11805TIP3    H256907   5.525   6.771   2.929 -0.8082 -0.9652 -3.6669
11806TIP3   OH256908   3.264   4.596  16.307 -0.0650 -0.1247 -1.0203
11806TIP3    H156909   3.295   4.518  16.352  0.8117  0.9009  0.1896
11806TIP3    H256910   3.293   4.669  16.362 -0.3664  1.0845 -2.4265
11807TIP3   OH256911   2.877   6.610  16.690 -0.8928 -0.1753 -0.5453
11807TIP3    H156912   2.821   6.606  16.612  1.7399  0.5598 -2.5469
11807TIP3    H256913   2.841   6.683  16.741 -2.0172  0.0305 -1.6102
11808TIP3   OH256914   2.564   5.860  15.220 -0.3878  0.1280  0.4024
11808TIP3    H156915   2.527   5.893  15.137  0.9344 -2.3767 -1.2428
11808TIP3    H256916   2.642   5.913  15.233  0.9002 -1.2382 -1.4370
11809TIP3   OH256917   6.221   5.779   4.269  0.4334  0.2996 -0.1829
11809TIP3    H156918   6.274   5.765   4.347  2.2205  1.5929 -1.1172
11809TIP3    H256919   6.155   5.843   4.296  0.4358 -0.0054  0.5408
11810TIP3   OH256920   1.936   1.720  14.605 -0.2916  0.6073  0.2648
11810TIP3    H156921   1.853   1.758  14.577 -0.9096  0.3443  1.7235
11810TIP3    H256922   1.929   1.713  14.700  0.0346 -2.6291  0.1135
11811TIP3   OH256923   5.360   6.643   3.063  0.4416  0.2747  0.4119
11811TIP3    H156924   5.287   6.640   3.125  0.3657 -1.7402  0.2513
11811TIP3    H256925   5.343   6.570   3.003  1.3022  1.2981 -1.0869
11812TIP3   OH256926   4.144   2.647   0.993 -0.2278 -0.1665  0.0375
11812TIP3    H156927   4.182   2.728   0.957  0.8665  0.0232  1.5690
11812TIP3    H256928   4.049   2.661   0.987 -0.1047 -0.3194 -3.1219
11813TIP3   OH256929   0.453   6.235   2.215  0.1955  0.0625 -0.4753
11813TIP3    H156930   0.388   6.252   2.284  0.0647  1.3610 -0.8885
11813TIP3    H256931   0.446   6.312   2.158  1.5501 -0.1610 -0.9489
11814TIP3   OH256932   4.513   6.738  16.720  0.3147 -0.2576  0.1145
11814TIP3    H156933   4.585   6.757  16.780 -0.9311  0.2018  1.4793
11814TIP3    H256934   4.461   6.818  16.718 -1.3162 -1.2707  0.7925
11815TIP3   OH256935   5.524   1.785  12.256  0.3796  0.4454  0.5003
11815TIP3    H156936   5.606   1.743  12.231 -0.1082 -0.3715  0.2418
11815TIP3    H256937   5.527   1.871  12.215  0.7963  0.1524 -0.0839
11816TIP3   OH256938   6.336   5.357   3.589 -0.1600  0.0530 -0.1237
11816TIP3    H156939   6.253   5.363   3.636  0.2640  0.7615  0.5500
11816TIP3    H256940   6.402   5.358   3.658  0.4067 -0.4854 -0.6591
11817TIP3   OH256941   6.147   0.429   5.727  0.1821 -0.7011  0.2473
11817TIP3    H156942   6.066   0.394   5.690  0.2313  1.2798 -1.9157
11817TIP3    H256943   6.119   0.488   5.796 -0.2431 -0.0382 -0.4810
11818TIP3   OH256944   4.764   4.057   3.995 -0.1659  0.3067  0.1197
11818TIP3    H156945   4.809   4.142   3.996  1.5609 -0.5875 -0.4042
11818TIP3    H256946   4.755   4.036   3.902 -1.6540  0.4534  0.2200
11819TIP3   OH256947   1.424   2.105   1.239 -0.5449 -0.3607 -0.1139
11819TIP3    H156948   1.468   2.188   1.221 -3.1593  0.6474 -2.1648
11819TIP3    H256949   1.362   2.125   1.309  0.5960 -1.2159  1.1561
11820TIP3   OH256950   4.188   0.159   1.458  0.2211  0.3311  0.3234
11820TIP3    H156951   4.146   0.244   1.473  2.0588  1.4416 -0.5875
11820TIP3    H256952   4.234   0.140   1.539 -0.0402  0.2945  0.4631
11821TIP3   OH256953   5.042   0.525   2.393  0.1808 -0.1340  0.8024
11821TIP3    H156954   5.025   0.616   2.369  1.5078  0.1343  0.8204
11821TIP3    H256955   5.122   0.503   2.345 -0.8342 -1.7066 -0.2238
11822TIP3   OH256956   2.826   6.217   4.677 -0.1892 -0.4887  0.7157
11822TIP3    H156957   2.907   6.232   4.629  0.6040  2.0276  2.7574
11822TIP3    H256958   2.756   6.238   4.615  0.7499 -0.0114 -0.1866
11823TIP3   OH256959   2.769   0.537   2.969 -0.0793  0.2434 -0.1920
11823TIP3    H156960   2.839   0.475   2.947  0.1552 -0.3272  2.0153
11823TIP3    H256961   2.803   0.622   2.941  0.8570 -0.2289 -0.5327
11824TIP3   OH256962   1.500   5.947  17.087  0.1679  0.3771  0.3302
11824TIP3    H156963   1.476   5.862  17.124  0.6176  0.1791  0.1745
11824TIP3    H256964   1.591   5.960  17.115  1.6311 -1.2411 -3.3466
11825TIP3   OH256965   0.907   6.604   0.341 -0.0423  0.2846  0.2867
11825TIP3    H156966   0.987   6.555   0.322 -0.1351 -0.1974  1.1130
11825TIP3    H256967   0.837   6.552   0.302  0.1623  1.3907 -1.6202
11826TIP3   OH256968   2.169   3.172  12.932 -0.7776 -0.0610 -0.1539
11826TIP3    H156969   2.174   3.213  13.018 -1.0099  0.3036 -0.3163
11826TIP3    H256970   2.259   3.173  12.900 -0.6905 -0.1956  0.0822
11827TIP3   OH256971   6.257   4.273   3.462 -0.3968  0.2656  0.0457
11827TIP3    H156972   6.297   4.349   3.420 -1.5779  0.2751 -1.0936
11827TIP3    H256973   6.323   4.242   3.524  1.2397  0.4525 -1.5673
11828TIP3   OH256974   0.148   0.863   4.944  0.2597 -0.0901 -0.0784
11828TIP3    H156975   0.084   0.925   4.977  1.2356  0.0958  1.4866
11828TIP3    H256976   0.208   0.917   4.891  0.9225  0.2616  1.0178
11829TIP3   OH256977   2.562   5.111  15.771 -0.0450  0.1517  0.2240
11829TIP3    H156978   2.522   5.096  15.857 -1.6686  2.2882 -0.1099
11829TIP3    H256979   2.496   5.161  15.722  0.8083 -1.1298 -2.3190
11830TIP3   OH256980   1.281   4.358   4.473 -0.0656  0.1740  0.5039
11830TIP3    H156981   1.348   4.294   4.451  0.0455 -0.1259  1.6404
11830TIP3    H256982   1.236   4.377   4.391 -1.8169 -3.3259  0.5718
11831TIP3   OH256983   6.424   0.797   3.284 -0.5173 -0.2543 -0.1011
11831TIP3    H156984   6.413   0.703   3.293  1.7337 -0.4289  1.2039
11831TIP3    H256985   6.483   0.808   3.210 -0.5727  0.1301 -0.0950
11832TIP3   OH256986   4.902   5.014   4.884 -0.5221 -0.1151 -0.4889
11832TIP3    H156987   4.844   5.089   4.880  0.3527  0.5777 -0.2718
11832TIP3    H256988   4.870   4.962   4.958 -1.1297  0.0412 -0.6454
11833TIP3   OH256989   5.160   5.931  12.721  0.4962 -0.0862 -0.2354
11833TIP3    H156990   5.159   6.019  12.683  1.0829 -0.0297 -0.1175
11833TIP3    H256991   5.207   5.877  12.658  0.8440 -0.1454  0.0755
11834TIP3   OH256992   1.359   5.175   0.092 -0.4945  0.2584  0.0231
11834TIP3    H156993   1.401   5.248   0.137 -2.2148  1.5046 -0.3323
11834TIP3    H256994   1.423   5.147   0.026 -0.3138  2.2896 -0.6876
11835TIP3   OH256995   0.594   5.350  16.690  0.2133  0.6344 -0.8071
11835TIP3    H156996   0.633   5.328  16.775 -2.4603  1.3045  0.6446
11835TIP3    H256997   0.635   5.433  16.666  0.2581  0.9376  0.2885
11836TIP3   OH256998   6.488   4.907  14.160  0.5252 -0.2159 -0.0684
11836TIP3    H156999   6.455   4.979  14.213  0.9950 -1.2726  1.6945
11836TIP3    H257000   6.582   4.925  14.152  0.5541 -0.3649 -0.0561
11837TIP3   OH257001   2.142   2.048  11.860 -0.7475 -0.0400  0.0116
11837TIP3    H157002   2.134   1.984  11.931  0.5439  0.4396  0.6161
11837TIP3    H257003   2.141   1.996  11.780  1.4490 -0.9478  0.5377
11838TIP3   OH257004   5.080   5.252  13.216 -0.0762  0.3496  0.1872
11838TIP3    H157005   4.994   5.283  13.186  0.1653 -0.0548 -0.9508
11838TIP3    H257006   5.078   5.158  13.200  0.4919  0.3021  0.3888
11839TIP3   OH257007   3.632   5.652  13.027 -0.4930  0.0478 -0.3363
11839TIP3    H157008   3.651   5.746  13.028  0.4388 -0.0435 -3.5662
11839TIP3    H257009   3.538   5.646  13.012 -0.2584  0.4928 -2.0787
11840TIP3   OH257010   3.088   4.537   0.265  0.1922  0.4368 -0.0466
11840TIP3    H157011   3.034   4.460   0.252 -2.4714  2.6011 -2.3095
11840TIP3    H257012   3.074   4.561   0.357  0.4223 -1.2293  0.4450
11841TIP3   OH257013   4.471   2.847   5.212  0.2582  0.9761  0.3232
11841TIP3    H157014   4.510   2.917   5.160  1.0737 -0.4079 -0.9562
11841TIP3    H257015   4.386   2.882   5.239 -0.0090  1.8699 -1.6103
11842TIP3   OH257016   6.352   4.218  14.715  0.1162  0.1990  0.2209
11842TIP3    H157017   6.274   4.206  14.661 -0.4645  0.7222  0.9430
11842TIP3    H257018   6.425   4.219  14.652 -0.4618 -0.1812 -0.4594
11843TIP3   OH257019   1.815   4.069  12.562  0.4612 -0.0872 -0.0639
11843TIP3    H157020   1.851   4.157  12.548 -1.5766  0.9192  0.7496
11843TIP3    H257021   1.797   4.036  12.474  0.0909  0.8401 -0.3470
11844TIP3   OH257022   1.057   4.140  16.312 -0.6656 -0.1184  0.0221
11844TIP3    H157023   1.001   4.209  16.277 -1.4469  0.0351  1.5457
11844TIP3    H257024   0.997   4.069  16.333  0.0604 -1.0264 -0.9203
11845TIP3   OH257025   5.509   0.896  16.997 -0.1441  0.1316 -0.0352
11845TIP3    H157026   5.432   0.903  17.054 -0.5325  1.3556 -0.6847
11845TIP3    H257027   5.482   0.937  16.915  0.7530 -0.6888 -0.7554
11846TIP3   OH257028   2.114   5.306  15.747 -0.1643  0.1816  0.2466
11846TIP3    H157029   2.139   5.235  15.806  1.4147 -0.3937 -1.0742
11846TIP3    H257030   2.076   5.262  15.672 -2.3211  0.9237  0.8839
11847TIP3   OH257031   1.766   5.681   4.697 -0.4303 -0.9454  1.0328
11847TIP3    H157032   1.835   5.665   4.761 -1.5397 -0.6473  2.3247
11847TIP3    H257033   1.782   5.770   4.667  0.1493 -1.1199  0.8070
11848TIP3   OH257034   0.376   2.897  13.345  0.3244 -0.2382 -0.2326
11848TIP3    H157035   0.449   2.914  13.286 -1.8021  0.0620 -2.8916
11848TIP3    H257036   0.318   2.839  13.295 -1.8497  0.5664  1.2840
11849TIP3   OH257037   2.355   6.004   0.546 -0.2211 -0.5380  0.2889
11849TIP3    H157038   2.305   6.023   0.466 -0.9718 -0.0299  0.8755
11849TIP3    H257039   2.438   6.050   0.533  0.4097 -1.9870 -1.0153
11850TIP3   OH257040   3.144   2.351   4.463  0.3955  0.0316 -0.3519
11850TIP3    H157041   3.086   2.323   4.534 -0.1722  0.6887 -0.5532
11850TIP3    H257042   3.178   2.436   4.491  0.2813  0.2273 -0.8016
11851TIP3   OH257043   3.939   1.073   4.239 -0.2829  0.0341 -0.3773
11851TIP3    H157044   3.967   1.016   4.168  0.8442  0.0323  0.0599
11851TIP3    H257045   3.959   1.025   4.319 -2.1938 -0.2614 -0.0511
11852TIP3   OH257046   5.839   6.225   6.306  0.0462 -0.3818 -0.1070
11852TIP3    H157047   5.899   6.157   6.275  1.2292  1.4702 -1.9901
11852TIP3    H257048   5.763   6.217   6.248  1.6609  2.1399 -2.7087
11853TIP3   OH257049   2.136   1.794  15.212  0.4431 -0.6293  0.5524
11853TIP3    H157050   2.155   1.712  15.258  0.3736 -0.2729  1.2178
11853TIP3    H257051   2.214   1.848  15.224  1.2634 -1.3062 -1.4968
11854TIP3   OH257052   1.232   1.202  17.016 -0.5977  0.4953  0.0285
11854TIP3    H157053   1.301   1.208  17.081 -0.9326  1.0804  0.3301
11854TIP3    H257054   1.193   1.289  17.014 -2.0585 -0.1373  0.6664
11855TIP3   OH257055   4.721   3.234   5.518  0.4506 -0.4340  0.2425
11855TIP3    H157056   4.806   3.208   5.484 -0.2431 -0.3653 -1.5736
11855TIP3    H257057   4.694   3.161   5.574  0.8686 -1.2871 -0.6564
11856TIP3   OH257058   1.233   3.090  15.598 -0.3886 -0.1580  0.0241
11856TIP3    H157059   1.173   3.051  15.662  0.1550  1.2037  1.3896
11856TIP3    H257060   1.317   3.046  15.613 -0.3647 -0.1379 -0.0486
11857TIP3   OH257061   6.438   5.132  10.295  0.4992 -0.1086  0.3337
11857TIP3    H157062   6.508   5.098  10.240  0.4562  1.1592 -0.5230
11857TIP3    H257063   6.408   5.057  10.346  2.3544 -0.7035  0.5706
11858TIP3   OH257064   4.321   4.576   4.606 -0.2813 -0.1553  0.0331
11858TIP3    H157065   4.226   4.591   4.607 -0.5067 -1.4955  3.1428
11858TIP3    H257066   4.351   4.605   4.691  2.1114  0.0525 -0.8503
11859TIP3   OH257067   1.701   0.179   3.905 -0.1287 -0.0839 -0.4024
11859TIP3    H157068   1.689   0.084   3.905  0.6666 -0.1921 -0.0186
11859TIP3    H257069   1.629   0.213   3.959 -0.1617 -0.5020 -0.1866
11860TIP3   OH257070   1.589   3.172  13.396 -0.4920 -0.3294 -0.0133
11860TIP3    H157071   1.634   3.208  13.472  1.7874 -1.0837 -0.9592
11860TIP3    H257072   1.536   3.100  13.432 -1.4234  0.9257  1.1879
11861TIP3   OH257073   5.744   5.974   2.652  0.1913  0.3501  0.4440
11861TIP3    H157074   5.691   5.982   2.732  2.8750 -1.0464  2.4418
11861TIP3    H257075   5.815   6.037   2.664  1.7415 -1.2832  0.1262
11862TIP3   OH257076   4.853   6.005   4.465 -0.2998 -0.1481  0.3531
11862TIP3    H157077   4.922   5.938   4.466  0.2857  0.4209 -0.8133
11862TIP3    H257078   4.900   6.087   4.483 -0.3927  0.4793 -2.1385
11863TIP3   OH257079   1.504   3.189  14.916 -0.6354 -0.6647  0.4672
11863TIP3    H157080   1.455   3.111  14.943 -0.7966 -0.8385 -0.3264
11863TIP3    H257081   1.439   3.246  14.875 -0.4508 -0.2591  0.7267
11864TIP3   OH257082   2.114   3.437   0.273 -0.4757 -0.1746  0.1277
11864TIP3    H157083   2.132   3.343   0.281 -0.3171  0.0395  2.5927
11864TIP3    H257084   2.086   3.463   0.360 -3.1771  1.5306 -1.1856
11865TIP3   OH257085   1.671   0.855  10.729 -0.4895 -0.3206 -0.2920
11865TIP3    H157086   1.699   0.764  10.729 -0.2572 -0.2849  1.9259
11865TIP3    H257087   1.577   0.851  10.744 -0.5930 -0.2084 -0.8954
11866TIP3   OH257088   1.645   3.933  15.116  0.0125 -0.4035  0.0582
11866TIP3    H157089   1.605   3.954  15.201 -1.2238 -2.2444 -0.0431
11866TIP3    H257090   1.713   3.869  15.138 -1.3020 -2.0042 -0.5026
11867TIP3   OH257091   3.372   2.343   4.878 -0.0548 -0.1623 -0.4314
11867TIP3    H157092   3.309   2.330   4.948  0.2369 -0.7066 -0.2654
11867TIP3    H257093   3.397   2.435   4.884 -0.3481 -0.1085 -0.0897
11868TIP3   OH257094   0.888   5.049  17.221  0.3760 -0.1371  0.3651
11868TIP3    H157095   0.970   5.061  17.173  0.0344  0.5171 -0.0671
11868TIP3    H257096   0.846   5.135  17.217 -0.2572 -0.4336  0.7178
11869TIP3   OH257097   2.052   3.426  15.766 -0.0530 -0.3040 -0.2664
11869TIP3    H157098   2.019   3.337  15.779 -1.5909  0.4515  1.3115
11869TIP3    H257099   1.998   3.480  15.823 -0.7899  2.0016 -3.0033
11870TIP3   OH257100   0.660   2.923  13.545  0.4710 -0.1617 -0.4094
11870TIP3    H157101   0.645   2.929  13.451  0.3288 -0.4870 -0.4072
11870TIP3    H257102   0.621   2.839  13.571  2.3865 -1.0919 -0.4222
11871TIP3   OH257103   0.580   3.749   3.649  0.4983 -0.5035 -0.3744
11871TIP3    H157104   0.533   3.687   3.594 -0.6194  1.6231 -1.8652
11871TIP3    H257105   0.525   3.757   3.728 -0.6651  0.4961 -1.2730
11872TIP3   OH257106   1.776   6.811   5.220 -0.3527 -0.5930 -0.0911
11872TIP3    H157107   1.783   6.720   5.189  0.8823  0.1271 -2.0052
11872TIP3    H257108   1.821   6.811   5.305 -1.4025 -2.0090  0.4958
11873TIP3   OH257109   0.313   6.059   3.949  0.1524 -0.1496  0.2602
11873TIP3    H157110   0.331   6.001   4.024 -0.8905  0.7343  1.2077
11873TIP3    H257111   0.346   6.144   3.977  1.2227 -0.1508 -0.9371
11874TIP3   OH257112   2.492   5.470   4.033 -0.1927 -0.2479 -0.1578
11874TIP3    H157113   2.506   5.394   3.976  1.8543 -0.8664  1.1008
11874TIP3    H257114   2.545   5.451   4.111 -0.9705  1.7207  0.8833
11875TIP3   OH257115   4.256   3.043   4.373 -0.0523  0.4439 -0.3342
11875TIP3    H157116   4.249   3.090   4.290  2.9997  1.7050  0.0353
11875TIP3    H257117   4.182   3.073   4.425  0.4646  2.9951 -1.0336
11876TIP3   OH257118   1.321   4.450  14.463 -0.0023 -0.1914 -0.0246
11876TIP3    H157119   1.244   4.478  14.414 -1.0385 -0.7088  1.2540
11876TIP3    H257120   1.290   4.376  14.516  0.5480  1.4932  2.7893
11877TIP3   OH257121   0.278   4.236   1.821 -0.2331 -0.0927  0.1256
11877TIP3    H157122   0.199   4.272   1.862  0.0696 -1.0993  1.6267
11877TIP3    H257123   0.327   4.197   1.893  1.8221  0.8287 -0.7636
11878TIP3   OH257124   3.810   0.178   3.737 -0.8072 -0.1485 -0.4599
11878TIP3    H157125   3.876   0.170   3.668 -0.3357  0.1664 -0.0450
11878TIP3    H257126   3.848   0.239   3.800 -2.5424  2.0363 -1.4452
11879TIP3   OH257127   1.625   0.680   6.287  0.1250  1.3548 -0.6433
11879TIP3    H157128   1.659   0.769   6.284  1.7939  0.7325 -1.0667
11879TIP3    H257129   1.704   0.625   6.290 -0.8898 -0.0858 -0.0799
11880TIP3   OH257130   1.407   3.082   0.318 -0.2906  0.1388 -0.5272
11880TIP3    H157131   1.403   3.015   0.249  0.7486 -1.9951  1.4258
11880TIP3    H257132   1.431   3.034   0.397 -1.8555  2.4679  1.4545
11881TIP3   OH257133   4.747   0.388  13.183 -0.0757 -0.6899 -0.4969
11881TIP3    H157134   4.791   0.434  13.112 -0.4269 -1.6813 -1.3750
11881TIP3    H257135   4.773   0.435  13.262 -1.1412  1.5708 -1.4466
11882TIP3   OH257136   3.646   1.205  15.050 -0.2561  0.1821  0.2159
11882TIP3    H157137   3.597   1.164  14.979 -0.1143  0.8781 -0.2826
11882TIP3    H257138   3.650   1.298  15.027  2.3335 -0.0475 -0.3754
11883TIP3   OH257139   3.981   6.132   4.362 -0.2559 -0.1535  0.4537
11883TIP3    H157140   3.925   6.181   4.422  0.5601  0.0325  1.0699
11883TIP3    H257141   4.070   6.149   4.393  0.2787  1.1210 -1.6795
11884TIP3   OH257142   1.988   1.490  13.264  0.2691  0.7825 -0.2339
11884TIP3    H157143   2.047   1.446  13.324 -1.3220  0.6958  1.3219
11884TIP3    H257144   2.045   1.528  13.198  1.9195 -0.7199  0.2753
11885TIP3   OH257145   1.147   4.014  14.528 -0.3408 -0.1390 -0.2153
11885TIP3    H157146   1.202   4.044  14.601  0.0014  1.2102 -1.0121
11885TIP3    H257147   1.058   4.027  14.560 -0.1906 -0.0937  0.1960
11886TIP3   OH257148   0.238   6.024  11.580  0.1652  0.1972  0.4047
11886TIP3    H157149   0.248   6.030  11.675  0.5711 -0.5800  0.4192
11886TIP3    H257150   0.321   5.988  11.550  0.6430  1.9207 -0.4234
11887TIP3   OH257151   2.528   3.992   1.718  0.6468  0.1187  0.1682
11887TIP3    H157152   2.488   4.075   1.692 -0.1402 -0.9697 -2.2279
11887TIP3    H257153   2.613   3.991   1.676  1.4521  0.5129  1.7398
11888TIP3   OH257154   1.502   0.329  11.567 -0.0014 -0.3206  0.2247
11888TIP3    H157155   1.451   0.341  11.487  0.5296  0.5709  0.0108
11888TIP3    H257156   1.447   0.274  11.623 -0.9721  0.1946 -0.2108
11889TIP3   OH257157   5.616   3.042   1.121 -0.4880  0.1710  0.0503
11889TIP3    H157158   5.534   3.046   1.169 -1.4690 -1.5209 -1.4426
11889TIP3    H257159   5.680   3.011   1.185 -0.9892  1.4295  1.1955
11890TIP3   OH257160   5.687   1.334  15.029 -0.5126 -0.1370 -0.3277
11890TIP3    H157161   5.649   1.420  15.043 -2.1501 -0.9890  0.6015
11890TIP3    H257162   5.624   1.289  14.972  0.1620 -0.8456 -0.5297
11891TIP3   OH257163   1.286   6.600  10.537  0.5014  0.1407 -0.6452
11891TIP3    H157164   1.357   6.649  10.496  2.1757 -1.4864  0.2821
11891TIP3    H257165   1.275   6.523  10.481  1.2159 -0.9078  0.6453
11892TIP3   OH257166   2.427   2.655  11.363 -0.0987  0.4496 -0.4991
11892TIP3    H157167   2.383   2.714  11.302 -1.1562  0.3303  0.1221
11892TIP3    H257168   2.491   2.709  11.409  1.4452  0.3023 -2.4514
11893TIP3   OH257169   3.973   4.312   1.463 -0.3497  0.4054 -0.0125
11893TIP3    H157170   3.956   4.321   1.369 -0.2029  1.2215  0.0317
11893TIP3    H257171   3.886   4.309   1.503 -0.4275  1.9342 -0.0179
11894TIP3   OH257172   3.132   3.849  12.539  0.3308  0.5193  0.6222
11894TIP3    H157173   3.047   3.843  12.583  0.3298  1.3624  0.7434
11894TIP3    H257174   3.116   3.905  12.463  0.1050 -1.7556 -1.0471
11895TIP3   OH257175   2.492   6.130  15.746 -0.3441 -0.0375 -0.0962
11895TIP3    H157176   2.504   6.035  15.746 -1.6200 -0.2200 -1.6877
11895TIP3    H257177   2.508   6.157  15.655 -0.1196  1.2551  0.3077
11896TIP3   OH257178   4.380   3.983  13.372  0.4072 -0.1453  0.5278
11896TIP3    H157179   4.346   4.048  13.311 -0.1842 -1.3941 -0.4830
11896TIP3    H257180   4.305   3.929  13.395  0.6973  0.0941  2.1071
11897TIP3   OH257181   5.384   4.032  15.156 -0.0516 -0.0384  0.1129
11897TIP3    H157182   5.328   4.097  15.197  0.5090 -1.0150  2.5119
11897TIP3    H257183   5.449   4.011  15.223  2.2208 -0.1085 -2.0419
11898TIP3   OH257184   3.502   5.377   2.610  0.1947 -0.1919  0.1621
11898TIP3    H157185   3.597   5.385   2.623  0.1247  0.6423  0.1467
11898TIP3    H257186   3.480   5.291   2.648  0.9022 -0.2529  0.4441
11899TIP3   OH257187   2.477   4.108  13.474  0.2841 -0.1021 -0.0886
11899TIP3    H157188   2.555   4.052  13.480 -0.0378 -0.5805 -0.3393
11899TIP3    H257189   2.492   4.162  13.396  0.0968 -0.6122 -0.4823
11900TIP3   OH257190   0.481   5.965  13.281  0.0984  0.2737 -0.1797
11900TIP3    H157191   0.536   5.887  13.271  0.3536  0.3312  0.7154
11900TIP3    H257192   0.537   6.038  13.256  0.4980  0.3491  0.9071
11901TIP3   OH257193   3.827   1.648  14.377 -0.2308  0.8535  0.1452
11901TIP3    H157194   3.831   1.695  14.293  2.3509 -2.2409 -1.5739
11901TIP3    H257195   3.774   1.570  14.358 -0.8248  0.8328  1.8038
11902TIP3   OH257196   2.299   2.752  10.785 -0.0199  0.1525 -0.0156
11902TIP3    H157197   2.251   2.834  10.798  1.5761  1.0444  0.4345
11902TIP3    H257198   2.385   2.769  10.823  0.6594 -1.4076 -0.8304
11903TIP3   OH257199   1.891   0.352   3.742  0.2322  0.1237 -0.4917
11903TIP3    H157200   1.947   0.279   3.714  1.0605  1.3157 -2.0052
11903TIP3    H257201   1.814   0.310   3.779  1.0911 -1.5327 -0.5432
11904TIP3   OH257202   5.706   3.042   2.307 -0.1339 -0.7064  0.4396
11904TIP3    H157203   5.629   3.050   2.250  1.8085  0.1518 -2.1150
11904TIP3    H257204   5.700   3.117   2.366 -2.0974 -1.5312  1.3388
11905TIP3   OH257205   2.372   4.236  13.009  0.4029  0.6993  0.8038
11905TIP3    H157206   2.296   4.198  13.053  0.9095  0.3994  1.4169
11905TIP3    H257207   2.447   4.211  13.063  1.0134  0.4422 -0.1538
11906TIP3   OH257208   5.933   6.020  17.115 -0.2442 -0.2629 -0.0576
11906TIP3    H157209   6.026   6.010  17.133 -0.4743 -2.4523  0.0524
11906TIP3    H257210   5.889   5.973  17.186 -1.4703  1.3565  0.2936
11907TIP3   OH257211   5.729   3.150  13.016  0.5454 -0.6886 -0.2567
11907TIP3    H157212   5.807   3.115  13.059  0.2753  0.0586  0.8458
11907TIP3    H257213   5.754   3.238  12.989 -0.1798 -0.1352  0.8476
11908TIP3   OH257214   2.947   1.487   0.495 -0.9006  0.1797  0.0465
11908TIP3    H157215   2.867   1.492   0.444 -0.5989 -2.1162 -0.6884
11908TIP3    H257216   3.015   1.522   0.437 -1.3175  2.0854  0.6544
11909TIP3   OH257217   1.578   4.348  12.723  0.2688  0.7712 -0.1710
11909TIP3    H157218   1.560   4.254  12.727  1.3034  0.4685 -2.0523
11909TIP3    H257219   1.564   4.371  12.631  0.1373  2.4406  0.2559
11910TIP3   OH257220   5.853   0.002   1.017 -0.9425  0.7786  0.0152
11910TIP3    H157221   5.864   0.068   0.948  0.6069 -0.8231 -1.3280
11910TIP3    H257222   5.942  -0.030   1.034 -2.0071 -3.5953 -2.0580
11911TIP3   OH257223   2.555   2.087  11.959 -0.3306 -0.7604  0.4534
11911TIP3    H157224   2.613   2.157  11.990  0.6314 -1.0884 -0.5776
11911TIP3    H257225   2.587   2.067  11.871 -3.3016  0.5290 -0.9904
11912TIP3   OH257226   4.916   5.375   4.918  0.1937  0.2846 -0.2105
11912TIP3    H157227   4.827   5.368   4.882  0.3847 -0.4846 -0.5214
11912TIP3    H257228   4.933   5.469   4.920 -0.9735  0.4973  0.6782
11913TIP3   OH257229   0.284   6.760  12.000  0.2498  0.0053  0.3304
11913TIP3    H157230   0.345   6.834  12.005 -0.4240  0.6069 -0.2660
11913TIP3    H257231   0.205   6.790  12.043  0.5092 -0.9349  1.4907
11914TIP3   OH257232   1.453   6.008   2.084  0.2082 -0.1161  0.6803
11914TIP3    H157233   1.450   6.104   2.094 -2.9193  0.0595 -1.2515
11914TIP3    H257234   1.376   5.987   2.031  1.1074 -3.6865  0.6607
11915TIP3   OH257235   3.451   5.159   0.360  0.7763  0.3396 -0.7388
11915TIP3    H157236   3.466   5.108   0.281  1.8336 -0.6497  0.0789
11915TIP3    H257237   3.419   5.095   0.424 -1.0342  1.3124 -0.6572
11916TIP3   OH257238   2.638   1.116   4.747 -0.0610  0.5852 -0.0042
11916TIP3    H157239   2.632   1.075   4.833 -1.0150 -0.7272 -0.6803
11916TIP3    H257240   2.698   1.189   4.760  0.7174 -0.2869  1.5159
11917TIP3   OH257241   0.510   1.375  13.345 -0.3443  0.4083 -0.1337
11917TIP3    H157242   0.422   1.411  13.352 -0.9358 -0.3742 -2.9241
11917TIP3    H257243   0.536   1.392  13.254  2.0543 -0.1069  0.4230
11918TIP3   OH257244   0.171   5.114   1.901  0.3317  0.5533  0.4143
11918TIP3    H157245   0.256   5.147   1.931 -0.5677  1.8134  1.5999
11918TIP3    H257246   0.109   5.142   1.967 -0.9805 -0.7046 -0.2410
11919TIP3   OH257247   1.495   0.151  17.255 -0.0022 -0.1412  0.4622
11919TIP3    H157248   1.429   0.085  17.232  0.7644 -0.7382 -0.0408
11919TIP3    H257249   1.491   0.156  17.350  0.5853 -1.6027  0.5733
11920TIP3   OH257250   4.508   4.163   5.772 -0.5528 -0.5727 -0.0444
11920TIP3    H157251   4.551   4.079   5.753  0.5758 -0.0614  0.2258
11920TIP3    H257252   4.415   4.142   5.776 -0.5948 -1.2631 -3.2107
11921TIP3   OH257253   3.869   1.224  15.956  0.1623 -0.4895 -0.0286
11921TIP3    H157254   3.830   1.178  15.881  0.7873 -2.7452  1.0175
11921TIP3    H257255   3.819   1.306  15.962 -2.8714 -2.2662 -0.1705
11922TIP3   OH257256   2.574   3.858  10.411  0.4677 -0.3664  0.4500
11922TIP3    H157257   2.611   3.915  10.344 -1.0902 -0.1646 -0.2608
11922TIP3    H257258   2.561   3.915  10.487  0.8055 -0.2473  0.4196
11923TIP3   OH257259   1.347   2.176  12.070  0.0775 -0.1843 -0.4969
11923TIP3    H157260   1.302   2.243  12.019  1.0769 -0.5461 -1.8786
11923TIP3    H257261   1.437   2.208  12.078  0.0286 -0.3187  0.7112
11924TIP3   OH257262   5.979   0.475  15.607  0.7319  0.0223 -0.0771
11924TIP3    H157263   6.063   0.502  15.643  0.6066  2.7856 -1.6680
11924TIP3    H257264   5.947   0.407  15.666  3.8759 -0.7830  0.7619
11925TIP3   OH257265   3.350   5.980   2.012 -0.4260 -0.1357  0.9023
11925TIP3    H157266   3.270   5.935   1.986 -0.2828  0.5242 -0.7225
11925TIP3    H257267   3.361   5.957   2.104 -2.4499 -0.2457  1.1339
11926TIP3   OH257268   6.350   5.159  15.532  0.0411 -0.2219 -0.7579
11926TIP3    H157269   6.421   5.220  15.550 -0.6442  1.0701 -2.2634
11926TIP3    H257270   6.393   5.077  15.510  0.9841 -0.2046  0.9559
11927TIP3   OH257271   3.471   5.474  10.522 -0.1186  0.2375  0.7877
11927TIP3    H157272   3.393   5.486  10.576 -0.4831  0.0951  0.2933
11927TIP3    H257273   3.456   5.392  10.476 -0.5507  1.1486 -0.7575
11928TIP3   OH257274   1.034   6.362   4.205 -0.2416  0.3414 -0.1293
11928TIP3    H157275   1.043   6.268   4.187 -0.9489  0.0895  0.7895
11928TIP3    H257276   0.951   6.386   4.163  0.1107  0.6412 -0.6648
11929TIP3   OH257277   1.511   6.592   5.971  0.4438  0.0887 -0.1827
11929TIP3    H157278   1.537   6.538   5.896  2.8906 -1.5142  1.7226
11929TIP3    H257279   1.424   6.561   5.994  0.5850 -0.9588 -1.0121
11930TIP3   OH257280   0.407   4.321   4.553 -0.0426 -0.0268 -0.2956
11930TIP3    H157281   0.329   4.374   4.568  0.1986 -0.0634  1.1786
11930TIP3    H257282   0.402   4.251   4.618  1.4619  0.2594  0.1571
11931TIP3   OH257283   1.041   3.001  10.857 -0.0518 -0.3543 -0.2256
11931TIP3    H157284   0.996   2.938  10.801 -0.4326 -2.0885  1.9534
11931TIP3    H257285   1.075   2.949  10.929 -3.9691  2.3380  3.8821
11932TIP3   OH257286   5.552   3.562   3.167  0.2414 -0.0909 -0.3941
11932TIP3    H157287   5.633   3.612   3.179 -0.6897  1.0812  1.2811
11932TIP3    H257288   5.580   3.471   3.165  1.5864  0.2916  0.2424
11933TIP3   OH257289   6.697   3.730  12.150 -0.2815 -0.7051  0.2527
11933TIP3    H157290   6.666   3.749  12.062  1.1977  0.7151  0.0157
11933TIP3    H257291   6.629   3.675  12.189 -0.7812 -1.6233 -1.8855
11934TIP3   OH257292   3.660   0.290  14.356 -0.1642  0.0326 -0.3123
11934TIP3    H157293   3.638   0.380  14.333 -0.4390  0.1931  0.5342
11934TIP3    H257294   3.754   0.291  14.371  0.2874 -0.4237 -2.9332
11935TIP3   OH257295   4.691   4.152  14.296 -0.2947 -0.0207  0.6847
11935TIP3    H157296   4.724   4.133  14.384 -1.9839 -1.5010  1.0260
11935TIP3    H257297   4.597   4.161  14.307 -0.4380  0.5721 -0.8650
11936TIP3   OH257298   4.923   1.296   2.777 -0.2535  0.7016 -0.0258
11936TIP3    H157299   4.986   1.225   2.766  0.2664  0.4134  3.8670
11936TIP3    H257300   4.975   1.370   2.808 -1.5575  0.9106  1.7663
11937TIP3   OH257301   0.467   1.067   6.062 -0.1447 -0.0371  0.0607
11937TIP3    H157302   0.514   1.150   6.063 -1.4006  0.6950  0.6910
11937TIP3    H257303   0.444   1.051   6.153  0.4611 -1.3064  0.0003
11938TIP3   OH257304   6.173   5.306  10.442 -0.8031 -0.0051  0.1830
11938TIP3    H157305   6.246   5.337  10.388  1.4065 -1.7757  2.0656
11938TIP3    H257306   6.143   5.385  10.489  0.3669  0.5967 -0.0695
11939TIP3   OH257307   1.831   5.868  11.528 -0.0250 -0.2122 -0.4718
11939TIP3    H157308   1.872   5.923  11.595 -0.6350 -1.3598  0.8575
11939TIP3    H257309   1.785   5.930  11.471  1.0947  0.8292 -0.2518
11940TIP3   OH257310   5.501   4.613   0.648 -0.4618 -0.0319 -0.0436
11940TIP3    H157311   5.461   4.593   0.564  0.1500  0.7248 -0.5161
11940TIP3    H257312   5.595   4.604   0.633 -0.4161 -1.3360  0.9414
11941TIP3   OH257313   1.463   6.217  12.945 -0.0744 -0.0023  0.1999
11941TIP3    H157314   1.458   6.230  13.040 -1.5820  1.6542 -0.0933
11941TIP3    H257315   1.391   6.269  12.910 -0.1055 -1.3720 -1.7956
11942TIP3   OH257316   5.941   0.506   5.984 -0.3241  0.0989  0.3635
11942TIP3    H157317   6.021   0.455   6.001  0.3664  1.6503  1.9400
11942TIP3    H257318   5.948   0.582   6.042 -2.1000  1.1792 -0.7753
11943TIP3   OH257319   6.767   1.962   2.726 -0.2932  0.0083 -0.2911
11943TIP3    H157320   6.803   1.908   2.655  1.1938  1.7171 -0.8829
11943TIP3    H257321   6.772   2.052   2.692 -2.4788  0.5673  0.7725
11944TIP3   OH257322   1.352   3.212  14.551  0.3038  0.2895 -0.4571
11944TIP3    H157323   1.299   3.259  14.486  0.3326  0.2474 -0.5115
11944TIP3    H257324   1.350   3.268  14.629  0.5122  0.4858 -0.5899
11945TIP3   OH257325   2.644   3.089  14.874 -0.0084  0.3318 -0.6902
11945TIP3    H157326   2.581   3.110  14.943  0.5102  0.3880 -0.2348
11945TIP3    H257327   2.599   3.025  14.820 -0.6634  0.7714 -0.6692
11946TIP3   OH257328   4.259   2.300  13.778 -0.5892  0.5437  0.2457
11946TIP3    H157329   4.246   2.395  13.778 -1.5558  0.4362 -1.6592
11946TIP3    H257330   4.282   2.279  13.687  0.5247 -0.9430  0.8470
11947TIP3   OH257331   3.194   0.468  12.452 -0.4059 -0.1642  0.0383
11947TIP3    H157332   3.102   0.444  12.441 -0.8715  1.8085 -0.5404
11947TIP3    H257333   3.226   0.478  12.362 -0.0779  0.8159  0.2663
11948TIP3   OH257334   3.342   4.794  14.611  0.3984 -1.0563  0.1233
11948TIP3    H157335   3.272   4.836  14.561  0.6569 -0.8205 -0.0383
11948TIP3    H257336   3.420   4.805  14.556  0.9581  0.3650  1.1795
11949TIP3   OH257337   0.860   5.187  11.426 -0.3266 -0.1574  0.6770
11949TIP3    H157338   0.843   5.093  11.426  0.8033 -0.3729  1.6921
11949TIP3    H257339   0.815   5.220  11.348  0.6435 -1.7971 -0.6001
11950TIP3   OH257340   6.200   4.364   3.120 -0.5629  0.1869 -0.0989
11950TIP3    H157341   6.128   4.405   3.169 -0.5722  2.4975 -1.9653
11950TIP3    H257342   6.253   4.321   3.187 -3.1120 -0.6835  1.4134
11951TIP3   OH257343   2.415   1.606  12.738 -0.3351  0.1752 -0.5311
11951TIP3    H157344   2.504   1.576  12.724  0.2934  1.9520 -0.4970
11951TIP3    H257345   2.360   1.534  12.708  1.1137 -1.7809  1.4188
11952TIP3   OH257346   6.502   3.374  15.289  0.5292  0.4778  0.2804
11952TIP3    H157347   6.511   3.448  15.228  0.2024 -0.5661 -1.0456
11952TIP3    H257348   6.412   3.345  15.279  0.9916 -0.8691 -0.1137
11953TIP3   OH257349   2.348   6.152   6.204 -0.3958  0.0134 -0.1447
11953TIP3    H157350   2.396   6.075   6.173  1.1232  1.8739 -2.6016
11953TIP3    H257351   2.406   6.191   6.270  0.4132  0.9148 -1.3659
11954TIP3   OH257352   3.580   0.422  16.785  0.0947 -0.5039 -0.2562
11954TIP3    H157353   3.617   0.360  16.722  2.0069 -0.3106  0.6495
11954TIP3    H257354   3.540   0.490  16.730  1.1040 -0.7220 -1.2856
11955TIP3   OH257355   0.528   0.348   2.444 -0.0247  0.4903  0.4701
11955TIP3    H157356   0.529   0.310   2.356  0.8497  1.3975  0.0649
11955TIP3    H257357   0.480   0.286   2.497 -2.0780  0.7645 -1.0238
11956TIP3   OH257358   4.731   0.536  16.653 -0.6682  0.0076  0.5643
11956TIP3    H157359   4.645   0.496  16.646 -1.1442  1.0162  0.6089
11956TIP3    H257360   4.715   0.630  16.644  0.1329  0.3924  2.8292
11957TIP3   OH257361   3.608   3.420  17.005 -0.1082  0.7403  0.2857
11957TIP3    H157362   3.561   3.503  17.003 -0.3017  0.6133 -0.6685
11957TIP3    H257363   3.655   3.416  16.922  0.8433  0.4269  0.8320
11958TIP3   OH257364   0.239   6.231   6.666 -0.6259 -0.4637  0.1213
11958TIP3    H157365   0.334   6.244   6.666 -0.7788  0.8742 -1.7054
11958TIP3    H257366   0.228   6.139   6.640  0.1799 -0.8028  0.9462
11959TIP3   OH257367   0.574   0.018   6.018 -0.4353  0.0205  0.0288
11959TIP3    H157368   0.535  -0.032   6.089  0.0332 -0.7218 -0.2344
11959TIP3    H257369   0.570  -0.040   5.942 -0.5064  0.6322 -0.4359
11960TIP3   OH257370   6.324   3.937   0.832 -0.5114  0.5746 -0.1038
11960TIP3    H157371   6.415   3.932   0.801 -0.5331 -1.7882  0.1850
11960TIP3    H257372   6.288   4.013   0.786  0.5337 -0.6625 -3.0944
11961TIP3   OH257373   1.278   2.216  16.922  0.3129 -1.0570  0.2856
11961TIP3    H157374   1.358   2.269  16.915  1.6796 -3.2501 -1.4330
11961TIP3    H257375   1.263   2.207  17.016  1.5495  0.1894  0.6121
11962TIP3   OH257376   4.553   1.484  16.806 -0.4876  0.3583  0.4479
11962TIP3    H157377   4.488   1.421  16.774  0.8831 -1.1838  0.6036
11962TIP3    H257378   4.504   1.565  16.820 -2.0212 -0.2740 -1.1062
11963TIP3   OH257379   0.774   2.002   2.178 -0.2272 -0.0305  0.4139
11963TIP3    H157380   0.768   2.015   2.083  0.3402  0.5905  0.4612
11963TIP3    H257381   0.684   2.005   2.209 -0.6273 -2.3631 -0.3856
11964TIP3   OH257382   1.289   4.022   4.244  0.0839 -0.2221  0.0534
11964TIP3    H157383   1.322   3.982   4.164  1.0993 -0.1187  0.4146
11964TIP3    H257384   1.361   4.078   4.275 -0.4946  0.1572  0.7483
11965TIP3   OH257385   4.834   0.141   0.804  0.1935  0.6147  0.0042
11965TIP3    H157386   4.879   0.079   0.861  2.0633  0.9958 -1.0089
11965TIP3    H257387   4.802   0.210   0.863 -0.1734 -0.3058  0.8859
11966TIP3   OH257388   2.144   1.890  11.637 -0.2173 -0.3032  0.3131
11966TIP3    H157389   2.182   1.949  11.571 -1.5770 -1.7409 -1.8286
11966TIP3    H257390   2.168   1.803  11.607  0.5653 -0.9344  2.6873
11967TIP3   OH257391   0.904   2.008  16.206  0.8529  0.8764  0.0353
11967TIP3    H157392   0.936   2.045  16.288  1.0066  1.8446 -0.4575
11967TIP3    H257393   0.949   1.924  16.198  1.2931  1.0540  0.6361
11968TIP3   OH257394   6.691   2.402   3.959  0.1830 -0.2202 -0.4892
11968TIP3    H157395   6.652   2.316   3.971  0.8054 -0.3871  0.3497
11968TIP3    H257396   6.715   2.405   3.867 -1.3123 -0.3265 -0.8886
11969TIP3   OH257397   3.293   6.334  11.592  0.8413  0.2552 -0.2403
11969TIP3    H157398   3.356   6.268  11.563  1.0795  0.2347  0.3261
11969TIP3    H257399   3.217   6.321  11.534  0.3213 -1.4710  0.7782
11970TIP3   OH257400   0.386   0.631   4.114 -0.3538 -0.3285 -0.3867
11970TIP3    H157401   0.446   0.557   4.116 -1.0193 -0.8614  0.0585
11970TIP3    H257402   0.354   0.639   4.204 -0.2317  0.5500 -0.4114
11971TIP3   OH257403   0.581   5.398   6.241 -0.3413  1.1804  0.3461
11971TIP3    H157404   0.502   5.372   6.193  1.0397 -0.0415 -1.3113
11971TIP3    H257405   0.599   5.486   6.211  0.6439  0.3385 -1.5948
11972TIP3   OH257406   6.147   6.158   0.169  0.0320  0.2080 -0.1268
11972TIP3    H157407   6.108   6.168   0.256 -1.0593 -0.0030 -0.5733
11972TIP3    H257408   6.182   6.245   0.148  0.9085  0.0775  0.8064
11973TIP3   OH257409   6.149   5.606  14.782  0.0765  0.2609  0.6213
11973TIP3    H157410   6.059   5.601  14.812 -0.1787  1.4339  0.0845
11973TIP3    H257411   6.196   5.648  14.853  0.5874 -2.0007  1.6750
11974TIP3   OH257412   2.893   4.012   3.243 -0.6692  0.1349  0.3542
11974TIP3    H157413   2.885   4.108   3.240  1.0350  0.2602 -0.9588
11974TIP3    H257414   2.926   3.993   3.331  0.9060  0.9368 -0.0409
11975TIP3   OH257415   4.803   0.602   5.419 -0.0875  0.1946  0.2797
11975TIP3    H157416   4.720   0.590   5.467 -0.2597 -0.5601 -0.1976
11975TIP3    H257417   4.870   0.568   5.479  0.0601  2.1708  1.2844
11976TIP3   OH257418   4.849   0.213   5.004 -0.0746  0.2708 -0.0604
11976TIP3    H157419   4.854   0.185   4.912  1.8412  1.4978 -0.3481
11976TIP3    H257420   4.812   0.301   5.000  2.5227  1.3967  0.1172
11977TIP3   OH257421   0.642   2.551  15.620  0.1117 -0.0260 -0.0613
11977TIP3    H157422   0.581   2.500  15.567  0.8403 -1.0178  0.0303
11977TIP3    H257423   0.587   2.612  15.669 -0.8579 -1.3567  0.5325
11978TIP3   OH257424   4.370   4.631  16.272  0.1368  0.4663 -0.2325
11978TIP3    H157425   4.359   4.536  16.273 -0.7225  0.5501 -1.0749
11978TIP3    H257426   4.449   4.646  16.324 -0.4024 -0.6104  0.9353
11979TIP3   OH257427   4.431   6.595  16.183  0.5213 -0.4474 -0.3384
11979TIP3    H157428   4.430   6.680  16.139  0.8864 -0.1272  0.2708
11979TIP3    H257429   4.340   6.566  16.180  0.6329 -0.7184 -1.8522
11980TIP3   OH257430   4.683   4.362   5.892  0.3635 -0.6810  0.2571
11980TIP3    H157431   4.629   4.293   5.853  0.3655 -0.3981 -0.2518
11980TIP3    H257432   4.723   4.321   5.969 -0.3499 -0.9766  0.4767
11981TIP3   OH257433   0.673   2.365  12.879 -0.0303 -0.7370  0.2228
11981TIP3    H157434   0.613   2.300  12.917  0.1994  0.1288  2.1122
11981TIP3    H257435   0.722   2.399  12.953  0.7288  0.7161 -0.9149
11982TIP3   OH257436   3.739   3.444  14.410  0.0005  0.6213 -0.0163
11982TIP3    H157437   3.806   3.375  14.409 -0.8532 -0.2234  0.0985
11982TIP3    H257438   3.787   3.525  14.426  0.7302 -0.2700  2.4989
11983TIP3   OH257439   5.976   3.691   6.098  0.1010 -0.4451  0.4488
11983TIP3    H157440   5.901   3.639   6.128  0.3856 -0.5610  0.9547
11983TIP3    H257441   6.049   3.660   6.151  1.0811 -2.2549 -1.8686
11984TIP3   OH257442   5.987   3.752  16.177  0.2714  0.2108  0.0654
11984TIP3    H157443   5.944   3.787  16.255  0.4661 -0.2182  0.3695
11984TIP3    H257444   6.050   3.688  16.211 -0.3862 -0.7596 -0.4947
11985TIP3   OH257445   4.582   4.133  10.981  0.0433  0.4610  0.4602
11985TIP3    H157446   4.662   4.118  10.931 -0.2777  1.0563 -0.2312
11985TIP3    H257447   4.512   4.096  10.927 -0.1039 -0.5075  1.2896
11986TIP3   OH257448   6.490   5.058   5.374 -0.0305 -0.0006  0.0941
11986TIP3    H157449   6.532   5.097   5.298 -0.3364  3.0997  1.4613
11986TIP3    H257450   6.396   5.068   5.359 -0.1115 -0.0604  0.5340
11987TIP3   OH257451   6.689   5.575   5.553  0.1151 -0.4945 -0.0557
11987TIP3    H157452   6.654   5.656   5.516  0.5416  0.3028  1.2593
11987TIP3    H257453   6.639   5.562   5.633  1.1550 -0.6415  0.5825
11988TIP3   OH257454   5.563   4.698  11.300  0.1472  0.4788 -0.3673
11988TIP3    H157455   5.495   4.656  11.247  0.0582  0.8565 -0.5565
11988TIP3    H257456   5.643   4.689  11.248  0.2765 -0.1425 -0.0535
11989TIP3   OH257457   0.278   0.153   3.518  0.1890  0.1962  0.3803
11989TIP3    H157458   0.345   0.202   3.565 -0.6870 -0.3938  2.3149
11989TIP3    H257459   0.240   0.216   3.457  0.2444  1.4575  1.6230
11990TIP3   OH257460   2.345   0.154  17.039  0.0833  0.1316  0.0748
11990TIP3    H157461   2.383   0.106  16.966  1.1561  0.7179  0.2376
11990TIP3    H257462   2.301   0.229  16.999 -1.0637 -0.6324 -0.1278
11991TIP3   OH257463   3.467   6.119  14.680 -0.5371  0.0898 -0.0912
11991TIP3    H157464   3.474   6.064  14.601 -1.1881  1.6166 -1.2331
11991TIP3    H257465   3.397   6.079  14.731 -0.4715 -0.6059 -0.5408
11992TIP3   OH257466   5.344   2.567   3.406  0.2038 -0.0439  0.4427
11992TIP3    H157467   5.296   2.547   3.325  0.6650 -0.1094  0.1819
11992TIP3    H257468   5.292   2.526   3.475  0.2371 -0.6952  0.0887
11993TIP3   OH257469   0.498   6.059   4.810 -1.0129 -0.5149  0.4169
11993TIP3    H157470   0.447   6.073   4.730 -0.0171  0.6491 -0.0293
11993TIP3    H257471   0.440   6.090   4.880 -1.0821  0.4306 -0.0498
11994TIP3   OH257472   0.665   0.271  15.760  0.2203 -0.0603  0.3340
11994TIP3    H157473   0.636   0.255  15.850 -1.5325 -1.4733 -0.4438
11994TIP3    H257474   0.597   0.326  15.722  1.6515  1.7066  0.2443
11995TIP3   OH257475   6.341   4.624   2.221  0.2089  0.8571  0.2003
11995TIP3    H157476   6.433   4.622   2.194  0.5339 -0.5375  1.3283
11995TIP3    H257477   6.293   4.588   2.147  0.8105 -0.4530  0.4294
11996TIP3   OH257478   4.475   6.230   4.501 -0.1934 -0.4299  0.2828
11996TIP3    H157479   4.521   6.293   4.445  1.3726  0.2241  2.2165
11996TIP3    H257480   4.545   6.181   4.544 -1.3539 -1.1482  1.3885
11997TIP3   OH257481   2.141   1.612   5.599 -0.1256  0.3916 -0.0945
11997TIP3    H157482   2.059   1.571   5.626 -0.0875  0.0909 -0.4381
11997TIP3    H257483   2.139   1.611   5.503  0.9843 -1.0428 -0.1192
11998TIP3   OH257484   2.493   3.442  16.998 -0.0458 -1.4704 -0.8261
11998TIP3    H157485   2.524   3.518  17.047  0.0668 -1.1400 -1.4091
11998TIP3    H257486   2.571   3.389  16.982 -0.0628 -1.5173 -0.7528
11999TIP3   OH257487   5.507   1.886   2.935  0.1812  0.2284 -0.2201
11999TIP3    H157488   5.440   1.856   2.874  0.5223 -2.2116  0.5431
11999TIP3    H257489   5.589   1.874   2.888  0.2357  1.1582 -0.3625
12000TIP3   OH257490   0.269   5.184  11.379 -0.0277 -0.4827 -0.3619
12000TIP3    H157491   0.196   5.152  11.431 -1.1327 -0.0252 -1.6144
12000TIP3    H257492   0.337   5.205  11.443 -0.5227 -2.0787  0.7280
12001TIP3   OH257493   5.712   1.417  11.199 -0.2415 -0.3022  0.3015
12001TIP3    H157494   5.645   1.472  11.158  0.5379  1.3470  1.2023
12001TIP3    H257495   5.672   1.386  11.280  0.2448  1.0448  1.0568
12002TIP3   OH257496   0.681   6.420   4.309  0.0414 -0.6520  0.5064
12002TIP3    H157497   0.761   6.421   4.257 -0.7415 -0.0238 -0.7008
12002TIP3    H257498   0.652   6.511   4.311 -0.1471 -0.7354  1.7180
12003TIP3   OH257499   4.875   6.493   4.357  0.3114 -0.3388 -0.0770
12003TIP3    H157500   4.969   6.484   4.344  0.5376  3.1956 -1.4509
12003TIP3    H257501   4.864   6.497   4.452  2.0642  2.9903  0.0635
12004TIP3   OH257502   0.192   2.135  16.235 -0.4654 -0.0556  0.0428
12004TIP3    H157503   0.127   2.197  16.203  1.5134  1.9303 -0.2811
12004TIP3    H257504   0.166   2.051  16.197 -1.6764  1.0970 -1.7566
12005TIP3   OH257505   6.592   0.871   5.264 -0.1798 -0.0567 -0.2932
12005TIP3    H157506   6.502   0.902   5.259  0.0304  0.3602 -1.5842
12005TIP3    H257507   6.587   0.780   5.233  0.0321  0.3622 -1.5886
12006TIP3   OH257508   1.683   4.336  14.429 -0.3349  0.3059 -0.5616
12006TIP3    H157509   1.656   4.273  14.495 -0.8757 -0.0938 -1.1521
12006TIP3    H257510   1.778   4.332  14.429 -0.3624 -0.3587 -0.4503
12007TIP3   OH257511   1.868   3.209   0.289 -0.3621 -0.4587 -0.5899
12007TIP3    H157512   1.841   3.188   0.200 -0.5854  1.2992 -0.9462
12007TIP3    H257513   1.788   3.240   0.332  0.1801  0.6456 -0.3768
12008TIP3   OH257514   2.422   0.041  11.857  0.4994  0.0030  0.0390
12008TIP3    H157515   2.449   0.110  11.918  0.8777 -0.5605  0.5059
12008TIP3    H257516   2.422   0.084  11.771 -0.1523  0.8330  0.4404
12009TIP3   OH257517   5.850   5.476  15.165  0.0250  0.1114 -0.4175
12009TIP3    H157518   5.820   5.543  15.227  0.1151  1.1581 -1.4724
12009TIP3    H257519   5.946   5.484  15.166  0.0651 -0.4585 -0.0393
12010TIP3   OH257520   4.435   2.878   3.864  0.0804 -0.6280  0.0221
12010TIP3    H157521   4.340   2.865   3.866 -0.1972  0.9854 -1.1264
12010TIP3    H257522   4.464   2.830   3.786 -0.0116  0.0685 -0.4487
12011TIP3   OH257523   3.133   6.292   1.244 -0.3144 -0.1619  0.2142
12011TIP3    H157524   3.220   6.320   1.215  0.0104 -1.7525 -0.4084
12011TIP3    H257525   3.105   6.360   1.305  0.7825  1.0732 -0.6303
12012TIP3   OH257526   5.770   1.458  16.063 -0.3180 -0.3794 -0.3272
12012TIP3    H157527   5.853   1.430  16.024  1.8774  1.6860  2.6983
12012TIP3    H257528   5.723   1.500  15.990  2.2499  0.4313 -1.5847
12013TIP3   OH257529   6.469   5.267   0.721 -0.0258 -0.7208  0.0160
12013TIP3    H157530   6.433   5.353   0.742  0.4453 -0.8694  1.5241
12013TIP3    H257531   6.398   5.206   0.743  0.3598 -0.8544  0.9390
12014TIP3   OH257532   3.050   5.925  13.180 -0.6277  0.2047  0.7556
12014TIP3    H157533   3.047   5.945  13.273 -1.6974 -0.3766  0.8611
12014TIP3    H257534   2.964   5.953  13.147  0.3180  1.8704 -0.3702
12015TIP3   OH257535   4.577   1.289  11.207  0.1424  0.0652 -0.0025
12015TIP3    H157536   4.632   1.251  11.139  1.4979  0.5224  0.8280
12015TIP3    H257537   4.629   1.283  11.287 -1.0106  0.4964  0.7995
12016TIP3   OH257538   4.820   5.150   2.473 -0.6104 -0.0133  0.3373
12016TIP3    H157539   4.817   5.227   2.530  0.2946  0.9976 -0.9687
12016TIP3    H257540   4.730   5.141   2.441 -0.6861  0.6058  0.3615
12017TIP3   OH257541   2.343   2.212   4.359 -0.6183 -0.2281 -0.3756
12017TIP3    H157542   2.386   2.292   4.327  0.3823 -0.5561  0.1194
12017TIP3    H257543   2.339   2.223   4.454 -0.1039 -0.9431 -0.2647
12018TIP3   OH257544   5.148   3.329  14.462 -0.3315  0.1619  0.0054
12018TIP3    H157545   5.142   3.406  14.406  0.0994  0.4075  0.3010
12018TIP3    H257546   5.090   3.347  14.536  0.6691  0.7095  0.6744
12019TIP3   OH257547   0.448   6.582  13.479 -0.2917  0.5254 -0.0089
12019TIP3    H157548   0.419   6.662  13.523  0.2914  0.8868 -0.2841
12019TIP3    H257549   0.528   6.557  13.523 -0.6432 -0.0893  0.2849
12020TIP3   OH257550   1.921   2.334   5.066  0.2971  0.2716 -0.1260
12020TIP3    H157551   1.830   2.323   5.094  0.6512  0.4346  1.1378
12020TIP3    H257552   1.972   2.320   5.146  1.2779  1.9021 -0.4515
12021TIP3   OH257553   0.990   4.590  11.660 -0.0195  0.4384  0.0120
12021TIP3    H157554   0.914   4.587  11.601 -0.2742 -0.3195  0.3692
12021TIP3    H257555   0.996   4.681  11.686 -1.5663  0.3007  0.9446
12022TIP3   OH257556   5.384   3.159  11.807 -0.0608  0.1924  0.9004
12022TIP3    H157557   5.478   3.154  11.824 -0.0242  0.5955  0.8087
12022TIP3    H257558   5.369   3.249  11.780  0.1409 -0.8108 -2.7226
12023TIP3   OH257559   2.343   1.911   2.012 -0.6362  0.3008  0.0762
12023TIP3    H157560   2.267   1.904   2.069 -0.0542 -0.1230  0.8091
12023TIP3    H257561   2.377   1.821   2.006  0.9241  0.8011  1.2930
12024TIP3   OH257562   3.907   0.229   0.735 -0.5392  0.1868 -0.0705
12024TIP3    H157563   3.871   0.295   0.675 -0.0138  1.0777  0.5714
12024TIP3    H257564   3.834   0.204   0.791 -1.2313 -1.2205 -1.5702
12025TIP3   OH257565   2.804   6.768  17.089 -0.0366  0.3824 -0.0686
12025TIP3    H157566   2.796   6.787  17.182  0.3527 -1.9431  0.4480
12025TIP3    H257567   2.785   6.675  17.081 -0.6990  0.6855 -2.4037
12026TIP3   OH257568   1.955   2.414   2.615 -0.2246  0.0240 -0.0495
12026TIP3    H157569   1.979   2.327   2.583 -2.2707 -1.0750  1.3283
12026TIP3    H257570   1.863   2.424   2.594 -0.4012  1.2286  1.1660
12027TIP3   OH257571   6.289   6.410  11.685  0.2718  0.2201  0.3052
12027TIP3    H157572   6.260   6.322  11.661 -1.1980  0.5888  0.6768
12027TIP3    H257573   6.360   6.396  11.747  1.9311 -0.7146 -1.7336
12028TIP3   OH257574   2.075   6.581   4.529  0.7479 -0.4835 -0.1769
12028TIP3    H157575   1.999   6.562   4.583  0.4010  1.6266  0.1129
12028TIP3    H257576   2.041   6.579   4.439 -0.0614  2.1167  0.0337
12029TIP3   OH257577   1.469   2.869   5.444 -0.0468  0.4446 -0.3094
12029TIP3    H157578   1.405   2.909   5.385  0.4412 -0.3744 -1.4297
12029TIP3    H257579   1.536   2.936   5.456  1.1296 -0.2316 -2.7496
12030TIP3   OH257580   3.703   5.456  14.683 -0.4082 -0.1349  0.4070
12030TIP3    H157581   3.715   5.469  14.777 -1.4238 -0.6675  0.6282
12030TIP3    H257582   3.776   5.503  14.642 -0.7168  1.2545  1.4046
12031TIP3   OH257583   1.363   2.396   0.038 -0.4148  0.5993  0.2392
12031TIP3    H157584   1.441   2.371  -0.013  0.3497 -0.9207  2.1260
12031TIP3    H257585   1.291   2.388  -0.024  0.6572 -0.0133 -0.9665
12032TIP3   OH257586   4.913   6.305  11.282 -0.1012  0.0232  0.1154
12032TIP3    H157587   4.949   6.244  11.347  0.7422  0.9526  0.5435
12032TIP3    H257588   4.926   6.260  11.198  0.4833 -0.4073  0.4242
12033TIP3   OH257589   2.392   3.577   0.416  0.0939 -0.0852  0.1366
12033TIP3    H157590   2.477   3.538   0.397  1.0810  0.6064  2.8824
12033TIP3    H257591   2.397   3.665   0.380  0.7948  0.1562  0.7970
12034TIP3   OH257592   0.534   4.680  13.995 -0.5800  0.5615 -0.7305
12034TIP3    H157593   0.494   4.605  13.953  0.3117  0.0955 -0.7641
12034TIP3    H257594   0.495   4.684  14.082  0.5137 -0.8988 -0.1524
12035TIP3   OH257595   6.308   3.870  13.266 -0.3875 -0.0532 -0.1972
12035TIP3    H157596   6.324   3.893  13.357  1.9732  1.5004 -0.9806
12035TIP3    H257597   6.352   3.785  13.255 -0.6088 -0.2053  0.0758
12036TIP3   OH257598   0.570   2.671  11.418  0.4155 -0.2774  0.4853
12036TIP3    H157599   0.571   2.747  11.360 -1.8387 -0.5114  0.0833
12036TIP3    H257600   0.600   2.598  11.364  0.8195 -0.0120  0.3529
12037TIP3   OH257601   3.198   5.526   3.937 -0.6844 -0.5970 -0.3452
12037TIP3    H157602   3.239   5.452   3.891  0.5667 -0.0548 -0.1166
12037TIP3    H257603   3.272   5.576   3.972 -1.5924 -0.3907  1.2972
12038TIP3   OH257604   6.077   0.437   3.708 -0.0236 -0.4798 -0.0173
12038TIP3    H157605   6.079   0.408   3.617  0.5419 -1.0125  0.1594
12038TIP3    H257606   5.983   0.440   3.730 -0.2027  0.6047 -0.8992
12039TIP3   OH257607   2.465   4.279  15.939  0.3413  0.1764 -0.1727
12039TIP3    H157608   2.393   4.235  15.983  1.5035 -0.7965  0.8044
12039TIP3    H257609   2.449   4.266  15.846 -0.5637 -0.3082  0.0492
12040TIP3   OH257610   1.807   1.533   1.714  0.0414 -0.4292  0.0584
12040TIP3    H157611   1.790   1.598   1.782  0.7242 -1.5929  1.3809
12040TIP3    H257612   1.852   1.461   1.760 -0.9020 -1.9371 -1.3090
12041TIP3   OH257613   0.866   5.446  16.239  0.1942 -0.1200 -0.2029
12041TIP3    H157614   0.877   5.502  16.162 -0.6401  0.4069  0.0552
12041TIP3    H257615   0.887   5.503  16.313 -0.4176 -0.2080  0.0466
12042TIP3   OH257616   1.357   6.384  11.352  0.1224  0.3787  0.4073
12042TIP3    H157617   1.308   6.362  11.273  0.4875  0.3035  0.2034
12042TIP3    H257618   1.396   6.302  11.381  2.2792  0.9086 -0.8949
12043TIP3   OH257619   0.919   1.081   1.146  0.5965  0.1980 -0.4528
12043TIP3    H157620   1.012   1.088   1.169  0.5110  0.8097 -0.2915
12043TIP3    H257621   0.902   1.158   1.091 -0.1964  0.9326  0.7967
12044TIP3   OH257622   4.760   3.021   3.914 -0.1156 -0.0177  0.1372
12044TIP3    H157623   4.849   3.056   3.911 -0.1790  0.1373  0.0479
12044TIP3    H257624   4.737   3.007   3.822  0.0246 -0.5928  0.1849
12045TIP3   OH257625   4.658   4.291  11.774 -0.5360  0.0814  0.2511
12045TIP3    H157626   4.672   4.283  11.869 -1.2025 -0.0819  0.3383
12045TIP3    H257627   4.595   4.362  11.765 -2.2609 -1.4288  0.0843
12046TIP3   OH257628   4.138   1.949  15.522 -0.3160  0.0663  0.1925
12046TIP3    H157629   4.072   1.949  15.452 -1.1325  1.7993  0.9220
12046TIP3    H257630   4.176   2.037  15.519  1.1920 -0.5577  0.5072
12047TIP3   OH257631   5.263   1.903   2.787 -0.4833  0.7224 -0.4166
12047TIP3    H157632   5.223   1.983   2.752  1.2487  1.7661 -0.0270
12047TIP3    H257633   5.236   1.834   2.726 -1.4446  1.7129 -1.1160
12048TIP3   OH257634   1.514   3.523   5.514 -0.1681 -0.3316 -0.0023
12048TIP3    H157635   1.602   3.549   5.486 -0.0167  0.2142  0.9296
12048TIP3    H257636   1.457   3.592   5.480 -0.1114 -0.2017  0.1617
12049TIP3   OH257637   0.662   4.134   0.795 -0.1700 -0.3062 -0.2815
12049TIP3    H157638   0.733   4.102   0.740 -0.0589  1.5291 -1.2511
12049TIP3    H257639   0.593   4.068   0.786  0.3859 -0.7277 -1.5044
12050TIP3   OH257640   0.349   2.370  14.861 -0.6369 -0.3919 -0.3758
12050TIP3    H157641   0.420   2.382  14.924 -0.8336 -0.1590 -0.1974
12050TIP3    H257642   0.293   2.447  14.873 -0.6993 -0.3677 -0.8037
12051TIP3   OH257643   3.801   2.246  15.579 -0.3881  0.0542  0.4494
12051TIP3    H157644   3.892   2.243  15.550 -0.1473  2.1145  0.9062
12051TIP3    H257645   3.760   2.171  15.536  0.9869  0.4535 -1.6372
12052TIP3   OH257646   0.617   1.655  15.873  0.1343  0.2840 -0.3676
12052TIP3    H157647   0.536   1.654  15.823  0.9830  1.0358 -1.7888
12052TIP3    H257648   0.611   1.734  15.927 -1.3909 -1.2445  1.8134
12053TIP3   OH257649   5.056   5.122   0.832  0.2926  0.3163  0.1323
12053TIP3    H157650   4.962   5.136   0.819  0.5727  0.8436 -1.3657
12053TIP3    H257651   5.061   5.043   0.887 -1.0433  0.8509  1.0516
12054TIP3   OH257652   0.154   6.037  14.413  0.2969 -0.0308 -0.2091
12054TIP3    H157653   0.213   6.030  14.488 -1.5895 -0.5328  1.2630
12054TIP3    H257654   0.207   6.007  14.339  1.7234 -1.0338  1.1617
12055TIP3   OH257655   0.025   6.138   4.679 -0.1013 -0.1537  0.1734
12055TIP3    H157656  -0.006   6.227   4.665 -0.7580 -0.5612 -1.0964
12055TIP3    H257657  -0.026   6.106   4.753  0.9926  0.9097  1.4187
12056TIP3   OH257658   2.114   4.109   3.630 -0.3963 -0.3426  0.1912
12056TIP3    H157659   2.019   4.115   3.636 -0.6189 -1.5627 -1.7252
12056TIP3    H257660   2.132   4.015   3.623  0.7203  0.0094 -2.3452
12057TIP3   OH257661   2.265   0.438   0.132 -0.5614 -0.2211  0.0436
12057TIP3    H157662   2.223   0.352   0.124 -1.1567 -0.0596  1.2606
12057TIP3    H257663   2.338   0.435   0.070 -1.8155 -0.8487 -1.4632
12058TIP3   OH257664   3.177   5.383  16.970  0.0766  0.3732  0.0961
12058TIP3    H157665   3.158   5.467  16.929 -0.4473 -0.3795 -1.2483
12058TIP3    H257666   3.208   5.328  16.898  1.4231 -0.2738  1.1549
12059TIP3   OH257667   2.400   1.065  13.536  0.2760  0.3912  0.2574
12059TIP3    H157668   2.335   1.130  13.561 -0.5014  0.0801 -0.9122
12059TIP3    H257669   2.354   0.982  13.542  0.5500  0.1730 -0.6453
12060TIP3   OH257670   1.701   4.700  14.401 -0.8384  0.0176 -0.1626
12060TIP3    H157671   1.754   4.775  14.374 -0.5707 -0.7742 -1.9231
12060TIP3    H257672   1.613   4.721  14.369 -0.9701 -0.0083  0.1764
12061TIP3   OH257673   5.279   5.445  13.197  0.1344 -0.7996  0.2056
12061TIP3    H157674   5.199   5.392  13.203 -0.7436  0.1579 -2.2956
12061TIP3    H257675   5.249   5.535  13.211  0.6598 -0.3781 -1.2838
12062TIP3   OH257676   6.748   3.719  14.993  0.2122  0.2315  0.0532
12062TIP3    H157677   6.785   3.720  14.905  0.0753  0.2330 -0.0032
12062TIP3    H257678   6.773   3.803  15.030 -0.3777  0.5466 -0.2500
12063TIP3   OH257679   4.994   6.359  16.139  0.4610  0.9002 -0.2171
12063TIP3    H157680   4.947   6.390  16.217 -0.3145  2.2350 -1.1862
12063TIP3    H257681   4.926   6.316  16.086  1.1249 -0.6456  0.1486
12064TIP3   OH257682   6.421   1.873   0.699 -0.0768 -0.0555 -0.1356
12064TIP3    H157683   6.394   1.861   0.790 -0.6767  0.5151 -0.2442
12064TIP3    H257684   6.349   1.836   0.648  0.3113 -0.4774 -0.3850
12065TIP3   OH257685   0.935   3.884  17.178  0.1557  0.6860 -0.0446
12065TIP3    H157686   0.977   3.802  17.206  1.4851  1.4396  0.1778
12065TIP3    H257687   0.910   3.926  17.260  1.2527  1.4309 -0.0866
12066TIP3   OH257688   0.451   4.888  16.951  0.0140 -0.2909 -0.6207
12066TIP3    H157689   0.432   4.956  16.886  1.3018 -0.0795 -0.7733
12066TIP3    H257690   0.506   4.825  16.904  0.8464 -0.1974  0.2234
12067TIP3   OH257691   0.684   4.224  13.559  0.4284 -0.3456  0.6357
12067TIP3    H157692   0.612   4.161  13.562 -0.4106  0.5660  0.0885
12067TIP3    H257693   0.641   4.310  13.555  1.5379  0.1833 -0.4116
12068TIP3   OH257694   6.590   3.826  16.893 -0.4168  0.5431 -0.4158
12068TIP3    H157695   6.660   3.793  16.836 -1.0397 -0.6195 -0.5244
12068TIP3    H257696   6.627   3.904  16.933  1.7627 -1.2592  1.2075
12069TIP3   OH257697   3.469   0.209  14.831  0.4895  0.6366  0.1285
12069TIP3    H157698   3.437   0.226  14.920  1.5880 -1.5936  1.0060
12069TIP3    H257699   3.403   0.151  14.793  0.2899  1.1640 -0.3288
12070TIP3   OH257700   0.296   6.092  16.143  0.3694 -0.0443  0.7127
12070TIP3    H157701   0.354   6.016  16.136 -0.3247 -0.4090 -1.4556
12070TIP3    H257702   0.233   6.080  16.072  0.0144  2.3538  0.5969
12071TIP3   OH257703   1.588   5.552   2.026  0.7303 -0.3630 -0.1790
12071TIP3    H157704   1.574   5.616   1.956  1.1722 -0.5224 -0.4149
12071TIP3    H257705   1.579   5.603   2.107  1.9386  0.1826 -0.3767
12072TIP3   OH257706   2.124   0.940   1.645 -0.1896 -0.4217 -0.2537
12072TIP3    H157707   2.087   0.868   1.696 -0.0335  1.0771  2.0578
12072TIP3    H257708   2.059   1.010   1.653  0.1523  0.0533 -1.5901
12073TIP3   OH257709   2.233   2.361   2.753  0.7281 -0.0308  0.4398
12073TIP3    H157710   2.152   2.324   2.789 -0.8339  1.3368 -1.5261
12073TIP3    H257711   2.229   2.341   2.660  2.2693  0.7634  0.1935
12074TIP3   OH257712   4.515   4.041   4.815 -0.5889  0.2734 -0.0174
12074TIP3    H157713   4.611   4.038   4.823 -0.5297 -2.0204 -0.9356
12074TIP3    H257714   4.485   3.965   4.865 -1.7835 -0.1522 -1.3578
12075TIP3   OH257715   6.175   5.903   0.817 -0.1536  0.3150 -0.2605
12075TIP3    H157716   6.212   5.989   0.839 -1.0688  1.0842 -1.6743
12075TIP3    H257717   6.124   5.879   0.894 -0.8346  1.5822 -0.3049
12076TIP3   OH257718   1.085   4.253   0.667 -0.0309 -0.2417 -0.3160
12076TIP3    H157719   1.138   4.191   0.617 -1.9509 -1.0159 -1.4307
12076TIP3    H257720   1.019   4.284   0.606 -0.1348  1.6512  0.7128
12077TIP3   OH257721   1.561   1.026   4.923  0.2851  0.6178  0.3811
12077TIP3    H157722   1.485   0.968   4.923  1.6599 -1.2747 -1.8165
12077TIP3    H257723   1.536   1.097   4.864 -0.4435  0.9589  1.0867
12078TIP3   OH257724   5.515   6.678   0.404  0.5104  0.1718 -0.0566
12078TIP3    H157725   5.434   6.685   0.454  1.4393  1.8357  1.2589
12078TIP3    H257726   5.521   6.586   0.380 -1.4704 -0.0793  0.3094
12079TIP3   OH257727   1.137   2.233  17.211  0.5330  0.1558  0.7355
12079TIP3    H157728   1.054   2.229  17.259 -0.9450 -1.1185 -1.7528
12079TIP3    H257729   1.194   2.172  17.257 -0.0357  0.7325  2.2470
12080TIP3   OH257730   4.659   1.739  16.399  0.4989 -0.2036 -0.6236
12080TIP3    H157731   4.721   1.741  16.472 -0.5856  1.2028  0.2807
12080TIP3    H257732   4.579   1.703  16.437 -0.6572  2.2808 -0.6264
12081TIP3   OH257733   0.397   3.662  15.872  0.0505 -0.5313  0.6248
12081TIP3    H157734   0.335   3.706  15.814 -0.7532 -0.6184  1.3921
12081TIP3    H257735   0.402   3.572  15.838  1.8179  0.1758 -1.0395
12082TIP3   OH257736   1.013   1.708  14.933  0.5745  0.4254 -0.1794
12082TIP3    H157737   0.923   1.698  14.904 -0.2108 -1.3973  2.6855
12082TIP3    H257738   1.006   1.742  15.022  2.7174  0.1458  0.1235
12083TIP3   OH257739   2.312   0.172   0.544 -0.5705  0.2182 -0.2187
12083TIP3    H157740   2.291   0.257   0.504  1.3129  0.2333 -1.2198
12083TIP3    H257741   2.292   0.183   0.637 -1.8782  1.2370 -0.6119
12084TIP3   OH257742   5.718   6.362  13.189  0.0269  0.1214  0.6932
12084TIP3    H157743   5.793   6.420  13.199 -0.0989  0.9921 -2.8223
12084TIP3    H257744   5.754   6.285  13.144 -0.2497 -1.6344  3.3735
12085TIP3   OH257745   6.537   3.594  15.138 -0.0031  0.2798  0.0261
12085TIP3    H157746   6.573   3.554  15.059 -1.1297 -0.9867  0.1414
12085TIP3    H257747   6.581   3.678  15.145  1.7577 -0.5732 -0.7024
12086TIP3   OH257748   0.275   0.519   1.888 -0.0716 -0.6394 -0.1687
12086TIP3    H157749   0.314   0.547   1.971  0.7614 -2.0699 -0.0484
12086TIP3    H257750   0.291   0.424   1.886 -1.6333 -0.8922 -1.1502
12087TIP3   OH257751   3.861   3.689  12.019  0.9036 -0.0583  0.1183
12087TIP3    H157752   3.885   3.697  11.927  1.1148 -0.9531  0.0939
12087TIP3    H257753   3.943   3.664  12.063  0.5721 -0.6767  0.3885
12088TIP3   OH257754   5.022   2.915  15.334  0.4647 -0.0729  0.5024
12088TIP3    H157755   5.076   2.839  15.355  0.4853 -0.0624  0.4854
12088TIP3    H257756   4.945   2.905  15.390  1.5482  1.1495  2.2238
12089TIP3   OH257757   0.332   0.076   2.411 -0.5248 -0.2908 -0.4485
12089TIP3    H157758   0.243   0.089   2.447 -0.6286 -1.2554 -0.3559
12089TIP3    H257759   0.335   0.134   2.335 -1.1554 -0.0692 -0.3138
12090TIP3   OH257760   0.500   6.034  14.400  0.0704  0.2147 -0.5194
12090TIP3    H157761   0.481   5.960  14.458 -1.4914  1.6640  0.8736
12090TIP3    H257762   0.439   6.024  14.327  0.6285 -0.4791 -0.8932
12091TIP3   OH257763   1.108   2.612   3.331 -0.3717 -0.6004 -0.2856
12091TIP3    H157764   1.023   2.616   3.287 -0.9236  1.4554  0.8973
12091TIP3    H257765   1.155   2.689   3.299  1.0680 -1.7224 -0.9394
12092TIP3   OH257766   4.492   2.930   0.386 -0.2356  0.0919  0.4830
12092TIP3    H157767   4.418   2.984   0.415  0.4045  0.3232  1.7372
12092TIP3    H257768   4.547   2.922   0.464  0.5056 -1.0033 -0.1439
12093TIP3   OH257769   3.803   0.169  16.889 -0.1594 -0.0225  0.9631
12093TIP3    H157770   3.862   0.244  16.876  0.9482 -1.0087  0.2127
12093TIP3    H257771   3.751   0.193  16.966  0.1399  1.5433  0.6874
12094TIP3   OH257772   6.343   6.470   5.515  0.1269  0.0817 -0.0948
12094TIP3    H157773   6.279   6.499   5.580  0.3850  0.4283  0.0067
12094TIP3    H257774   6.395   6.404   5.560  0.0241  0.0025 -0.0905
12095TIP3   OH257775   4.151   1.521  12.118  0.0549  0.0144  0.9390
12095TIP3    H157776   4.146   1.576  12.196 -2.3181  0.3658  0.5794
12095TIP3    H257777   4.212   1.567  12.060  0.5798  0.5905  1.9395
12096TIP3   OH257778   6.019   1.981  15.310 -0.0445 -0.0872  0.5852
12096TIP3    H157779   6.058   1.894  15.326  2.1706  1.0524  1.6454
12096TIP3    H257780   6.066   2.014  15.233  0.0018  0.6569  0.9260
12097TIP3   OH257781   5.840   0.318  16.493 -0.3584  0.0839  0.0869
12097TIP3    H157782   5.780   0.343  16.563  0.0390  0.4678  0.2922
12097TIP3    H257783   5.916   0.281  16.539 -0.6539 -0.8776 -0.1854
12098TIP3   OH257784   1.508   6.700  11.363  0.3098  0.0136 -0.2743
12098TIP3    H157785   1.474   6.678  11.449  1.1944  1.2638  0.4149
12098TIP3    H257786   1.579   6.762  11.380  1.2448 -0.6011 -1.8358
12099TIP3   OH257787   6.338   4.045   3.686 -0.1338  0.4048  0.0916
12099TIP3    H157788   6.395   4.063   3.611 -0.2438  1.2140  0.1991
12099TIP3    H257789   6.337   3.949   3.692 -0.2004  0.3260 -1.0001
12100TIP3   OH257790   1.107   0.103  11.735  0.4855  0.2340 -0.7678
12100TIP3    H157791   1.014   0.082  11.731  0.3737  0.6204 -0.3060
12100TIP3    H257792   1.150   0.021  11.758  0.0318  0.5532  1.3270
12101TIP3   OH257793   3.557   1.485  12.259 -0.2590  0.0885 -0.3493
12101TIP3    H157794   3.463   1.466  12.266 -0.4047  0.9370  0.0494
12101TIP3    H257795   3.569   1.511  12.167 -0.4098 -0.0260 -0.4019
12102TIP3   OH257796   1.740   5.331   0.981  0.1990  0.2676  0.5236
12102TIP3    H157797   1.711   5.391   1.050  2.4623  1.9272  0.0967
12102TIP3    H257798   1.766   5.388   0.909 -1.3021 -1.4084 -1.4028
12103TIP3   OH257799   3.723   5.574  14.433 -0.5800 -0.2418  0.4638
12103TIP3    H157800   3.676   5.640  14.484  0.2644  0.7574 -0.0237
12103TIP3    H257801   3.690   5.585  14.343 -0.4979 -0.5390  0.3967
12104TIP3   OH257802   6.198   1.271   6.014  0.2805 -0.1984  0.4881
12104TIP3    H157803   6.257   1.252   5.940  0.5004  1.2035  0.3023
12104TIP3    H257804   6.148   1.190   6.024  0.5880 -0.5893 -0.8794
12105TIP3   OH257805   1.610   2.432   4.379 -0.1627 -0.9260  0.2562
12105TIP3    H157806   1.687   2.470   4.337 -0.1337 -2.5640 -1.2159
12105TIP3    H257807   1.645   2.366   4.438 -0.3265 -0.0368  1.3726
12106TIP3   OH257808   5.835   1.918  11.720 -0.1276  0.1238  0.4117
12106TIP3    H157809   5.887   1.998  11.715 -0.1270  0.1837  1.2159
12106TIP3    H257810   5.748   1.947  11.750  0.5347 -0.4164  3.0141
12107TIP3   OH257811   1.735   2.630  13.230 -0.3403 -0.2124  0.2841
12107TIP3    H157812   1.754   2.536  13.227 -2.2301 -0.6558  1.1366
12107TIP3    H257813   1.651   2.636  13.276 -0.4374  1.8739 -0.1042
12108TIP3   OH257814   5.590   5.944   2.065  0.0340 -0.3280 -0.2152
12108TIP3    H157815   5.535   5.943   2.144 -0.7195 -0.8932 -0.7388
12108TIP3    H257816   5.572   5.860   2.023  0.3134  0.0349 -1.0704
12109TIP3   OH257817   2.091   0.886  12.244 -0.0139  0.0665  0.4585
12109TIP3    H157818   2.056   0.798  12.257 -0.4899  0.5054  2.3742
12109TIP3    H257819   2.178   0.884  12.282 -0.0367  0.4241  0.5364
12110TIP3   OH257820   2.447   4.264   1.540  0.2446  0.0134 -0.1456
12110TIP3    H157821   2.380   4.332   1.537 -0.1770 -0.4478 -1.8330
12110TIP3    H257822   2.522   4.307   1.581 -0.0927  1.4370 -0.9690
12111TIP3   OH257823   0.335   3.912  10.583  0.2963  0.1788 -0.2284
12111TIP3    H157824   0.391   3.927  10.659  0.1375 -2.3335  0.4311
12111TIP3    H257825   0.317   3.818  10.585 -0.6725  0.2808 -2.7143
12112TIP3   OH257826   5.490   3.630   4.170 -0.9556 -0.3412 -0.2598
12112TIP3    H157827   5.463   3.692   4.238 -0.8009 -0.7163  0.1436
12112TIP3    H257828   5.573   3.665   4.138  1.1617 -2.3978  2.6747
12113TIP3   OH257829   0.368   5.451  16.474  0.1885 -0.1478  0.3958
12113TIP3    H157830   0.369   5.358  16.452 -0.6283 -0.9249  3.4650
12113TIP3    H257831   0.276   5.473  16.485  0.3196  1.2324 -0.9637
12114TIP3   OH257832   2.714   1.665   0.610  0.3607  0.8311  0.9152
12114TIP3    H157833   2.714   1.639   0.518 -2.0954  0.1756  1.0806
12114TIP3    H257834   2.773   1.602   0.652  0.1292  0.0510  0.0909
12115TIP3   OH257835   5.706   0.029   0.716  0.2973  0.3497 -0.0489
12115TIP3    H157836   5.619   0.066   0.705 -0.4872 -1.5493 -0.5036
12115TIP3    H257837   5.699  -0.027   0.793  1.3696  0.8774  0.4486
12116TIP3   OH257838   0.222   4.656   0.209  0.4523 -0.3605 -0.3362
12116TIP3    H157839   0.252   4.741   0.175  1.7328 -0.7977 -0.3178
12116TIP3    H257840   0.147   4.678   0.263  0.9846  0.8152 -0.0446
12117TIP3   OH257841   1.901   3.629   2.881 -0.5816  0.1265 -0.3477
12117TIP3    H157842   1.846   3.552   2.898  0.5807 -0.6047  0.1110
12117TIP3    H257843   1.917   3.667   2.967  2.0202 -1.3288 -0.1282
12118TIP3   OH257844   5.546   4.041  14.922 -0.3461  0.1792  0.1860
12118TIP3    H157845   5.496   4.040  15.003  0.3741  0.0387  0.6306
12118TIP3    H257846   5.578   4.130  14.914  1.2454 -0.2839  1.0939
12119TIP3   OH257847   0.738   1.531  13.969  0.9861 -0.0753  0.0312
12119TIP3    H157848   0.714   1.619  13.997  0.3209 -0.6126  1.1611
12119TIP3    H257849   0.668   1.475  14.000  0.4145 -0.7670 -2.3871
12120TIP3   OH257850   5.223   2.269  13.442  0.1906 -0.0882 -0.6052
12120TIP3    H157851   5.160   2.267  13.514  0.3158 -0.2498 -0.5002
12120TIP3    H257852   5.168   2.263  13.363  0.1182 -1.0011 -0.4914
12121TIP3   OH257853   5.690   3.175   0.820  0.2917  0.2520  0.9608
12121TIP3    H157854   5.636   3.164   0.742 -0.9975  1.0201  1.7211
12121TIP3    H257855   5.741   3.254   0.802  1.4802 -0.6927  0.0791
12122TIP3   OH257856   4.823   0.033  12.919 -0.3089 -0.2894  0.1538
12122TIP3    H157857   4.763   0.032  12.994 -1.1961 -0.9722 -0.5753
12122TIP3    H257858   4.773   0.074  12.848  0.0488 -0.9671 -0.4903
12123TIP3   OH257859   0.088   0.730   5.744  0.2413 -0.0262 -0.5398
12123TIP3    H157860   0.160   0.676   5.714  0.2218  0.0094 -0.6496
12123TIP3    H257861   0.103   0.816   5.705  0.6415  0.2384  0.1818
12124TIP3   OH257862   0.630   5.792   4.230 -0.2831  0.0229  0.6680
12124TIP3    H157863   0.705   5.751   4.273  0.1571 -0.2609 -0.3580
12124TIP3    H257864   0.649   5.886   4.232 -1.4175  0.2390  3.2676
12125TIP3   OH257865   6.425   5.492  16.455 -0.1874 -0.4983  0.3533
12125TIP3    H157866   6.442   5.398  16.468 -0.2843 -0.6443 -0.5330
12125TIP3    H257867   6.360   5.514  16.522 -2.0138 -1.6391 -0.9760
12126TIP3   OH257868   4.132   5.272   1.074 -0.0258 -0.3529  0.5974
12126TIP3    H157869   4.066   5.294   1.141  0.6684 -1.0315  1.5171
12126TIP3    H257870   4.210   5.320   1.102 -0.3602  1.1483 -0.9691
12127TIP3   OH257871   0.420   3.537   1.489 -0.2355 -0.0405  0.0855
12127TIP3    H157872   0.380   3.453   1.512  2.2370 -1.5949 -1.0590
12127TIP3    H257873   0.355   3.581   1.435 -1.5453 -1.2433  0.6631
12128TIP3   OH257874   1.923   5.654  16.782  0.3619 -0.2698 -0.2041
12128TIP3    H157875   1.913   5.568  16.823  1.2675  0.2143  1.0765
12128TIP3    H257876   1.874   5.713  16.840  0.6821  0.2429 -0.4586
12129TIP3   OH257877   1.480   1.709  13.356  0.0192 -0.2069 -0.1094
12129TIP3    H157878   1.560   1.729  13.405  0.4978 -1.3069 -0.4317
12129TIP3    H257879   1.428   1.656  13.416  0.7301 -1.7965 -0.8793
12130TIP3   OH257880   4.596   0.231   4.111  0.4147  0.0423 -0.3105
12130TIP3    H157881   4.685   0.228   4.146  0.3261  2.3511  0.1313
12130TIP3    H257882   4.543   0.186   4.177  0.9281  0.4553  0.3832
12131TIP3   OH257883   0.804   4.404  12.090  0.0964  0.0660 -0.0786
12131TIP3    H157884   0.708   4.406  12.096 -0.0572 -0.1056 -2.0166
12131TIP3    H257885   0.828   4.321  12.131 -0.7461 -0.7363 -1.1660
12132TIP3   OH257886   6.245   6.083  11.795 -0.2281  0.2237 -0.1396
12132TIP3    H157887   6.224   6.171  11.826  0.3716  0.5662 -0.7016
12132TIP3    H257888   6.261   6.033  11.875 -0.2476  0.7052  0.1684
12133TIP3   OH257889   6.234   1.719  11.858  0.2393 -0.2666 -0.2855
12133TIP3    H157890   6.159   1.774  11.883  1.8620  1.8137  0.1277
12133TIP3    H257891   6.225   1.641  11.912 -1.5606  0.0016 -0.1548
12134TIP3   OH257892   1.059   6.763  12.657  0.1102 -0.0175 -0.2891
12134TIP3    H157893   1.019   6.745  12.742  0.4775 -1.4713 -0.4155
12134TIP3    H257894   1.012   6.840  12.625 -0.7141 -0.0553  0.7778
12135TIP3   OH257895   3.423   4.026  14.805 -0.4270  0.0142 -0.3966
12135TIP3    H157896   3.408   4.065  14.719 -1.4738 -0.7689 -0.5879
12135TIP3    H257897   3.345   4.050  14.856  1.0522  2.1217  0.9756
12136TIP3   OH257898   0.448   5.674  16.616 -0.7485 -0.5472 -0.0208
12136TIP3    H157899   0.426   5.584  16.590  0.3443 -0.8695  0.1622
12136TIP3    H257900   0.470   5.667  16.708  1.4517 -0.4741 -0.5116
12137TIP3   OH257901   0.711   2.604  12.780 -0.2559 -0.0939  0.3782
12137TIP3    H157902   0.625   2.638  12.805 -1.0037 -0.9999 -0.8868
12137TIP3    H257903   0.704   2.509  12.792  0.4210 -0.2168 -0.1573
12138TIP3   OH257904   6.277   6.418  16.646  0.0483  0.2804 -0.2326
12138TIP3    H157905   6.362   6.380  16.668  0.1258 -0.1790 -1.3097
12138TIP3    H257906   6.236   6.354  16.587  0.3636  2.0619 -2.4384
12139TIP3   OH257907   5.028   5.508  13.468  0.0963  0.8501 -0.5820
12139TIP3    H157908   5.009   5.558  13.547 -1.5225 -0.0539 -0.3713
12139TIP3    H257909   5.064   5.425  13.500 -0.8794  0.3454 -0.7480
12140TIP3   OH257910   4.683   3.041   6.707 -1.2281  0.0057  0.4635
12140TIP3    H157911   4.641   3.091   6.777 -0.8120 -3.0430  3.0035
12140TIP3    H257912   4.775   3.035   6.733 -1.2050 -1.7895  0.0622
12141TIP3   OH257913   2.226   2.218  15.161  0.6518 -0.0467  0.3346
12141TIP3    H157914   2.240   2.313  15.162  0.2504  0.0089  1.0082
12141TIP3    H257915   2.132   2.208  15.145  0.4135 -0.2959  1.8108
12142TIP3   OH257916   3.227   5.993  12.065 -0.5122 -0.1603 -0.0569
12142TIP3    H157917   3.227   5.908  12.020  2.6484  1.1154 -2.6936
12142TIP3    H257918   3.186   6.053  12.003  0.2313  0.8630  0.4248
12143TIP3   OH257919   2.541   1.465  10.249 -0.0707  0.2530 -0.1388
12143TIP3    H157920   2.519   1.531  10.183  1.9123  0.9296 -0.1704
12143TIP3    H257921   2.457   1.432  10.280 -1.0741  2.1887 -0.7563
12144TIP3   OH257922   5.034   1.024   4.010  0.5185 -0.9911 -0.4924
12144TIP3    H157923   5.076   1.086   3.950 -0.1380 -0.1708 -0.1313
12144TIP3    H257924   5.091   1.022   4.086  0.4594 -0.7047 -0.4402
12145TIP3   OH257925   5.830   0.443  14.306  0.2301 -0.0388 -0.0542
12145TIP3    H157926   5.810   0.361  14.352 -0.2004 -1.0090 -1.8896
12145TIP3    H257927   5.788   0.511  14.357 -1.4365 -1.2449  0.2088
12146TIP3   OH257928   3.328   0.449   5.180 -0.5595  0.0881 -0.0674
12146TIP3    H157929   3.300   0.378   5.238 -0.9133  1.1518  1.0988
12146TIP3    H257930   3.259   0.454   5.114 -0.1162 -1.1844 -0.6445
12147TIP3   OH257931   3.509   4.599  10.887 -0.2015 -0.0260 -0.0236
12147TIP3    H157932   3.538   4.670  10.829 -0.3584  0.6439  0.7051
12147TIP3    H257933   3.429   4.566  10.845 -1.2647  1.5716  0.6691
12148TIP3   OH257934   5.817   6.468   3.656  0.4682  0.3820  0.6854
12148TIP3    H157935   5.832   6.540   3.595  0.0724  0.6748  0.9263
12148TIP3    H257936   5.898   6.417   3.654  0.9512  1.1304  0.9084
12149TIP3   OH257937   6.213   1.261  13.670 -0.0725 -0.2330  0.1740
12149TIP3    H157938   6.185   1.263  13.761 -0.2576  1.3467  0.0883
12149TIP3    H257939   6.193   1.172  13.641 -1.1052 -0.3897  1.3307
12150TIP3   OH257940   4.755   1.917  14.429 -0.0317  0.5039 -0.2696
12150TIP3    H157941   4.752   1.878  14.342 -0.3119 -3.6531  1.4666
12150TIP3    H257942   4.843   1.954  14.435  0.6526 -0.8283 -1.6719
12151TIP3   OH257943   2.847   4.742   4.307  0.4988 -0.2042 -0.1116
12151TIP3    H157944   2.899   4.674   4.265  0.8076 -1.0777  1.6775
12151TIP3    H257945   2.824   4.707   4.393 -2.2767  0.5366 -0.4887
12152TIP3   OH257946   2.127   2.472  17.259  0.5381 -0.4791 -0.1155
12152TIP3    H157947   2.135   2.376  17.257 -0.1571 -0.5418 -0.3584
12152TIP3    H257948   2.216   2.504  17.266  0.6682 -1.1826  1.8056
12153TIP3   OH257949   3.202   2.971  14.111  0.4654  0.0311  0.0715
12153TIP3    H157950   3.164   2.889  14.142 -1.1634  0.5705 -0.4162
12153TIP3    H257951   3.163   3.038  14.167  2.0266  0.4573  0.6791
12154TIP3   OH257952   1.135   3.947  15.083 -0.1321 -0.0262 -0.6040
12154TIP3    H157953   1.201   3.895  15.129  0.6563 -1.3604 -3.1830
12154TIP3    H257954   1.053   3.902  15.101 -0.3130  1.2477  2.0419
12155TIP3   OH257955   5.685   4.529  12.806 -0.9677 -0.2595 -0.3920
12155TIP3    H157956   5.749   4.499  12.871 -0.3843 -1.5565 -1.5382
12155TIP3    H257957   5.664   4.451  12.755 -1.3624  0.7628 -1.8210
12156TIP3   OH257958   4.769   4.065  14.537 -0.1817 -0.1280 -0.5018
12156TIP3    H157959   4.831   4.112  14.593 -0.3141 -0.8229  0.2529
12156TIP3    H257960   4.786   3.972  14.556  0.2587 -0.3883 -2.1519
12157TIP3   OH257961   1.392   2.121  16.311 -0.0540 -0.2311 -0.0391
12157TIP3    H157962   1.320   2.124  16.375 -0.1801  1.0344 -0.2276
12157TIP3    H257963   1.447   2.196  16.333 -0.0565  0.1743 -1.3843
12158TIP3   OH257964   1.443   2.492  12.043 -0.3083  0.1968  0.2205
12158TIP3    H157965   1.433   2.513  12.136 -2.0461 -0.3648  0.1650
12158TIP3    H257966   1.506   2.420  12.042  0.5361  0.9141  0.8812
12159TIP3   OH257967   4.182   3.850   5.131 -0.1859  0.7285  0.5929
12159TIP3    H157968   4.168   3.812   5.218 -1.1232  1.4633  0.7603
12159TIP3    H257969   4.217   3.777   5.080 -1.7978 -0.3389  0.9543
12160TIP3   OH257970   1.486   3.371  16.605  0.3504 -0.1844  0.1795
12160TIP3    H157971   1.577   3.397  16.618  0.4387 -0.8134  0.8169
12160TIP3    H257972   1.474   3.371  16.510  1.9004 -3.1271 -0.0710
12161TIP3   OH257973   5.067   4.892   0.990 -0.1789 -0.0116  0.6151
12161TIP3    H157974   5.010   4.819   1.018 -1.6532  0.7966 -0.2054
12161TIP3    H257975   5.042   4.965   1.047  0.4555  0.1902  0.6354
12162TIP3   OH257976   3.692   0.155  12.284  0.0799  0.2759 -0.5888
12162TIP3    H157977   3.750   0.124  12.354 -0.9487  0.4339  0.3633
12162TIP3    H257978   3.726   0.114  12.204  1.1534 -0.0752  0.0330
12163TIP3   OH257979   4.382   6.616  14.660 -0.1164 -0.5041 -0.3093
12163TIP3    H157980   4.444   6.560  14.613  1.4431 -0.3618  1.5136
12163TIP3    H257981   4.405   6.705  14.633 -2.6385 -0.6860 -3.2576
12164TIP3   OH257982   4.012   6.772   4.880  0.3535  0.0808  0.2947
12164TIP3    H157983   4.027   6.847   4.936 -3.4084 -0.6214  2.3991
12164TIP3    H257984   3.950   6.803   4.814  1.3621 -0.3031 -0.8610
12165TIP3   OH257985   1.359   2.654  13.907 -0.1085  0.2599  0.4750
12165TIP3    H157986   1.360   2.558  13.914 -2.6670  0.0606 -1.3536
12165TIP3    H257987   1.279   2.680  13.954 -0.7700  1.2848 -1.1826
12166TIP3   OH257988   5.516   5.586  15.173 -0.0344 -0.2016  0.4958
12166TIP3    H157989   5.597   5.615  15.215 -0.5243 -0.8145  1.8832
12166TIP3    H257990   5.516   5.491  15.184 -1.3838 -0.1244  1.3210
12167TIP3   OH257991   3.411   5.533   1.233  0.3691  0.3077 -0.2541
12167TIP3    H157992   3.414   5.626   1.214 -0.6526  0.2825 -0.5785
12167TIP3    H257993   3.418   5.527   1.328  0.2551  0.7188 -0.2224
12168TIP3   OH257994   5.620   4.726  15.751  0.0575 -0.2875  0.5802
12168TIP3    H157995   5.553   4.783  15.713  0.4522  0.6906  1.3448
12168TIP3    H257996   5.682   4.711  15.679  0.3458  0.8587  0.5820
12169TIP3   OH257997   0.422   3.457  12.119  0.6068 -0.0455  0.1390
12169TIP3    H157998   0.516   3.470  12.116  0.7382 -1.2858 -2.2031
12169TIP3    H257999   0.385   3.539  12.088  1.0533 -0.8400 -2.5701
12170TIP3   OH258000   4.145   4.957  15.429  0.6297  0.5224 -0.0073
12170TIP3    H158001   4.197   4.962  15.510  1.6782 -0.3169 -0.6051
12170TIP3    H258002   4.208   4.973  15.359  0.0693 -0.4169 -0.7446
12171TIP3   OH258003   2.022   0.631  12.298  0.0546 -0.0644  0.0130
12171TIP3    H158004   2.088   0.570  12.331 -0.7936 -1.0298 -0.0525
12171TIP3    H258005   1.943   0.610  12.348 -0.2400  0.9999  0.0058
12172TIP3   OH258006   6.666   5.212  12.836 -0.3463 -0.4198 -0.3453
12172TIP3    H158007   6.632   5.169  12.915  0.7113  0.6179  0.7080
12172TIP3    H258008   6.761   5.198  12.840 -0.1021  1.0413 -0.5513
12173TIP3   OH258009   3.937   5.474   2.180 -0.0736  0.1956 -0.0977
12173TIP3    H158010   3.858   5.477   2.126 -0.8148  0.3022  0.9876
12173TIP3    H258011   4.000   5.529   2.133 -0.6767  0.1942 -0.9085
12174TIP3   OH258012   6.584   0.301   4.138  0.1539 -0.2183  0.0503
12174TIP3    H158013   6.490   0.284   4.124  0.0194  0.2063  0.4058
12174TIP3    H258014   6.598   0.280   4.231  0.5408 -0.8532 -0.1516
12175TIP3   OH258015   4.692   3.494  13.485  0.1073  0.0075 -0.6916
12175TIP3    H158016   4.781   3.489  13.521  0.3207 -0.4716 -1.2800
12175TIP3    H258017   4.704   3.490  13.390 -0.6812 -2.2645 -0.7221
12176TIP3   OH258018   6.703   4.417   5.702  0.7697 -0.0447  0.2699
12176TIP3    H158019   6.717   4.405   5.796 -0.1325 -0.4907  0.3550
12176TIP3    H258020   6.658   4.501   5.695  0.1473 -0.3740  0.3001
12177TIP3   OH258021   3.970   3.189   0.057 -0.3046  0.1782  0.5651
12177TIP3    H158022   3.986   3.110   0.108  0.5949 -1.2777 -1.9313
12177TIP3    H258023   3.876   3.191   0.044 -0.4280  0.0152  1.3943
12178TIP3   OH258024   3.182   2.072   4.266 -0.0002  0.5373 -0.2455
12178TIP3    H158025   3.113   2.035   4.210 -0.0622 -0.1878  0.2999
12178TIP3    H258026   3.135   2.128   4.327 -0.1464 -0.1636  0.2963
12179TIP3   OH258027   4.618   1.569  14.002  0.2782  0.2624  0.9062
12179TIP3    H158028   4.656   1.564  13.914  1.0596 -2.2187  1.3630
12179TIP3    H258029   4.530   1.603  13.987  0.0158 -1.1576 -0.9676
12180TIP3   OH258030   2.922   6.109   3.943 -0.1147 -0.3058  0.4325
12180TIP3    H158031   2.943   6.019   3.919 -1.3693 -0.8673  1.3729
12180TIP3    H258032   3.003   6.144   3.978  0.2826 -1.1922  0.4099
12181TIP3   OH258033   1.223   4.764   1.530 -0.0365  0.0372  0.0004
12181TIP3    H158034   1.202   4.835   1.590  0.7583  1.4314 -1.3587
12181TIP3    H258035   1.141   4.715   1.521 -0.5633  0.7228  1.0001
12182TIP3   OH258036   0.787   0.356   2.266  0.6341 -0.0732 -0.8496
12182TIP3    H158037   0.778   0.261   2.276  1.5039 -0.0169  0.5830
12182TIP3    H258038   0.733   0.393   2.335 -0.4638  0.4996 -2.0065
12183TIP3   OH258039   2.877   5.567  14.462 -0.1948 -0.8721  0.1283
12183TIP3    H158040   2.960   5.535  14.425 -0.2372 -1.3066  0.4055
12183TIP3    H258041   2.881   5.543  14.555  0.6788  1.7680  0.8130
12184TIP3   OH258042   3.523   1.219  17.059 -0.0516 -0.8147 -0.2194
12184TIP3    H158043   3.501   1.206  17.152  0.5623 -1.2427 -0.1251
12184TIP3    H258044   3.500   1.136  17.017  0.5667 -0.9622 -0.2722
12185TIP3   OH258045   2.906   2.408   1.489  0.2062  0.3488 -0.3032
12185TIP3    H158046   2.878   2.367   1.407 -2.4956 -1.0474  1.2627
12185TIP3    H258047   2.986   2.362   1.513 -0.2104 -0.7588 -1.0325
12186TIP3   OH258048   4.667   5.393   1.291 -0.0798 -0.1169 -0.4104
12186TIP3    H158049   4.589   5.345   1.262  0.5124 -1.3468 -0.0017
12186TIP3    H258050   4.669   5.471   1.235 -2.6262  0.8797  0.7973
12187TIP3   OH258051   2.226   6.377  11.774  0.0571 -0.2953  0.6222
12187TIP3    H158052   2.281   6.300  11.758 -0.7474 -0.3434 -2.1691
12187TIP3    H258053   2.282   6.451  11.754  0.1633 -0.2088  1.2176
12188TIP3   OH258054   3.536   1.356  11.698 -0.2332  0.1104 -0.4142
12188TIP3    H158055   3.609   1.294  11.693 -0.7298 -0.4528 -0.6773
12188TIP3    H258056   3.522   1.384  11.608 -1.5519 -1.1979 -0.6407
12189TIP3   OH258057   2.866   0.083  16.769  0.1174 -0.1951 -0.8172
12189TIP3    H158058   2.852   0.159  16.825  0.0932 -0.9030  0.1425
12189TIP3    H258059   2.960   0.066  16.774 -0.2794 -1.9461  1.2308
12190TIP3   OH258060   1.377   3.192  13.696  0.7543  0.1797  0.2294
12190TIP3    H158061   1.300   3.248  13.687  2.1544  1.9789 -0.9212
12190TIP3    H258062   1.373   3.133  13.620  0.6134  0.3924  0.0731
12191TIP3   OH258063   6.189   6.071  11.209 -0.0564 -0.3416 -0.5748
12191TIP3    H158064   6.241   6.136  11.256 -1.0694 -0.2445  0.4398
12191TIP3    H258065   6.202   6.091  11.116  0.1895  0.8687 -0.2795
12192TIP3   OH258066   3.704   2.530   4.969  0.0391 -0.7535 -0.1096
12192TIP3    H158067   3.674   2.530   5.060  0.8456 -0.4550  0.1647
12192TIP3    H258068   3.627   2.552   4.918  0.1205  1.4530  0.6861
12193TIP3   OH258069   3.146   1.249  15.724 -0.5341  0.0792  0.5128
12193TIP3    H158070   3.187   1.241  15.638 -0.4713  1.1233  0.4347
12193TIP3    H258071   3.204   1.307  15.773  0.4867 -2.1151  1.9457
12194TIP3   OH258072   3.782   1.070   5.682  0.1123 -0.4813  0.2398
12194TIP3    H158073   3.735   1.027   5.754  0.4409  0.2399  0.8907
12194TIP3    H258074   3.865   1.098   5.721 -0.7489  2.1733  0.2900
12195TIP3   OH258075   1.908   6.249   4.898 -0.2108 -0.1360 -0.4334
12195TIP3    H158076   1.945   6.170   4.861  0.3363 -0.0836 -0.0003
12195TIP3    H258077   1.834   6.218   4.951  1.9436 -0.7055  2.3653
12196TIP3   OH258078   2.223   4.927   0.504  0.5503 -0.5407  0.4665
12196TIP3    H158079   2.273   4.999   0.468 -1.4847  1.2784  1.1758
12196TIP3    H258080   2.219   4.945   0.598 -0.5596 -1.1830  0.5521
12197TIP3   OH258081   2.933   0.381   1.102 -0.0272  0.8404  0.3207
12197TIP3    H158082   3.016   0.427   1.114  0.6678 -0.4646  0.4860
12197TIP3    H258083   2.935   0.351   1.011 -0.3143  0.7778  0.3346
12198TIP3   OH258084   2.645   0.398   4.972  0.5062 -0.2900 -0.4659
12198TIP3    H158085   2.640   0.491   4.947  1.5835 -0.2457 -0.5383
12198TIP3    H258086   2.739   0.377   4.969  0.1790 -1.6499 -1.3939
12199TIP3   OH258087   0.923   1.288  17.101 -0.1067  0.0941  0.4553
12199TIP3    H158088   0.999   1.324  17.055 -0.3033 -0.7732 -0.5551
12199TIP3    H258089   0.848   1.321  17.052 -0.2921 -1.5900 -0.4210
12200TIP3   OH258090   3.687   3.419  15.467  0.2499 -0.4421  0.0315
12200TIP3    H158091   3.597   3.443  15.493  0.1530 -0.9253  0.1375
12200TIP3    H258092   3.740   3.494  15.495 -0.1567 -0.0350 -0.2766
12201TIP3   OH258093   2.432   5.290   4.764  0.3026 -0.5838  0.8152
12201TIP3    H158094   2.500   5.336   4.715 -0.8271  1.1361  0.8417
12201TIP3    H258095   2.477   5.260   4.843  0.9952  0.7499  0.9498
12202TIP3   OH258096   1.929   6.497  14.466  0.1126 -0.2007 -0.5541
12202TIP3    H158097   1.971   6.564  14.412 -1.8274  1.1661 -0.4129
12202TIP3    H258098   1.887   6.546  14.537 -1.4247 -1.5412 -0.5091
12203TIP3   OH258099   2.358   4.839  13.260  0.4018  0.2805 -0.0918
12203TIP3    H158100   2.314   4.909  13.308  0.6186  1.5511 -1.7061
12203TIP3    H258101   2.302   4.823  13.184  0.6182 -0.9593 -0.0076
12204TIP3   OH258102   5.943   0.496   2.271 -0.2427  0.0223  0.4777
12204TIP3    H158103   5.956   0.417   2.324 -0.9684 -0.1015  0.4750
12204TIP3    H258104   5.848   0.504   2.263 -0.1332 -0.1309 -1.0761
12205TIP3   OH258105   1.916   1.928  14.351 -0.1259  0.0536  0.2109
12205TIP3    H158106   1.884   1.849  14.307 -0.5759 -0.1630  0.9112
12205TIP3    H258107   1.871   1.928  14.436  0.3958  0.6992  0.4924
12206TIP3   OH258108   2.680   3.746   3.340 -0.4187  0.4131  0.0374
12206TIP3    H158109   2.593   3.782   3.352 -1.1418 -0.7875 -1.4173
12206TIP3    H258110   2.700   3.762   3.248 -0.4284 -2.1186 -0.4458
12207TIP3   OH258111   6.665   1.358  16.595 -0.0667 -0.6830 -0.3659
12207TIP3    H158112   6.662   1.356  16.499 -1.0744 -0.9856 -0.3312
12207TIP3    H258113   6.758   1.347  16.616 -0.0443 -2.3721 -1.2647
12208TIP3   OH258114   3.132   0.511  12.165  0.1101 -0.5301  0.1507
12208TIP3    H158115   3.188   0.538  12.092 -2.4319 -1.9627 -2.4286
12208TIP3    H258116   3.077   0.588  12.183  0.0928 -0.4840 -0.0986
12209TIP3   OH258117   5.868   6.120   4.870  0.6391 -0.1275 -0.0437
12209TIP3    H158118   5.842   6.033   4.839  0.1016  0.1546 -0.3990
12209TIP3    H258119   5.827   6.128   4.956 -0.0044  0.0994 -0.3678
12210TIP3   OH258120   4.014   2.867   0.447 -0.0923  0.1743  0.3783
12210TIP3    H158121   3.993   2.797   0.509 -0.3131 -1.1343 -1.1365
12210TIP3    H258122   4.105   2.851   0.423 -0.5011 -0.2942 -0.8633
12211TIP3   OH258123   4.131   3.862  14.700  0.3581 -0.4107 -0.1304
12211TIP3    H158124   4.039   3.852  14.726 -0.0455  1.5886 -0.7318
12211TIP3    H258125   4.154   3.951  14.726  2.1355 -0.8879 -0.0094
12212TIP3   OH258126   6.260   4.492   4.900  1.0115  0.8743 -0.5943
12212TIP3    H158127   6.340   4.484   4.953  0.8840 -1.4034 -0.6919
12212TIP3    H258128   6.292   4.517   4.813  1.8342 -1.5248 -1.0501
12213TIP3   OH258129   6.393   3.912   4.482  0.1706 -0.2068  0.3334
12213TIP3    H158130   6.336   3.930   4.557  0.5389 -0.5994  0.7023
12213TIP3    H258131   6.478   3.946   4.507  0.1654  0.1573 -0.1258
12214TIP3   OH258132   4.104   1.069  15.923  0.3887  0.8456  0.1189
12214TIP3    H158133   4.028   1.072  15.981  1.4623  0.7228  1.5756
12214TIP3    H258134   4.085   1.133  15.855 -0.9417  0.9347  0.5697
12215TIP3   OH258135   4.080   4.196  14.408  0.5365 -0.4129  0.8472
12215TIP3    H158136   4.123   4.208  14.492 -1.7878 -0.7067  2.1204
12215TIP3    H258137   3.988   4.215  14.425 -0.0144 -0.7135 -1.5784
12216TIP3   OH258138   2.221   6.028  12.418  0.4387  0.1617  0.8152
12216TIP3    H158139   2.129   6.052  12.401 -0.0735 -2.4588 -0.2848
12216TIP3    H258140   2.252   6.096  12.478 -1.8662  1.7679  0.2786
12217TIP3   OH258141   1.934   4.436   0.479 -0.6006 -0.1979  0.1677
12217TIP3    H158142   1.955   4.481   0.397  0.9200 -1.7014 -0.2732
12217TIP3    H258143   1.930   4.507   0.544  3.1045  0.4848 -0.2510
12218TIP3   OH258144   1.635   4.348   0.506 -0.4266  0.1143  0.5449
12218TIP3    H158145   1.703   4.415   0.497 -1.0690  0.9404  1.6407
12218TIP3    H258146   1.642   4.295   0.427  2.4288 -0.6803  1.2530
12219TIP3   OH258147   0.419   5.642   1.119  0.1333  0.6788  0.1046
12219TIP3    H158148   0.366   5.701   1.172  0.9381 -0.4606  2.2128
12219TIP3    H258149   0.354   5.584   1.077 -0.5867  2.4377 -1.2753
12220TIP3   OH258150   2.723   2.233  13.822 -0.2367  0.4025  0.3370
12220TIP3    H158151   2.740   2.155  13.769  0.5871  0.1017  1.0419
12220TIP3    H258152   2.682   2.199  13.902  1.3584  0.5487  1.2338
12221TIP3   OH258153   1.820   5.336   2.610  0.3092 -0.2961 -0.1233
12221TIP3    H158154   1.896   5.381   2.646  1.0573  0.9746 -3.1497
12221TIP3    H258155   1.842   5.244   2.615  0.5980 -0.1437  2.1083
12222TIP3   OH258156   1.094   0.267  12.847  0.3025  0.1855 -0.4234
12222TIP3    H158157   1.140   0.189  12.816  1.5177  1.0459 -0.8794
12222TIP3    H258158   1.127   0.281  12.936  2.0888  1.6330 -1.2670
12223TIP3   OH258159   3.984   6.597  15.978 -0.1660  0.0664  0.2784
12223TIP3    H158160   3.983   6.631  15.888 -4.1082 -2.0537 -0.6107
12223TIP3    H258161   3.982   6.502  15.967 -1.2670 -0.1937  2.5751
12224TIP3   OH258162   0.624   1.702   3.322 -0.1905  0.2728 -0.2494
12224TIP3    H158163   0.687   1.748   3.267  0.4664 -0.3066  0.0089
12224TIP3    H258164   0.623   1.751   3.404  1.6290 -1.0063  0.5756
12225TIP3   OH258165   0.215   4.737  15.823 -0.6746 -0.1261  0.2464
12225TIP3    H158166   0.252   4.650  15.806 -2.1131 -0.9643  1.2956
12225TIP3    H258167   0.182   4.732  15.913 -0.6453  1.5570  0.3702
12226TIP3   OH258168   3.358   5.269   1.177 -0.5978  0.2368  0.3850
12226TIP3    H158169   3.421   5.227   1.235 -0.1707  0.3346  0.0021
12226TIP3    H258170   3.388   5.360   1.171  0.9402 -0.3671 -2.0777
12227TIP3   OH258171   4.689   4.174  12.790 -0.6210 -0.2449  0.0478
12227TIP3    H158172   4.782   4.188  12.808 -0.3958  1.5356 -2.3955
12227TIP3    H258173   4.683   4.081  12.766  0.6383 -0.1799 -0.5392
12228TIP3   OH258174   5.003   4.369  11.107 -0.4809 -0.4777 -1.0104
12228TIP3    H158175   4.922   4.333  11.141 -1.2049  1.5818 -0.4749
12228TIP3    H258176   5.062   4.373  11.183 -0.9427  0.8975 -0.6987
12229TIP3   OH258177   0.798   0.196   5.963  0.4219 -1.1909 -0.0719
12229TIP3    H158178   0.707   0.184   5.938  0.3044 -1.6536  0.5597
12229TIP3    H258179   0.826   0.109   5.992  0.1703 -0.3892  2.6478
12230TIP3   OH258180   3.300   5.462  16.301 -0.0683 -0.1189 -0.6561
12230TIP3    H158181   3.286   5.400  16.230  0.9650 -1.2093  0.0827
12230TIP3    H258182   3.359   5.528  16.264  1.2535 -1.2080 -0.5238
12231TIP3   OH258183   4.181   1.203   0.286  0.1397  0.0459  1.0207
12231TIP3    H158184   4.151   1.155   0.362 -0.7629  2.3417  2.1763
12231TIP3    H258185   4.259   1.250   0.316  0.3194  0.2481  0.2585
12232TIP3   OH258186   1.863   4.812   4.524 -0.5064 -0.1219  0.3003
12232TIP3    H158187   1.806   4.835   4.451  0.5044  0.5193 -0.2886
12232TIP3    H258188   1.864   4.716   4.524  1.3384 -0.1433 -2.0103
12233TIP3   OH258189   5.160   1.417   1.939 -0.7458 -0.3984  0.0530
12233TIP3    H158190   5.205   1.460   2.012 -0.2693 -1.0253  0.1316
12233TIP3    H258191   5.139   1.489   1.879  0.5938 -0.1242 -0.1010
12234TIP3   OH258192   0.267   0.870  10.860  0.2251 -0.0851 -0.5777
12234TIP3    H158193   0.173   0.866  10.875  0.0057  1.9058 -1.3010
12234TIP3    H258194   0.289   0.784  10.822 -1.2997 -0.5038 -0.5371
12235TIP3   OH258195   2.906   4.065  14.955  0.3959 -0.6284 -0.2175
12235TIP3    H158196   2.924   3.986  15.008 -0.6020  0.0421  1.1476
12235TIP3    H258197   2.811   4.070  14.952  0.4620  0.5064 -0.3471
12236TIP3   OH258198   4.885   3.052   1.682 -0.2736 -0.2103  0.2713
12236TIP3    H158199   4.840   3.008   1.755 -0.3498  0.2900  0.5301
12236TIP3    H258200   4.846   3.140   1.679 -1.4357 -0.7539 -1.4171
12237TIP3   OH258201   3.586   2.781   0.938 -0.5104  0.5221  0.3516
12237TIP3    H158202   3.588   2.687   0.917  1.3749 -0.3271  4.0000
12237TIP3    H258203   3.497   2.796   0.970 -0.1068 -0.5746  2.0380
12238TIP3   OH258204   5.539   1.213   3.639  0.0024 -0.1217 -0.4259
12238TIP3    H158205   5.477   1.283   3.622 -0.4542 -0.0265  1.5272
12238TIP3    H258206   5.606   1.252   3.695  0.7434 -0.7592 -0.8443
12239TIP3   OH258207   1.333   1.061  15.085  0.2016  0.3899  0.4732
12239TIP3    H158208   1.239   1.062  15.069  0.3335 -2.1914 -0.8377
12239TIP3    H258209   1.363   1.147  15.057 -1.3041  0.0309 -2.4887
12240TIP3   OH258210   0.879   3.654  14.554 -0.1490  0.2817 -0.0997
12240TIP3    H158211   0.883   3.745  14.524 -0.3643  0.5675  0.7237
12240TIP3    H258212   0.804   3.651  14.613 -1.1367 -0.8188 -1.3621
12241TIP3   OH258213   5.576   6.818   5.508 -0.8554 -0.3817 -0.5636
12241TIP3    H158214   5.493   6.865   5.511 -0.1284  0.9732 -1.0321
12241TIP3    H258215   5.637   6.880   5.468  0.5081 -1.1591  0.2546
12242TIP3   OH258216   0.265   6.451   5.976  0.1328  0.4302  0.2518
12242TIP3    H158217   0.196   6.472   6.039  0.4646 -0.8807  1.0604
12242TIP3    H258218   0.347   6.466   6.023  0.3910  0.5072 -0.2160
12243TIP3   OH258219   1.639   5.141   5.513  0.3346 -0.3323  0.2422
12243TIP3    H158220   1.550   5.176   5.519  0.6589  0.2709  1.6473
12243TIP3    H258221   1.695   5.218   5.502  0.6102 -0.7822 -1.8364
12244TIP3   OH258222   0.036   5.870  15.488 -0.0191 -0.0922 -0.2750
12244TIP3    H158223  -0.051   5.885  15.450  0.6333  1.5874 -1.1855
12244TIP3    H258224   0.043   5.775  15.495 -2.2269 -0.2424  0.5488
12245TIP3   OH258225   2.466   5.096  16.020  0.3246  0.0830 -0.6260
12245TIP3    H158226   2.464   5.178  16.069  0.7981  0.7826 -1.7693
12245TIP3    H258227   2.394   5.044  16.057  1.3259  0.1679  1.5299
12246TIP3   OH258228   2.373   0.581   4.130  0.1745 -0.0900  0.0214
12246TIP3    H158229   2.407   0.669   4.145 -0.0398  0.1296 -0.7557
12246TIP3    H258230   2.378   0.538   4.215 -0.3150  0.8781  0.5428
12247TIP3   OH258231   2.209   5.381   0.253 -0.2673  0.3188  0.6199
12247TIP3    H158232   2.139   5.351   0.311  0.9046  0.1349  1.9752
12247TIP3    H258233   2.172   5.374   0.165 -1.9860  0.3360  1.3109
12248TIP3   OH258234   3.984   2.370   5.209 -0.5410  0.3718  0.3382
12248TIP3    H158235   3.980   2.307   5.137 -1.9901  0.4438  0.3540
12248TIP3    H258236   3.991   2.455   5.165  2.2690  0.2040  0.3121
12249TIP3   OH258237   4.481   4.361  13.404 -0.0325  0.4472  0.0826
12249TIP3    H158238   4.424   4.338  13.330  1.7727 -0.1977 -1.1238
12249TIP3    H258239   4.563   4.316  13.386  0.7760  1.1442  1.9605
12250TIP3   OH258240   0.315   2.725   1.405  0.3942 -0.0989  0.2943
12250TIP3    H158241   0.261   2.672   1.346 -1.1313 -0.6972  2.1847
12250TIP3    H258242   0.357   2.790   1.348  0.1161 -1.5959 -1.6398
12251TIP3   OH258243   0.587   6.318   5.154  0.0803  0.0913  0.7179
12251TIP3    H158244   0.661   6.277   5.108 -0.5573 -1.7083  1.2425
12251TIP3    H258245   0.539   6.244   5.191 -0.9491  1.3640  1.9495
12252TIP3   OH258246   4.713   5.174  13.082 -0.4654  0.0345 -0.2175
12252TIP3    H158247   4.708   5.126  13.165 -1.9887  0.8961  0.2124
12252TIP3    H258248   4.628   5.216  13.074  0.4281  1.6998 -1.1711
12253TIP3   OH258249   6.490   4.513   5.050 -0.2645 -0.0429 -0.2075
12253TIP3    H158250   6.548   4.589   5.044  1.0713 -1.1589 -1.9365
12253TIP3    H258251   6.515   4.471   5.132  0.5384  0.1418 -0.3577
12254TIP3   OH258252   1.253   1.515   1.514 -0.0604 -0.2854  0.1491
12254TIP3    H158253   1.243   1.501   1.608  2.6721  1.3412  0.7146
12254TIP3    H258254   1.266   1.427   1.478 -2.7675 -1.0796  1.0392
12255TIP3   OH258255   3.625   3.342   3.230  0.3049  0.1457 -0.3878
12255TIP3    H158256   3.604   3.391   3.310 -1.3145 -2.0924  0.6005
12255TIP3    H258257   3.608   3.405   3.160  0.2312  1.6561  0.9343
12256TIP3   OH258258   0.906   3.533   2.807 -0.9672 -0.2026 -0.1268
12256TIP3    H158259   0.939   3.491   2.727 -1.2304 -0.1561 -0.2600
12256TIP3    H258260   0.918   3.467   2.875  0.0765  0.0772 -0.0343
12257TIP3   OH258261   4.511   1.984  16.852  0.2376 -0.2147 -0.1241
12257TIP3    H158262   4.524   2.049  16.921  0.9356  1.0115 -1.3675
12257TIP3    H258263   4.540   2.029  16.772 -0.1134 -1.7609 -1.1380
12258TIP3   OH258264   3.336   6.046  14.146 -0.0466 -0.1454 -0.2608
12258TIP3    H158265   3.279   5.980  14.105 -0.1621  0.5263 -1.1993
12258TIP3    H258266   3.290   6.129  14.132 -0.2436  0.0619  1.5377
12259TIP3   OH258267   3.555   1.716  15.984  0.0805  0.3549  0.1917
12259TIP3    H158268   3.471   1.762  15.977 -0.5657  0.0507  4.3933
12259TIP3    H258269   3.620   1.780  15.957 -1.2900  1.5257 -0.3981
12260TIP3   OH258270   2.855   0.856  11.500 -0.0611  0.0989 -0.5110
12260TIP3    H158271   2.895   0.891  11.579  0.9574  0.4187 -1.1669
12260TIP3    H258272   2.782   0.915  11.482 -1.2093 -0.8167  1.0070
12261TIP3   OH258273   5.533   4.530   3.864 -0.3707 -0.8100 -0.2253
12261TIP3    H158274   5.627   4.519   3.852 -0.3033 -1.6937  1.0002
12261TIP3    H258275   5.494   4.503   3.781  0.4513 -0.4671 -0.7217
12262TIP3   OH258276   6.236   0.936  13.302 -0.2676 -0.1327  0.5919
12262TIP3    H158277   6.271   0.848  13.316 -0.2102 -0.3617 -0.8594
12262TIP3    H258278   6.212   0.937  13.209 -0.1468  1.4261  0.5686
12263TIP3   OH258279   6.264   0.571   3.188 -0.2567  0.1845  0.0859
12263TIP3    H158280   6.209   0.593   3.113 -0.5454 -0.3543  0.1371
12263TIP3    H258281   6.208   0.517   3.244  0.3331 -0.3811  0.1307
12264TIP3   OH258282   6.733   2.372   4.380  0.2307  0.1836 -0.0812
12264TIP3    H158283   6.812   2.382   4.433  0.7871  0.8905 -1.0250
12264TIP3    H258284   6.740   2.285   4.341  0.4554  0.1813 -0.0339
12265TIP3   OH258285   3.503   1.407   1.263  0.0924  0.0513  0.0334
12265TIP3    H158286   3.433   1.420   1.200  0.2761  1.3389  0.0790
12265TIP3    H258287   3.498   1.484   1.321  0.5335 -0.6272  0.9926
12266TIP3   OH258288   6.104   0.352   5.218 -0.1514 -0.0824  0.2657
12266TIP3    H158289   6.034   0.362   5.282 -0.0883  1.5736  0.1036
12266TIP3    H258290   6.068   0.388   5.137  0.2659 -0.8633 -0.2761
12267TIP3   OH258291   2.007   4.274  16.406  0.1115 -0.2641 -0.1087
12267TIP3    H158292   1.934   4.302  16.461 -0.8139 -0.2293 -1.3266
12267TIP3    H258293   2.033   4.189  16.442 -0.6475 -0.3552  0.2313
12268TIP3   OH258294   2.560   5.212  14.808 -0.2962 -0.1916  0.5030
12268TIP3    H158295   2.490   5.265  14.847 -1.4578  0.1635 -1.9743
12268TIP3    H258296   2.608   5.272  14.752  0.5493 -0.9865  0.3548
12269TIP3   OH258297   4.389   3.108   2.818 -0.1120 -0.4212 -0.4996
12269TIP3    H158298   4.449   3.183   2.815  0.6932 -1.0893 -1.3214
12269TIP3    H258299   4.378   3.090   2.912 -0.7746  1.0851 -0.2720
12270TIP3   OH258300   4.311   3.095   3.074  0.0064 -0.0530  0.3636
12270TIP3    H158301   4.241   3.036   3.104 -0.8177  1.2073  0.9742
12270TIP3    H258302   4.345   3.134   3.155  0.3192  0.5582 -0.0584
12271TIP3   OH258303   6.333   2.550   4.501  0.4777 -0.3770  0.4530
12271TIP3    H158304   6.416   2.564   4.455  0.0279 -0.5286 -0.4159
12271TIP3    H258305   6.278   2.624   4.473  1.0075  0.8972  2.6518
12272TIP3   OH258306   0.213   0.717  13.595  0.4205  0.2090  0.1613
12272TIP3    H158307   0.260   0.799  13.575  1.8195 -0.7916 -0.7215
12272TIP3    H258308   0.246   0.654  13.531 -0.9829 -0.9474  0.5501
12273TIP3   OH258309   4.274   0.316  14.937 -1.0469 -0.5531 -0.0161
12273TIP3    H158310   4.242   0.272  14.857  1.0146 -0.3336 -0.9989
12273TIP3    H258311   4.313   0.397  14.905 -1.1119  0.0222  1.3509
12274TIP3   OH258312   1.463   2.381  14.185  0.2110  0.1176  0.1530
12274TIP3    H158313   1.474   2.448  14.252  1.2293 -2.7084  2.9353
12274TIP3    H258314   1.370   2.357  14.190  0.3366 -0.2633  0.7859
12275TIP3   OH258315   5.686   0.169  12.507  0.5780 -0.1641  0.2933
12275TIP3    H158316   5.758   0.166  12.571 -1.1854 -3.0080  2.2384
12275TIP3    H258317   5.689   0.084  12.464 -1.4975 -0.2171  0.2248
12276TIP3   OH258318   5.039   3.156   5.728  0.1752  0.2597 -0.2950
12276TIP3    H158319   5.100   3.201   5.787  0.7293 -0.4507 -0.3194
12276TIP3    H258320   4.990   3.098   5.786  1.1578 -0.9105 -0.6060
12277TIP3   OH258321   1.929   3.571   6.042 -0.4886 -1.0042  0.1679
12277TIP3    H158322   1.912   3.665   6.038 -0.3133 -0.7451  3.7646
12277TIP3    H258323   2.018   3.561   6.007 -0.1914  0.2914  0.5147
12278TIP3   OH258324   1.023   6.492  12.601 -0.7424 -0.1276 -0.2684
12278TIP3    H158325   1.052   6.574  12.642 -0.7967 -0.8678  1.3222
12278TIP3    H258326   0.981   6.518  12.520 -0.6469  1.4165  0.1709
12279TIP3   OH258327   2.469   4.759  12.095 -0.3620 -0.2606  0.2221
12279TIP3    H158328   2.527   4.710  12.036  0.3045  0.9260 -0.1066
12279TIP3    H258329   2.514   4.842  12.110 -1.0477 -0.1227  1.5410
12280TIP3   OH258330   3.867   5.778  12.072  0.0711 -0.2397  0.7118
12280TIP3    H158331   3.892   5.777  12.164 -1.0844 -0.2964  1.0439
12280TIP3    H258332   3.883   5.868  12.044  0.7979 -0.3251  0.8667
12281TIP3   OH258333   1.826   0.748  10.392  0.0941  0.1487 -0.6950
12281TIP3    H158334   1.782   0.774  10.311  0.6852 -2.4453 -1.8845
12281TIP3    H258335   1.799   0.657  10.406 -1.2637  1.0026  2.9009
12282TIP3   OH258336   3.867   2.139   4.558  0.1203  0.1580  0.0628
12282TIP3    H158337   3.912   2.143   4.643 -0.1599 -0.0894  0.2208
12282TIP3    H258338   3.802   2.070   4.568 -0.6617  0.8730  0.0045
12283TIP3   OH258339   3.235   0.473   4.583  0.4013 -0.3496  0.1625
12283TIP3    H158340   3.157   0.525   4.600  1.1132  0.2609  1.7191
12283TIP3    H258341   3.206   0.403   4.525 -1.3258 -0.1985  0.8203
12284TIP3   OH258342   2.166   3.165   0.287  0.3919 -0.0794 -0.1630
12284TIP3    H158343   2.178   3.097   0.221  0.1063 -0.5360  0.2550
12284TIP3    H258344   2.071   3.170   0.299  0.4500 -0.0523  0.2750
12285TIP3   OH258345   0.216   4.158  11.983 -0.1533 -0.5144  0.2669
12285TIP3    H158346   0.184   4.239  12.025  2.7258  0.7234  0.1980
12285TIP3    H258347   0.170   4.155  11.899  1.8967  2.7587 -1.0860
12286TIP3   OH258348   3.710   1.602  15.340 -0.4736  0.9930  0.2066
12286TIP3    H158349   3.791   1.589  15.290 -0.8673 -0.6232 -0.0463
12286TIP3    H258350   3.738   1.646  15.419  0.6596  0.5475  0.0651
12287TIP3   OH258351   2.070   0.779   4.393 -0.0767 -0.4477 -0.0706
12287TIP3    H158352   2.066   0.874   4.403 -0.2673 -0.4322 -0.2958
12287TIP3    H258353   1.978   0.750   4.393 -0.0793 -0.4789 -1.4553
12288TIP3   OH258354   2.610   0.173   2.170 -0.6716 -0.1454  0.6502
12288TIP3    H158355   2.549   0.173   2.097 -0.0098  1.6710  0.0567
12288TIP3    H258356   2.592   0.255   2.217  3.0250  1.7671 -1.0643
12289TIP3   OH258357   0.548   3.355   1.869 -0.4857  0.8281 -0.5919
12289TIP3    H158358   0.521   3.292   1.936  1.6312 -0.5778 -0.9833
12289TIP3    H258359   0.587   3.427   1.917 -0.8348  0.7827 -0.2397
12290TIP3   OH258360   4.567   4.826  13.453  0.0087  0.0424 -0.2818
12290TIP3    H158361   4.476   4.850  13.432  0.6274  2.4601 -0.2736
12290TIP3    H258362   4.559   4.747  13.506 -2.1683  0.8495  0.6485
12291TIP3   OH258363   6.114   3.363   1.430  0.0955  0.5628 -0.0093
12291TIP3    H158364   6.207   3.382   1.424 -0.0948  1.9484  1.0797
12291TIP3    H258365   6.071   3.439   1.391 -0.5725 -0.6689 -1.7342
12292TIP3   OH258366   2.058   5.596   5.871  0.4003  0.3971  0.3146
12292TIP3    H158367   2.024   5.580   5.783  0.8181 -0.2660  0.2688
12292TIP3    H258368   1.987   5.571   5.929  0.2232  0.5673  0.1682
12293TIP3   OH258369   1.113   5.788   4.705 -0.8770  0.3076  0.0783
12293TIP3    H158370   1.096   5.698   4.735 -1.1664 -0.3255 -1.9015
12293TIP3    H258371   1.172   5.824   4.771  0.4589 -1.8496  0.1293
12294TIP3   OH258372   6.626   5.291   1.615  0.0907  0.2355 -0.2123
12294TIP3    H158373   6.712   5.268   1.649 -0.0914  1.2302  0.9337
12294TIP3    H258374   6.568   5.286   1.690 -0.7278  0.2552 -0.8391
12295TIP3   OH258375   4.443   2.517  14.757  0.1018 -0.0824  0.0210
12295TIP3    H158376   4.501   2.451  14.796 -0.4782 -0.5440  0.0994
12295TIP3    H258377   4.394   2.553  14.830 -0.9235 -0.8857 -0.2556
12296TIP3   OH258378   3.394   6.022  15.141 -0.1042 -0.1246  0.0406
12296TIP3    H158379   3.347   6.083  15.198 -0.1029 -0.0983  0.0132
12296TIP3    H258380   3.434   5.959  15.201  1.3412  0.9070  0.1974
12297TIP3   OH258381   2.087   2.220  15.570 -0.0451 -0.2643  0.6843
12297TIP3    H158382   2.063   2.128  15.556 -0.6082 -0.0230  0.0273
12297TIP3    H258383   2.024   2.250  15.636 -1.9239  0.5165 -1.4359
12298TIP3   OH258384   0.883   0.277   4.802  0.1318 -0.1507  0.3118
12298TIP3    H158385   0.872   0.338   4.729 -0.5128  0.6546  1.0689
12298TIP3    H258386   0.939   0.324   4.865  1.0088 -0.9883  0.1747
12299TIP3   OH258387   5.171   4.122   1.073  0.3760  0.4696 -0.5742
12299TIP3    H158388   5.173   4.178   1.151 -1.1085  3.1023 -2.3336
12299TIP3    H258389   5.226   4.168   1.010 -1.2085  0.2022 -2.1934
12300TIP3   OH258390   6.526   5.380   2.811 -0.3247 -0.3245  0.8646
12300TIP3    H158391   6.484   5.461   2.837 -2.4399 -0.9131 -0.5786
12300TIP3    H258392   6.458   5.314   2.819  0.1948 -1.2614 -1.8572
12301TIP3   OH258393   4.152   4.975   5.894  0.6371  0.4020 -0.8921
12301TIP3    H158394   4.076   5.016   5.852  0.2971 -0.0350 -0.7154
12301TIP3    H258395   4.196   5.047   5.939 -0.8491  0.3214  0.7610
12302TIP3   OH258396   4.834   3.040   5.078  0.1508 -0.6137 -0.2385
12302TIP3    H158397   4.910   3.091   5.108 -0.0680 -0.3288 -0.1742
12302TIP3    H258398   4.870   2.982   5.012  0.5391 -0.8873  0.2098
12303TIP3   OH258399   3.352   3.855   4.767  0.3453  0.2763  0.3961
12303TIP3    H158400   3.324   3.947   4.767 -0.1683  0.1216  0.1352
12303TIP3    H258401   3.368   3.836   4.674  0.5160  0.1202  0.4584
12304TIP3   OH258402   1.293   3.017   1.567 -0.2837  0.6623 -0.3250
12304TIP3    H158403   1.277   3.028   1.473  1.3115  0.4702 -0.6365
12304TIP3    H258404   1.206   3.025   1.607 -0.7789  2.4034 -1.6620
12305TIP3   OH258405   3.096   6.771  11.832  0.0774  0.0339 -0.4314
12305TIP3    H158406   3.071   6.747  11.921 -0.8036  2.2801 -0.0315
12305TIP3    H258407   3.108   6.688  11.787  1.5722 -1.1320  2.0549
12306TIP3   OH258408   4.302   6.800  16.049 -0.3757  0.1122 -0.2033
12306TIP3    H158409   4.220   6.801  16.099  0.4043 -0.5527  1.1007
12306TIP3    H258410   4.362   6.854  16.100  0.1027  0.3549 -1.0033
12307TIP3   OH258411   5.212   4.818  14.368 -0.7041  0.2916  0.2018
12307TIP3    H158412   5.167   4.769  14.437 -0.4221 -0.6546 -0.2724
12307TIP3    H258413   5.277   4.871  14.414  0.0517 -0.9632  0.6059
12308TIP3   OH258414   3.339   3.768  15.283 -0.0657 -0.0639  0.3878
12308TIP3    H158415   3.302   3.681  15.294 -0.4893  0.0159 -0.3891
12308TIP3    H258416   3.338   3.806  15.371 -1.3228 -0.2612  0.4674
12309TIP3   OH258417   1.360   4.043   3.248 -0.0578 -0.4861 -0.4385
12309TIP3    H158418   1.395   4.028   3.336 -2.6837  1.2746  0.9555
12309TIP3    H258419   1.396   4.128   3.222 -1.0515  0.0511 -0.1059
12310TIP3   OH258420   3.321   3.737  14.245  0.0566 -0.0619  0.0026
12310TIP3    H158421   3.390   3.685  14.288  2.3344  0.8248 -2.4186
12310TIP3    H258422   3.282   3.788  14.316 -0.2894 -2.9233  1.9499
12311TIP3   OH258423   1.020   6.168   3.338  0.6782 -0.4376 -0.6955
12311TIP3    H158424   1.048   6.082   3.307  1.9293 -0.8862  1.5628
12311TIP3    H258425   1.099   6.222   3.336  0.4854 -0.0922  0.3368
12312TIP3   OH258426   6.807   2.897   2.360  0.7564 -0.4537 -0.0493
12312TIP3    H158427   6.814   2.817   2.412  1.4486 -1.0878 -1.0940
12312TIP3    H258428   6.888   2.945   2.378  0.2209  0.1527  0.7882
12313TIP3   OH258429   1.713   0.478  13.395  0.0410  0.0334 -0.5995
12313TIP3    H158430   1.747   0.485  13.485 -0.3318  0.7791 -0.5104
12313TIP3    H258431   1.708   0.384  13.378 -0.6983 -0.1220  0.4671
12314TIP3   OH258432   0.743   2.124   2.924 -0.4590 -0.3385  0.4592
12314TIP3    H158433   0.819   2.170   2.887  0.3150 -1.8584  0.0983
12314TIP3    H258434   0.680   2.193   2.943  0.3820  0.7947 -0.7529
12315TIP3   OH258435   4.162   4.680   5.562  0.0361  0.0009  0.5045
12315TIP3    H158436   4.253   4.690   5.591  1.1711  1.0416 -3.1134
12315TIP3    H258437   4.163   4.601   5.508 -1.1745  0.0922  0.3348
12316TIP3   OH258438   0.171   3.343  15.946 -0.2569 -0.2664 -0.2023
12316TIP3    H158439   0.214   3.416  15.901  2.7448 -1.9125 -0.1709
12316TIP3    H258440   0.199   3.352  16.038 -2.2436  0.1758  0.3822
12317TIP3   OH258441   2.834   2.239   0.706  0.1643 -0.3717 -0.0240
12317TIP3    H158442   2.812   2.153   0.741  0.2115 -0.7124 -0.8082
12317TIP3    H258443   2.872   2.221   0.620 -1.5371  0.5239 -1.0108
12318TIP3   OH258444   5.526   2.059   3.239 -0.0571  0.3185 -0.0183
12318TIP3    H158445   5.465   2.130   3.258  0.6300  0.9301 -0.0732
12318TIP3    H258446   5.475   1.979   3.252 -0.9674  0.8297 -0.4129
12319TIP3   OH258447   6.626   3.933  11.736  0.0091  0.2424  0.2412
12319TIP3    H158448   6.572   3.913  11.812 -1.8877 -0.9651 -1.3774
12319TIP3    H258449   6.566   3.973  11.673  0.5283 -2.7896 -2.3115
12320TIP3   OH258450   3.770   0.571   2.881 -0.0475  0.6865  0.0959
12320TIP3    H158451   3.811   0.571   2.795 -0.5229 -2.0171 -0.1776
12320TIP3    H258452   3.843   0.579   2.942  0.3959  1.4202 -0.5240
12321TIP3   OH258453   0.438   3.032  15.715  0.3545  0.1934 -0.2553
12321TIP3    H158454   0.441   3.106  15.776  1.0390 -0.2393  0.2494
12321TIP3    H258455   0.479   2.960  15.764  0.0796 -0.3988 -0.8977
12322TIP3   OH258456   2.859   6.668  14.646 -0.2101  0.2176  0.2075
12322TIP3    H158457   2.911   6.618  14.708  1.1425  1.8612  0.4126
12322TIP3    H258458   2.822   6.740  14.697  0.8770  1.5546 -0.8689
12323TIP3   OH258459   4.387   4.031   4.585  0.1452  0.9088  0.7376
12323TIP3    H158460   4.413   4.019   4.676 -2.2946 -1.8041  1.1740
12323TIP3    H258461   4.338   4.113   4.584  0.6740  1.2423  1.7318
12324TIP3   OH258462   6.041   6.027   1.103  0.2760 -0.8263  0.4036
12324TIP3    H158463   6.134   6.023   1.126  0.4035 -1.3111 -0.1851
12324TIP3    H258464   6.017   5.936   1.085 -0.2949 -0.6899  0.4707
12325TIP3   OH258465   0.453   1.954   5.269 -0.5492 -0.2659  0.2640
12325TIP3    H158466   0.442   1.965   5.174 -0.3325  1.6318  0.4564
12325TIP3    H258467   0.364   1.942   5.302 -0.8967  1.9726  0.1790
12326TIP3   OH258468   0.064   5.985   0.801  0.7338 -0.3031 -0.4798
12326TIP3    H158469   0.063   5.956   0.710  2.0560 -2.0498  0.0377
12326TIP3    H258470  -0.004   5.933   0.844  0.7211 -0.1101 -0.2636
12327TIP3   OH258471   4.311   0.124   1.716 -0.4256 -0.1536 -0.3532
12327TIP3    H158472   4.314   0.207   1.762  1.9429 -0.6143  0.4243
12327TIP3    H258473   4.279   0.061   1.781  0.1108 -0.2663 -0.1896
12328TIP3   OH258474   2.049   0.458   3.270  0.0387 -0.0104 -0.2635
12328TIP3    H158475   2.059   0.379   3.323  0.7916 -0.7092 -1.4140
12328TIP3    H258476   2.137   0.478   3.239 -0.1977  1.0799 -0.2765
12329TIP3   OH258477   0.008   6.538   4.228 -0.2759  0.2867  0.5892
12329TIP3    H158478   0.047   6.601   4.168 -1.7413  0.0992 -0.6097
12329TIP3    H258479   0.061   6.459   4.218  0.4323  0.7464  0.6983
12330TIP3   OH258480   5.982   1.297  15.645 -0.1854  0.1884 -0.1064
12330TIP3    H158481   5.958   1.212  15.683  1.8529 -0.2486  0.2528
12330TIP3    H258482   5.943   1.297  15.558 -0.4271 -1.0025  0.0016
12331TIP3   OH258483   2.505   3.083  15.678  0.0771 -0.1870 -0.1352
12331TIP3    H158484   2.415   3.115  15.680 -0.0531 -0.5733  2.0685
12331TIP3    H258485   2.543   3.114  15.760  2.2907  0.8716 -1.5102
12332TIP3   OH258486   3.005   3.567  14.036 -0.4437 -0.5107  0.1969
12332TIP3    H158487   2.979   3.513  14.110  0.9477  0.8573  1.7494
12332TIP3    H258488   3.097   3.544  14.020  0.1412  1.2363  0.8140
12333TIP3   OH258489   4.997   6.511  13.488 -0.0430 -0.3365  0.0208
12333TIP3    H158490   5.025   6.502  13.579  0.5027 -1.5189 -0.2451
12333TIP3    H258491   4.988   6.605  13.474  2.8274  0.0336  0.4097
12334TIP3   OH258492   4.149   2.681   2.085  0.3262  0.5270 -0.4932
12334TIP3    H158493   4.055   2.682   2.070  0.0313 -1.8734  1.0091
12334TIP3    H258494   4.159   2.694   2.179  1.4515 -0.2511 -0.4932
12335TIP3   OH258495   4.078   4.386   5.478  0.1529  1.0192 -0.2172
12335TIP3    H158496   4.129   4.384   5.396  1.0244  0.7648  0.3225
12335TIP3    H258497   4.076   4.295   5.507 -0.1572  1.1105  0.0476
12336TIP3   OH258498   3.315   2.962  12.020 -0.2839 -0.0275 -0.6242
12336TIP3    H158499   3.371   3.030  12.056 -2.3992  0.7793  1.2868
12336TIP3    H258500   3.318   2.890  12.083 -2.1773  0.4541  0.0663
12337TIP3   OH258501   0.145   3.945  14.224  0.1918  0.7060  0.1240
12337TIP3    H158502   0.070   3.953  14.164  0.1358  1.1434  0.2444
12337TIP3    H258503   0.107   3.914  14.306  0.5527 -1.7830 -0.6325
12338TIP3   OH258504   6.177   3.248   5.010  0.2415  0.5050  0.5533
12338TIP3    H158505   6.098   3.256   4.956  0.5163 -1.1713 -0.1345
12338TIP3    H258506   6.150   3.281   5.096 -0.5814  1.9687 -0.2370
12339TIP3   OH258507   3.648   5.731   0.947 -0.3724 -0.0952  0.5883
12339TIP3    H158508   3.726   5.682   0.970  0.8044  1.2359 -0.4854
12339TIP3    H258509   3.587   5.666   0.911  0.5556 -1.0032  0.6676
12340TIP3   OH258510   0.051   3.180   4.458 -0.1697  0.4090 -0.1306
12340TIP3    H158511  -0.004   3.196   4.382  1.5499  0.7345 -1.3283
12340TIP3    H258512   0.057   3.265   4.502 -0.9047  0.2942  0.1895
12341TIP3   OH258513   2.279   1.595   1.989 -0.4782  0.7081 -0.2546
12341TIP3    H158514   2.337   1.555   2.054 -2.6945 -0.1379  1.2261
12341TIP3    H258515   2.302   1.552   1.907 -0.9426 -1.6738  0.8286
12342TIP3   OH258516   0.710   1.533  16.706 -0.5001 -0.0559 -0.0876
12342TIP3    H158517   0.689   1.626  16.701 -2.1139 -0.2442  2.3712
12342TIP3    H258518   0.626   1.489  16.694 -0.0911 -1.1316  0.9535
12343TIP3   OH258519   5.813   5.991   6.051 -0.6012 -0.7248  0.0107
12343TIP3    H158520   5.905   5.994   6.075 -1.0635  1.0575  1.6375
12343TIP3    H258521   5.808   6.039   5.968 -0.1526 -0.3298  0.2129
12344TIP3   OH258522   1.021   6.782   2.857  0.2436  0.2355  0.1520
12344TIP3    H158523   0.978   6.696   2.852 -0.6274  0.7062 -0.6322
12344TIP3    H258524   1.095   6.775   2.796 -0.7224  0.5334 -1.0792
12345TIP3   OH258525   6.481   2.103  15.889  0.3300 -0.2078  0.1541
12345TIP3    H158526   6.395   2.100  15.931  0.4728 -0.0106  0.4639
12345TIP3    H258527   6.532   2.035  15.934  0.7558  0.6025  0.9128
12346TIP3   OH258528   0.552   0.187  13.998  0.1898 -0.0789 -0.6898
12346TIP3    H158529   0.514   0.267  13.961 -0.1676  1.1022  2.1187
12346TIP3    H258530   0.583   0.213  14.085 -0.0110 -3.0144  0.3074
12347TIP3   OH258531   3.004   5.863   3.852 -0.2950 -0.1202  0.0510
12347TIP3    H158532   2.986   5.792   3.914 -0.5984 -0.5530 -0.5299
12347TIP3    H258533   3.085   5.837   3.808 -0.4930 -0.1890 -0.2763
12348TIP3   OH258534   3.940   3.763  11.764  0.5277  0.1564 -0.2790
12348TIP3    H158535   3.884   3.836  11.736  0.8324  0.3931 -0.2660
12348TIP3    H258536   3.970   3.723  11.683 -0.4571 -0.5810 -0.2875
12349TIP3   OH258537   0.554   0.837  14.273 -0.3791  0.2440 -0.0711
12349TIP3    H158538   0.521   0.748  14.289  0.5909 -0.1051 -0.0138
12349TIP3    H258539   0.547   0.848  14.178  2.8891 -1.2553 -0.5503
12350TIP3   OH258540   4.933   2.468   3.620 -0.0557 -0.0095  0.3959
12350TIP3    H158541   4.895   2.382   3.601  2.4537 -1.2018  0.4813
12350TIP3    H258542   5.021   2.448   3.651  0.9295  2.6596 -0.5856
12351TIP3   OH258543   3.749   1.007  10.910  0.4408  0.4833 -1.1058
12351TIP3    H158544   3.811   0.938  10.931  1.8976  1.1640 -2.9682
12351TIP3    H258545   3.675   0.962  10.870 -0.0057 -0.2712  0.5313
12352TIP3   OH258546   2.642   6.207  12.880 -0.2411 -0.1936  0.1497
12352TIP3    H158547   2.560   6.256  12.883 -0.7589 -0.8432 -2.2195
12352TIP3    H258548   2.616   6.117  12.861  1.0176 -0.3708 -0.8349
12353TIP3   OH258549   4.664   5.662   4.804 -0.1542  0.3643  0.1160
12353TIP3    H158550   4.745   5.624   4.839  0.0527  1.2110  0.5794
12353TIP3    H258551   4.646   5.737   4.861 -1.9319 -0.5137  0.7540
12354TIP3   OH258552   3.781   5.813   4.903 -0.3528 -0.6857 -0.1020
12354TIP3    H158553   3.749   5.729   4.936 -1.5459  0.1461  0.9247
12354TIP3    H258554   3.876   5.803   4.898 -0.4845 -2.0640  0.0731
12355TIP3   OH258555   2.438   0.946  12.799 -0.0283 -0.5971  0.3343
12355TIP3    H158556   2.529   0.971  12.813  0.0206 -0.7119  0.2181
12355TIP3    H258557   2.388   1.023  12.827  0.2147  0.6075 -2.3947
12356TIP3   OH258558   3.362   1.229  12.977 -0.6467  0.3419 -0.2808
12356TIP3    H158559   3.385   1.220  12.885  0.3824 -1.9053  0.1666
12356TIP3    H258560   3.418   1.301  13.009 -1.3033  1.4005 -1.4758
12357TIP3   OH258561   4.777   0.564  14.675 -0.5205  0.0570 -0.2793
12357TIP3    H158562   4.815   0.637  14.724  0.9578  1.2862 -3.1085
12357TIP3    H258563   4.828   0.488  14.702  0.5519  0.7878 -0.2215
12358TIP3   OH258564   4.638   1.378  15.133  0.0625 -0.2716  0.4665
12358TIP3    H158565   4.572   1.372  15.203  0.3817  0.9209  0.8864
12358TIP3    H258566   4.591   1.351  15.054 -0.8939  0.3778  0.7921
12359TIP3   OH258567   1.526   0.222   5.798  0.3302  0.2063 -0.2953
12359TIP3    H158568   1.597   0.203   5.858 -0.7876  0.5983  1.1851
12359TIP3    H258569   1.463   0.151   5.811 -0.4520  0.9155 -0.1477
12360TIP3   OH258570   5.745   0.962  13.346  0.1726 -0.4392  0.7635
12360TIP3    H158571   5.732   0.871  13.320 -0.0610  0.3655 -2.0876
12360TIP3    H258572   5.777   1.006  13.267 -2.5574  2.5762  1.2271
12361TIP3   OH258573   6.556   4.991   2.080 -0.1667 -0.7894 -0.2501
12361TIP3    H158574   6.484   4.930   2.067 -0.9556  0.2373 -0.7862
12361TIP3    H258575   6.516   5.065   2.127  0.6099 -0.3622 -0.2573
12362TIP3   OH258576   1.763   3.719  11.768 -0.0548 -0.1412  0.0429
12362TIP3    H158577   1.835   3.664  11.736  0.2598 -0.1895  0.8117
12362TIP3    H258578   1.759   3.700  11.862 -0.2685  0.7841  0.2239
12363TIP3   OH258579   2.109   3.695  12.021 -0.3336  0.9255 -0.4347
12363TIP3    H158580   2.195   3.715  12.057  0.3915 -0.3950 -1.3902
12363TIP3    H258581   2.049   3.754  12.067  0.6610 -0.1737  2.3419
12364TIP3   OH258582   2.284   2.062  12.422  0.4207 -0.0919 -0.0167
12364TIP3    H158583   2.261   1.971  12.440  1.6826 -0.2531  0.7942
12364TIP3    H258584   2.339   2.057  12.344  1.3525 -0.1207  0.6430
12365TIP3   OH258585   0.430   3.033   2.268  0.0811 -0.4171  0.3027
12365TIP3    H158586   0.392   2.992   2.346 -0.5077 -0.7456 -0.1593
12365TIP3    H258587   0.457   2.960   2.213 -0.5752 -0.1823 -0.3281
12366TIP3   OH258588   5.704   3.649  13.905 -0.3056 -0.0020  0.3602
12366TIP3    H158589   5.709   3.658  13.810 -0.0951 -0.0788  0.3638
12366TIP3    H258590   5.611   3.641  13.923 -0.4991  1.9002  0.3360
12367TIP3   OH258591   6.051   4.975   4.114  0.0989 -0.1382  0.0285
12367TIP3    H158592   5.984   5.017   4.060  0.1851 -1.4151 -1.0822
12367TIP3    H258593   6.108   5.047   4.141 -0.2358  0.5902 -1.1696
12368TIP3   OH258594   3.973   1.932   1.621  0.0114 -0.7691  0.4930
12368TIP3    H158595   4.042   1.893   1.674 -1.7804 -3.0073  1.2797
12368TIP3    H258596   3.908   1.962   1.685  0.6115  2.1146 -0.1830
12369TIP3   OH258597   1.278   0.840   4.286  0.6053  0.2870  0.2366
12369TIP3    H158598   1.316   0.896   4.354  1.7853  1.6739 -1.5088
12369TIP3    H258599   1.353   0.816   4.231 -0.3635 -0.6769 -0.6695
12370TIP3   OH258600   1.761   0.918   2.338  0.3014  0.6262 -0.4316
12370TIP3    H158601   1.672   0.898   2.311  0.2607  0.0046  0.1695
12370TIP3    H258602   1.763   1.014   2.343 -0.0952  0.6858 -1.2264
12371TIP3   OH258603   4.605   2.103   1.044 -0.4426  0.0427  0.0363
12371TIP3    H158604   4.659   2.142   0.975  0.9602 -1.3965  0.2918
12371TIP3    H258605   4.601   2.011   1.021 -4.7356  0.4541 -1.2336
12372TIP3   OH258606   4.742   1.142  17.163  0.1789  0.0576 -0.3111
12372TIP3    H158607   4.762   1.182  17.248 -1.0998  1.4830 -0.6502
12372TIP3    H258608   4.826   1.109  17.131  0.5216 -1.3549  1.9176
12373TIP3   OH258609   4.682   4.670  10.559 -0.5680 -0.9490  0.4677
12373TIP3    H158610   4.628   4.618  10.500 -0.6739  0.6338 -0.8782
12373TIP3    H258611   4.718   4.740  10.504 -0.7080  0.6011  2.2567
12374TIP3   OH258612   2.277   4.720   1.327  0.3944  0.1771 -0.4137
12374TIP3    H158613   2.187   4.709   1.358  0.7137  0.0472  0.4866
12374TIP3    H258614   2.272   4.790   1.263 -0.1508  1.0264  0.5434
12375TIP3   OH258615   3.369   2.285   0.984  0.3273 -0.2431  0.2187
12375TIP3    H158616   3.348   2.191   0.990  1.2885 -0.4953 -0.4491
12375TIP3    H258617   3.386   2.310   1.075  2.6803 -1.3234  0.1183
12376TIP3   OH258618   6.810   3.606  16.036  0.0698  0.0507  0.1086
12376TIP3    H158619   6.778   3.568  16.117  0.8104 -1.9730 -0.5153
12376TIP3    H258620   6.789   3.542  15.969  3.4759 -0.3945 -0.6254
12377TIP3   OH258621   6.223   5.594  16.668 -0.5996 -0.4630 -0.5343
12377TIP3    H158622   6.270   5.517  16.698  0.5221  0.8957  1.2833
12377TIP3    H258623   6.286   5.666  16.675 -1.2680  0.4696 -3.2392
12378TIP3   OH258624   3.922   1.811  11.134 -0.8631  0.6219 -0.1011
12378TIP3    H158625   3.828   1.814  11.153 -1.3947  1.1314 -2.6310
12378TIP3    H258626   3.934   1.729  11.086 -0.2045  1.0575 -0.6838
12379TIP3   OH258627   5.613   2.956  16.077  0.2245  0.2595  0.1632
12379TIP3    H158628   5.555   3.032  16.085 -0.3531 -0.0624 -0.9222
12379TIP3    H258629   5.586   2.898  16.149  0.1428  0.7334  0.5191
12380TIP3   OH258630   2.990   2.982   4.492  0.4079  0.0375 -0.7348
12380TIP3    H158631   2.996   2.938   4.577  0.8468  0.3726 -0.5941
12380TIP3    H258632   3.072   2.961   4.448 -0.4071 -1.3363 -1.6628
12381TIP3   OH258633   6.020   3.316  15.080 -0.3132 -0.9499 -0.8885
12381TIP3    H158634   5.962   3.392  15.076  1.1643  0.1986 -0.9324
12381TIP3    H258635   6.063   3.314  14.995  2.5680  0.5598  0.4436
12382TIP3   OH258636   4.669   2.030   1.847  1.0498 -0.3913  0.1538
12382TIP3    H158637   4.696   1.956   1.902  1.3564 -0.5271 -0.1769
12382TIP3    H258638   4.748   2.054   1.800  0.6904 -0.5285 -0.5186
12383TIP3   OH258639   4.020   0.581   5.906  0.4273 -0.6199  0.2883
12383TIP3    H158640   4.067   0.658   5.874  1.1856 -1.4755 -0.7277
12383TIP3    H258641   3.928   0.608   5.909  0.4848 -0.1407 -1.5413
12384TIP3   OH258642   0.464   6.771  15.280  0.3811  0.3890 -0.3885
12384TIP3    H158643   0.369   6.782  15.282  0.2103 -0.7196 -2.1131
12384TIP3    H258644   0.482   6.705  15.346  0.0095  0.8883  0.2234
12385TIP3   OH258645   0.274   4.091  16.442 -0.0349 -0.0570  0.0596
12385TIP3    H158646   0.218   4.165  16.419 -1.3949 -1.1235 -0.0601
12385TIP3    H258647   0.289   4.100  16.536 -1.4934 -0.5193  0.3380
12386TIP3   OH258648   0.958   3.586   4.262  0.0166 -0.1271  0.2707
12386TIP3    H158649   0.877   3.548   4.226  1.3316 -3.7227  0.9261
12386TIP3    H258650   1.027   3.525   4.237  2.4480  2.3766  0.5809
12387TIP3   OH258651   0.858   2.840   0.244 -0.5439  0.1377 -0.9174
12387TIP3    H158652   0.863   2.933   0.223 -0.1318  0.1719 -0.6703
12387TIP3    H258653   0.889   2.796   0.164  0.8172  0.2630 -0.4662
12388TIP3   OH258654   4.661   6.126   2.010 -0.3880 -0.2139 -0.2258
12388TIP3    H158655   4.720   6.160   1.943 -0.8893  0.2313 -0.4483
12388TIP3    H258656   4.588   6.087   1.961 -0.8244  0.2379  0.0534
12389TIP3   OH258657   2.465   5.681  15.425  0.3389 -0.3054  0.3122
12389TIP3    H158658   2.483   5.732  15.347  0.8245  0.1402  0.7089
12389TIP3    H258659   2.446   5.747  15.493  0.1855 -0.6747  0.6293
12390TIP3   OH258660   4.926   2.646  16.021  0.0442 -0.4525 -0.2609
12390TIP3    H158661   5.003   2.637  15.965 -0.5212 -0.3193 -1.0726
12390TIP3    H258662   4.852   2.633  15.961 -0.6362  2.0670 -0.0414
12391TIP3   OH258663   2.864   6.790  12.330  0.0155 -0.2905 -0.7078
12391TIP3    H158664   2.821   6.726  12.386 -0.4228  1.5306  1.1025
12391TIP3    H258665   2.796   6.817  12.268 -0.3738 -0.1451 -0.2194
12392TIP3   OH258666   5.646   4.390   0.115 -0.1379 -0.3866  0.0244
12392TIP3    H158667   5.585   4.322   0.084  1.2518 -1.3387 -0.6535
12392TIP3    H258668   5.725   4.342   0.139  1.0853  1.0451 -1.0467
12393TIP3   OH258669   1.959   0.333  16.768 -0.4381 -0.4791  0.0318
12393TIP3    H158670   2.027   0.377  16.716  1.3499 -1.3284  1.5739
12393TIP3    H258671   1.920   0.403  16.820 -0.2917 -0.0857 -0.3857
12394TIP3   OH258672   0.106   5.749  10.829  0.3848  0.5420 -0.0676
12394TIP3    H158673   0.145   5.777  10.911 -0.2359  2.2413 -0.3327
12394TIP3    H258674   0.107   5.653  10.833 -0.3838  0.6049  2.2687
12395TIP3   OH258675   1.739   4.619   0.730 -0.1295 -0.1142  0.0798
12395TIP3    H158676   1.728   4.693   0.789  1.4925 -1.4127  2.0913
12395TIP3    H258677   1.741   4.658   0.642 -1.2438  1.9910  0.9595
12396TIP3   OH258678   4.773   0.267  14.043 -0.6624  0.6811  0.4030
12396TIP3    H158679   4.854   0.234  14.006 -2.0466 -1.1555 -1.1072
12396TIP3    H258680   4.753   0.345  13.991  0.8291  1.9765  1.7140
12397TIP3   OH258681   4.772   5.388  14.753  0.2355  0.3984  0.1309
12397TIP3    H158682   4.703   5.453  14.762 -1.5724 -1.4708  0.2274
12397TIP3    H258683   4.795   5.390  14.659  1.9561  2.8561  0.5565
12398TIP3   OH258684   1.570   3.682   5.810  0.4246 -0.8268 -0.1667
12398TIP3    H158685   1.665   3.692   5.805  0.5883 -2.4097 -0.7057
12398TIP3    H258686   1.535   3.770   5.799  1.8123 -0.3285 -0.6293
12399TIP3   OH258687   2.462   1.889   3.978  0.1388  0.3609 -0.7838
12399TIP3    H158688   2.497   1.944   3.907  2.2118  0.3517  0.2105
12399TIP3    H258689   2.509   1.917   4.056 -0.0051 -1.6805  0.0616
12400TIP3   OH258690   4.747   4.863  15.001  0.4072 -0.5592  0.4450
12400TIP3    H158691   4.800   4.874  14.922  2.8182  0.6913  2.1546
12400TIP3    H258692   4.770   4.776  15.034 -0.6812 -1.1256 -0.2716
12401TIP3   OH258693   4.415   6.242   0.024  0.0870  0.1238 -0.1245
12401TIP3    H158694   4.437   6.150   0.028  0.2619  0.2018  0.8088
12401TIP3    H258695   4.387   6.264   0.113 -0.4491  0.8409 -0.4636
12402TIP3   OH258696   2.163   4.882  13.674 -0.3630  0.6011 -0.6240
12402TIP3    H158697   2.219   4.808  13.697 -0.1722  0.2903 -2.0464
12402TIP3    H258698   2.127   4.912  13.757  0.6552 -0.2139  0.1195
12403TIP3   OH258699   5.875   6.299  14.627  0.7329 -0.2406  0.6219
12403TIP3    H158700   5.885   6.294  14.722 -1.0167 -0.0905  0.8202
12403TIP3    H258701   5.899   6.389  14.605 -0.0760  0.0915  1.0802
12404TIP3   OH258702   1.219   5.453   3.835 -0.2088  0.3104  0.1544
12404TIP3    H158703   1.211   5.424   3.926  1.7430 -1.7705 -0.2891
12404TIP3    H258704   1.178   5.539   3.833 -0.3918  0.3131  2.9792
12405TIP3   OH258705   2.653   4.059  15.829  0.2438  0.2117  0.3934
12405TIP3    H158706   2.652   4.153  15.849 -2.0379 -0.0146  1.4665
12405TIP3    H258707   2.572   4.025  15.867  1.1279 -2.2416  0.1853
12406TIP3   OH258708   3.889   5.171  16.794  0.1528 -0.7647 -0.4672
12406TIP3    H158709   3.961   5.120  16.757  1.6062  0.6490  0.3579
12406TIP3    H258710   3.924   5.207  16.876 -0.4404  2.3887 -1.5050
12407TIP3   OH258711   0.475   2.168  13.459  0.4489 -0.0410  0.0767
12407TIP3    H158712   0.495   2.213  13.377  0.5545 -0.9018 -0.3722
12407TIP3    H258713   0.416   2.097  13.434  0.8546 -0.5950  0.6711
12408TIP3   OH258714   2.316   2.464  11.518  0.0761 -0.2418  0.6643
12408TIP3    H158715   2.361   2.541  11.482 -1.1088  0.4748  0.7009
12408TIP3    H258716   2.374   2.391  11.496 -0.1147  0.3039 -1.8258
12409TIP3   OH258717   6.000   1.585  12.601  0.0081 -0.6145  0.1470
12409TIP3    H158718   6.008   1.490  12.609  2.3138 -0.1710  4.2894
12409TIP3    H258719   6.028   1.619  12.686 -2.7031  3.7091 -0.5515
12410TIP3   OH258720   6.771   5.745  11.685  0.2432 -0.0979 -0.4204
12410TIP3    H158721   6.726   5.769  11.604  2.1765 -1.7635 -2.0642
12410TIP3    H258722   6.742   5.656  11.703 -0.7890  0.5389  1.2132
12411TIP3   OH258723   2.888   5.366   3.025 -0.1760  0.2163 -0.1590
12411TIP3    H158724   2.902   5.317   2.943  0.7294  0.2680 -0.0380
12411TIP3    H258725   2.865   5.454   2.997 -0.9147 -0.0384 -0.3683
12412TIP3   OH258726   3.355   1.232   1.971  0.2836  0.2460  0.1490
12412TIP3    H158727   3.364   1.310   1.915  0.9934 -0.4756 -0.7730
12412TIP3    H258728   3.337   1.161   1.909  0.4304 -0.4555  0.9093
12413TIP3   OH258729   5.151   1.295  12.607  0.7721  0.4016  0.0705
12413TIP3    H158730   5.119   1.206  12.591  1.5063 -0.0997  1.3414
12413TIP3    H258731   5.217   1.309  12.539 -0.0501  0.3500 -0.7472
12414TIP3   OH258732   3.236   6.680  15.939 -0.0076 -0.0169 -0.3195
12414TIP3    H158733   3.312   6.683  15.882 -0.5270 -2.2341 -1.1495
12414TIP3    H258734   3.257   6.614  16.004 -1.4253 -1.0269 -0.8695
12415TIP3   OH258735   4.730   6.778   3.147 -0.2769  0.1832  0.0987
12415TIP3    H158736   4.765   6.739   3.068 -0.4686  0.0918  0.0606
12415TIP3    H258737   4.657   6.721   3.173 -1.1424  1.0189 -0.4658
12416TIP3   OH258738   3.005   5.790   0.103 -0.6949 -0.1168  0.0985
12416TIP3    H158739   2.970   5.815   0.188 -0.0942 -0.9417  0.5981
12416TIP3    H258740   3.082   5.737   0.123 -1.9726 -2.4200 -0.9133
12417TIP3   OH258741   4.275   1.969   5.803  0.2239 -0.1486  0.1192
12417TIP3    H158742   4.245   2.026   5.733  2.7099  2.1211  0.7812
12417TIP3    H258743   4.227   1.999   5.881 -0.7386 -1.0458 -0.1175
12418TIP3   OH258744   6.239   1.465   0.329 -0.3191  0.3874  0.0354
12418TIP3    H158745   6.153   1.493   0.359 -0.9437 -0.3320 -1.0698
12418TIP3    H258746   6.268   1.535   0.270  0.6501  1.5100  1.8013
12419TIP3   OH258747   3.822   6.537  11.353 -0.2574 -0.5163  0.0011
12419TIP3    H158748   3.798   6.626  11.330 -1.2785 -0.1912  2.2078
12419TIP3    H258749   3.916   6.542  11.373  0.1532 -0.3829 -1.8903
12420TIP3   OH258750   1.119   2.192  13.140 -0.3778 -0.2937  0.0990
12420TIP3    H158751   1.062   2.230  13.074 -3.2803 -1.0478  2.0613
12420TIP3    H258752   1.172   2.128  13.093 -2.0637 -0.5104 -1.5551
12421TIP3   OH258753   6.374   0.618   5.367  0.0550 -0.1813  0.4089
12421TIP3    H158754   6.305   0.684   5.366  0.4805  0.2682  0.7933
12421TIP3    H258755   6.340   0.550   5.426  0.1392  0.2598  0.9704
12422TIP3   OH258756   4.410   3.504   3.156  0.1228  0.2913 -0.3967
12422TIP3    H158757   4.463   3.542   3.085  0.6536  1.7560  0.7601
12422TIP3    H258758   4.469   3.441   3.198  0.2142  0.3280 -0.4686
12423TIP3   OH258759   2.427   5.849  11.548 -0.1761  0.3436 -0.6082
12423TIP3    H158760   2.402   5.869  11.458 -1.8327 -0.0383 -0.2464
12423TIP3    H258761   2.353   5.877  11.601  0.7747  0.5383  0.6456
12424TIP3   OH258762   0.609   4.527  15.419 -0.1261  0.1706  0.2216
12424TIP3    H158763   0.606   4.431  15.417 -1.7172  0.1393  2.0902
12424TIP3    H258764   0.680   4.547  15.479 -0.8346  0.1162  1.0951
12425TIP3   OH258765   1.571   5.247  12.374 -0.1237 -0.0725 -0.0897
12425TIP3    H158766   1.660   5.211  12.365 -0.2654 -0.2498 -0.8631
12425TIP3    H258767   1.519   5.198  12.310 -0.6143  0.5657 -0.1859
12426TIP3   OH258768   6.407   0.155   2.520  0.1930 -0.2539 -0.1720
12426TIP3    H158769   6.376   0.221   2.582  0.6511 -1.0497  0.9233
12426TIP3    H258770   6.372   0.073   2.553  0.4796 -0.6955 -0.9509
12427TIP3   OH258771   5.177   3.662  12.042 -0.1379  0.2122  0.0014
12427TIP3    H158772   5.250   3.621  12.087  1.2504  2.6843  0.0903
12427TIP3    H258773   5.121   3.589  12.015  2.1667 -1.7057  0.2469
12428TIP3   OH258774   2.688   4.896   1.000 -0.3587  0.6483  0.7434
12428TIP3    H158775   2.689   4.825   1.064  2.6898 -2.4976 -2.6284
12428TIP3    H258776   2.771   4.942   1.014  0.2933 -0.0107 -0.8468
12429TIP3   OH258777   4.021   4.957   0.355 -0.0440 -0.2106 -0.0769
12429TIP3    H158778   3.964   4.899   0.304  1.0568 -0.0477 -1.5426
12429TIP3    H258779   4.094   4.900   0.382 -1.0284 -0.4955  2.0511
12430TIP3   OH258780   3.689   1.760  10.974  0.1754  0.1657  0.0952
12430TIP3    H158781   3.633   1.720  10.908  1.6116 -1.2859 -0.2663
12430TIP3    H258782   3.686   1.699  11.048  1.7636 -0.2665 -0.1744
12431TIP3   OH258783   4.384   5.516  10.687  0.2493  0.5550 -0.3365
12431TIP3    H158784   4.397   5.429  10.723  0.1644  0.8002  0.2992
12431TIP3    H258785   4.460   5.566  10.718  0.9819  0.3599 -1.8049
12432TIP3   OH258786   0.600   0.835   2.074  0.1036  0.0458  0.4305
12432TIP3    H158787   0.596   0.905   2.139  1.6255  0.4363  0.1312
12432TIP3    H258788   0.637   0.877   1.996 -1.5124 -0.4574 -0.6391
12433TIP3   OH258789   3.907   2.896   1.033  0.2201 -0.1899 -0.3413
12433TIP3    H158790   3.918   2.983   1.070 -0.8653  0.3514 -1.2807
12433TIP3    H258791   3.845   2.907   0.961  1.4091 -1.4085 -1.6147
12434TIP3   OH258792   2.935   6.091   2.444 -0.5257 -0.4535 -0.5294
12434TIP3    H158793   2.859   6.146   2.424 -0.4773 -0.7189 -1.4632
12434TIP3    H258794   2.952   6.107   2.537 -1.5502 -0.1792 -0.3805
12435TIP3   OH258795   4.492   6.551   3.476 -0.7903  0.1216 -0.5647
12435TIP3    H158796   4.519   6.516   3.391 -1.5370  2.1008 -1.6875
12435TIP3    H258797   4.573   6.561   3.525 -0.3658 -1.2283 -0.9689
12436TIP3   OH258798   2.862   5.585   0.985  0.4217  1.0435 -0.1308
12436TIP3    H158799   2.946   5.548   1.010  0.3415  0.9367 -0.0145
12436TIP3    H258800   2.848   5.555   0.895 -1.1664 -2.0364  1.0269
12437TIP3   OH258801   4.745   4.917  16.426  0.3472 -0.3931 -0.0922
12437TIP3    H158802   4.691   4.841  16.406 -0.2484 -0.5632  2.0381
12437TIP3    H258803   4.692   4.993  16.399 -0.4361 -0.6102  0.8187
12438TIP3   OH258804   5.924   0.536  16.654 -0.3244 -0.1359 -0.3123
12438TIP3    H158805   5.994   0.511  16.595 -1.3091 -1.3886 -0.9857
12438TIP3    H258806   5.857   0.574  16.598 -0.7720 -0.2495  0.1346
12439TIP3   OH258807   5.839   6.001  10.681 -0.1171  0.4669 -0.4088
12439TIP3    H158808   5.886   5.934  10.631  1.7599  1.2928  0.1812
12439TIP3    H258809   5.830   6.074  10.619 -1.2446  0.0630 -0.7318
12440TIP3   OH258810   0.751   2.645  17.271 -0.3521  0.7565 -0.5071
12440TIP3    H158811   0.718   2.734  17.258 -1.3032  0.3708 -0.8246
12440TIP3    H258812   0.769   2.614  17.182 -1.1970  0.2105 -0.4998
12441TIP3   OH258813   4.367   2.426  16.661 -0.0940 -0.0960  0.5790
12441TIP3    H158814   4.381   2.428  16.756 -0.6490  0.6237  0.6529
12441TIP3    H258815   4.303   2.495  16.645  0.1214 -0.1081 -0.3437
12442TIP3   OH258816   0.271   2.141   1.843  0.5142 -0.2100  0.1908
12442TIP3    H158817   0.310   2.058   1.869 -0.0691 -1.1814 -1.9191
12442TIP3    H258818   0.189   2.117   1.800  0.7557  1.3641 -1.2320
12443TIP3   OH258819   1.036   4.795   3.723 -0.1098  0.3460  0.9091
12443TIP3    H158820   0.991   4.734   3.665 -2.3965  1.4486  1.4707
12443TIP3    H258821   1.123   4.806   3.683 -0.8165 -0.7308 -0.9892
12444TIP3   OH258822   2.642   5.676   2.252 -0.0099 -0.5224  0.3156
12444TIP3    H158823   2.637   5.771   2.252  3.5772 -0.2444  0.0601
12444TIP3    H258824   2.681   5.654   2.337 -0.6540 -1.7478  0.3064
12445TIP3   OH258825   1.332   4.596  15.344  0.2237  0.0885 -0.6185
12445TIP3    H158826   1.401   4.656  15.370  0.7597  0.6082 -3.0832
12445TIP3    H258827   1.253   4.651  15.343  0.1680  0.0204  0.0884
12446TIP3   OH258828   4.184   3.535  11.399 -0.3241  0.5269  0.4251
12446TIP3    H158829   4.160   3.454  11.444  0.2786  0.1074 -0.0159
12446TIP3    H258830   4.200   3.509  11.309 -0.1526  1.1446  0.2745
12447TIP3   OH258831   0.566   5.888   0.742  0.4642 -0.6298 -0.6579
12447TIP3    H158832   0.568   5.971   0.695 -1.0771 -0.6365 -0.7609
12447TIP3    H258833   0.478   5.884   0.780  0.5325 -2.1982 -0.6381
12448TIP3   OH258834   0.961   2.898   4.397  0.6401  0.6444  0.8071
12448TIP3    H158835   0.940   2.840   4.323  0.4360  1.4126  0.2527
12448TIP3    H258836   1.050   2.873   4.422 -0.7157 -2.3687  2.9121
12449TIP3   OH258837   4.411   1.496  11.315  0.4688  0.2848 -0.2179
12449TIP3    H158838   4.446   1.411  11.291 -0.3665  0.2037 -1.1996
12449TIP3    H258839   4.457   1.558  11.259  0.0828  0.3317 -0.4837
12450TIP3   OH258840   2.170   6.336   4.626 -0.2766  0.2052  0.0844
12450TIP3    H158841   2.171   6.425   4.591 -0.2881  0.4118  0.5984
12450TIP3    H258842   2.151   6.347   4.719  1.4249 -0.1975  0.5089
12451TIP3   OH258843   2.235   2.631  16.849 -0.0701 -0.0947  0.0833
12451TIP3    H158844   2.219   2.681  16.769  0.5476 -0.1996 -0.1051
12451TIP3    H258845   2.222   2.539  16.823 -0.2502 -0.1031  0.1984
12452TIP3   OH258846   1.102   6.781   3.467 -0.1929 -0.0410  0.6289
12452TIP3    H158847   1.060   6.766   3.382 -0.8913  0.8116  0.8165
12452TIP3    H258848   1.176   6.838   3.447  0.1873 -0.5832  0.4682
12453TIP3   OH258849   3.699   2.300   4.050  0.1543  0.1318  0.0054
12453TIP3    H158850   3.639   2.225   4.050 -0.9983  1.0107  1.7256
12453TIP3    H258851   3.750   2.289   4.131 -0.0570  1.2187  0.2939
12454TIP3   OH258852   3.384   0.201  16.888  0.0087  0.2421  0.1218
12454TIP3    H158853   3.443   0.139  16.845 -1.1980 -0.3858 -0.6581
12454TIP3    H258854   3.428   0.286  16.880  0.9623 -0.2740 -0.1407
12455TIP3   OH258855   1.040   5.683  14.292  0.0648 -0.2668  0.4652
12455TIP3    H158856   1.056   5.596  14.256  0.7771 -0.0850  0.3340
12455TIP3    H258857   1.083   5.743  14.230  1.1697  0.0551  1.5302
12456TIP3   OH258858   3.412   0.555   6.530  0.4531 -0.2594  0.9781
12456TIP3    H158859   3.459   0.631   6.565 -0.3836  0.3381  0.8216
12456TIP3    H258860   3.450   0.541   6.443 -0.3337  0.8326  0.4507
12457TIP3   OH258861   1.376   3.305   3.606  0.4505  0.1611  0.2702
12457TIP3    H158862   1.315   3.232   3.615  0.6850 -0.2675 -1.5020
12457TIP3    H258863   1.332   3.378   3.650 -0.3340 -0.7080  0.9608
12458TIP3   OH258864   4.600   0.275   5.988  0.5345 -0.2405 -1.0413
12458TIP3    H158865   4.549   0.329   5.927  1.4401  0.1092 -1.5168
12458TIP3    H258866   4.665   0.336   6.024  1.4448 -0.9727 -1.4303
12459TIP3   OH258867   1.234   1.341   2.641 -0.5968 -0.3058  0.1419
12459TIP3    H158868   1.285   1.305   2.713 -1.2156  2.2789  1.9519
12459TIP3    H258869   1.161   1.280   2.630  1.2299 -2.4631 -0.5432
12460TIP3   OH258870   1.615   6.448   4.792 -0.8428  0.0756 -0.1319
12460TIP3    H158871   1.527   6.411   4.794 -1.8717  2.3472 -1.1270
12460TIP3    H258872   1.604   6.539   4.820  1.6599 -0.4025  2.7059
12461TIP3   OH258873   4.339   5.901   1.269  0.2882  0.1778  0.0950
12461TIP3    H158874   4.262   5.957   1.269  0.4631  0.4211  0.6852
12461TIP3    H258875   4.372   5.905   1.179 -1.0367 -0.8338 -0.4639
12462TIP3   OH258876   1.749   3.124   6.031  0.3076  0.4672  0.2912
12462TIP3    H158877   1.844   3.120   6.039  0.3123  0.0466  0.0351
12462TIP3    H258878   1.729   3.073   5.953 -0.0346  1.5877 -0.3731
12463TIP3   OH258879   3.116   1.965  14.925  0.4232  0.3655  0.2659
12463TIP3    H158880   3.091   1.877  14.898  1.4825  0.3613 -0.7416
12463TIP3    H258881   3.046   1.992  14.984  0.0739 -1.1312  0.5631
12464TIP3   OH258882   1.961   5.035  13.523 -0.0995  0.0503  0.3205
12464TIP3    H158883   1.961   5.008  13.431  0.5014  0.3279  0.2384
12464TIP3    H258884   2.006   4.965  13.569  0.2600  0.2655  0.2976
12465TIP3   OH258885   3.772   4.975  14.563  0.5345  0.0795  0.0302
12465TIP3    H158886   3.766   5.047  14.626 -0.9104  0.2777 -0.3126
12465TIP3    H258887   3.748   5.014  14.479 -0.8481 -0.9183 -0.0627
12466TIP3   OH258888   4.287   4.578   1.531 -0.3427  0.5596 -0.6599
12466TIP3    H158889   4.219   4.585   1.598  0.4309  1.0643  0.0864
12466TIP3    H258890   4.348   4.512   1.565 -0.1869  0.4892 -1.0750
12467TIP3   OH258891   0.355   1.643   5.425 -0.6959 -0.3962  0.4063
12467TIP3    H158892   0.317   1.577   5.483 -0.8935  0.1370  0.8984
12467TIP3    H258893   0.305   1.635   5.344 -0.5633 -1.0050  0.3828
12468TIP3   OH258894   0.891   3.498   3.362 -0.4144  0.0273 -0.3813
12468TIP3    H158895   0.805   3.464   3.388  0.0260 -0.6845  0.1679
12468TIP3    H258896   0.896   3.480   3.268 -0.6953 -0.3115 -0.3336
12469TIP3   OH258897   3.876   4.334   1.191  0.3783 -0.3597  0.4429
12469TIP3    H158898   3.867   4.423   1.155  0.4810 -0.1681  0.8831
12469TIP3    H258899   3.839   4.277   1.124  0.4309  0.0061  0.0981
12470TIP3   OH258900   5.387   3.631  17.021 -0.4439 -0.5347  0.0086
12470TIP3    H158901   5.335   3.571  17.074 -1.0115  0.7015  0.8812
12470TIP3    H258902   5.408   3.703  17.080 -0.4728  0.5237 -1.2448
12471TIP3   OH258903   5.615   5.483  11.310 -0.0214 -0.1249 -0.3540
12471TIP3    H158904   5.623   5.531  11.393  1.0187  0.9934 -1.0731
12471TIP3    H258905   5.534   5.433  11.319 -0.3795  0.6570  1.0030
12472TIP3   OH258906   6.032   4.448  14.321  0.1385 -0.2303  0.1873
12472TIP3    H158907   5.972   4.446  14.395 -0.6666 -1.1098 -0.4674
12472TIP3    H258908   6.021   4.535  14.283  1.2169  0.5465  1.6201
12473TIP3   OH258909   0.682   0.773  11.352  0.4191 -0.1177  0.0148
12473TIP3    H158910   0.651   0.696  11.304 -2.1743  1.7385 -1.4146
12473TIP3    H258911   0.602   0.823  11.370  1.8406  1.2839  2.6582
12474TIP3   OH258912   4.339   3.231   0.099 -0.2531  0.3371 -0.1949
12474TIP3    H158913   4.293   3.315   0.092  0.1659  0.6394  0.5770
12474TIP3    H258914   4.279   3.167   0.062 -1.6218  0.6253  1.4640
12475TIP3   OH258915   5.093   3.524  16.000  0.6888 -0.3991  0.3408
12475TIP3    H158916   5.137   3.559  16.077 -0.0048  0.8776  0.1742
12475TIP3    H258917   5.032   3.459  16.035 -0.5112  1.0454  1.0208
12476TIP3   OH258918   5.844   1.420   2.798  0.5220 -0.0241 -0.2204
12476TIP3    H158919   5.869   1.495   2.742  0.4933  0.0731 -0.1030
12476TIP3    H258920   5.810   1.460   2.878  2.3908 -0.1695  0.6741
12477TIP3   OH258921   3.052   3.965   2.141  0.2288 -0.0815 -0.4826
12477TIP3    H158922   2.991   3.891   2.151  0.1328  0.3928  3.0775
12477TIP3    H258923   3.138   3.927   2.156  0.3879  0.1176 -0.8862
12478TIP3   OH258924   5.489   0.789   3.626 -0.3582  0.2891 -0.1491
12478TIP3    H158925   5.463   0.698   3.641 -0.6741  0.5828  1.0943
12478TIP3    H258926   5.421   0.841   3.669 -0.4518  1.1324 -1.2706
12479TIP3   OH258927   3.017   3.728   5.995 -0.1894 -0.0974  0.7190
12479TIP3    H158928   2.973   3.773   5.924 -0.7117  0.0668  1.1420
12479TIP3    H258929   3.093   3.783   6.016  0.6850 -0.7898 -0.5491
12480TIP3   OH258930   5.892   1.980   2.119 -0.3347 -0.2423  0.2844
12480TIP3    H158931   5.951   2.054   2.135 -0.1140 -0.7254  1.7597
12480TIP3    H258932   5.829   1.985   2.191  0.5371 -2.3559  1.2062
12481TIP3   OH258933   2.327   1.904   3.646  0.9599  0.0632  0.1280
12481TIP3    H158934   2.369   1.965   3.584 -0.6556  0.8653 -0.2103
12481TIP3    H258935   2.311   1.958   3.724  0.8756 -0.3333  0.3817
12482TIP3   OH258936   3.051   5.221   1.150  0.3532 -0.2213 -0.0612
12482TIP3    H158937   3.038   5.236   1.056  0.0057  2.5695  0.3908
12482TIP3    H258938   3.145   5.206   1.159  0.4464 -0.1108 -0.8178
12483TIP3   OH258939   2.882   0.748   2.844  0.0327 -0.5086  0.1252
12483TIP3    H158940   2.835   0.812   2.790 -0.7936 -0.0350  1.3797
12483TIP3    H258941   2.973   0.777   2.841  0.2604 -1.3419 -2.1989
12484TIP3   OH258942   0.538   4.846   1.310  1.0310 -0.2467 -1.0026
12484TIP3    H158943   0.460   4.837   1.366  0.3186  1.0137 -1.7419
12484TIP3    H258944   0.586   4.919   1.349  1.1521 -0.1623 -1.3088
12485TIP3   OH258945   1.502   0.867  11.786 -0.4559  0.4771 -0.3189
12485TIP3    H158946   1.572   0.842  11.726  1.5974  1.0312  1.7765
12485TIP3    H258947   1.421   0.843  11.740  1.1666 -3.4322 -1.3291
12486TIP3   OH258948   4.145   5.243   3.395 -0.1448  0.6688  0.1389
12486TIP3    H158949   4.225   5.236   3.448 -0.9563 -2.1967  1.0844
12486TIP3    H258950   4.075   5.256   3.459 -0.6476  1.5240 -0.5750
12487TIP3   OH258951   0.794   0.808   1.460  0.2776  0.1358  0.0717
12487TIP3    H158952   0.756   0.767   1.538  0.3164  0.6771  0.3775
12487TIP3    H258953   0.869   0.752   1.439  0.2929  0.0071  0.4515
12488TIP3   OH258954   2.796   1.367   1.139 -0.4173 -0.5866 -0.1857
12488TIP3    H158955   2.827   1.366   1.230 -1.2001  0.4405  0.1040
12488TIP3    H258956   2.701   1.371   1.146 -0.5008 -0.8892 -1.0625
12489TIP3   OH258957   0.079   5.771  10.330  0.4288  0.2652  0.1893
12489TIP3    H158958   0.159   5.799  10.287  0.0890  0.3376 -0.3940
12489TIP3    H258959   0.104   5.690  10.375  1.0886  0.8363  0.8619
12490TIP3   OH258960   5.048   1.756   4.503 -0.3783 -0.3927 -0.0947
12490TIP3    H158961   5.018   1.690   4.565  0.6978  0.0876  0.9728
12490TIP3    H258962   5.077   1.706   4.426  0.8798 -1.2243  0.8897
12491TIP3   OH258963   3.307   6.467  15.305 -0.1499  0.3856 -0.2589
12491TIP3    H158964   3.351   6.511  15.232  0.1602 -0.9938 -0.9331
12491TIP3    H258965   3.369   6.472  15.377 -0.4119  1.6687 -0.1083
12492TIP3   OH258966   2.357   4.100   0.034  1.0991 -0.4811 -0.2965
12492TIP3    H158967   2.383   4.140   0.117  0.7048 -1.2097  0.1800
12492TIP3    H258968   2.341   4.008   0.055 -3.2780  0.1937 -0.2801
12493TIP3   OH258969   5.882   1.928  12.131 -0.5265  0.1415  0.2990
12493TIP3    H158970   5.835   1.969  12.058 -1.4189 -0.8524  0.3040
12493TIP3    H258971   5.961   1.891  12.091 -0.9306 -0.2560 -0.1255
12494TIP3   OH258972   1.900   4.521  17.278  0.1146  0.2524 -0.5588
12494TIP3    H158973   1.908   4.516  17.373  0.9431  0.1920 -0.6262
12494TIP3    H258974   1.940   4.439  17.246 -2.4748 -0.9745 -0.8451
12495TIP3   OH258975   5.478   0.214  15.965 -0.1462 -0.3321  0.4537
12495TIP3    H158976   5.567   0.182  15.954 -0.1873 -0.0652 -0.7202
12495TIP3    H258977   5.487   0.309  15.962 -0.8394 -0.3267 -2.8685
12496TIP3   OH258978   4.347   6.587  12.065  0.2410 -0.6723 -0.0110
12496TIP3    H158979   4.344   6.683  12.076  0.1386 -0.9481  2.6360
12496TIP3    H258980   4.440   6.567  12.059  0.5108 -0.7830  3.6037
12497TIP3   OH258981   2.972   3.957  16.616 -0.3004 -0.3808  0.6266
12497TIP3    H158982   2.899   4.013  16.641 -0.5716  0.3161 -1.5926
12497TIP3    H258983   3.034   4.017  16.573  1.1167 -1.1441  1.5612
12498TIP3   OH258984   0.292   2.557  13.052  0.1789  0.1459  0.3897
12498TIP3    H158985   0.219   2.496  13.056  0.7932 -0.5548  1.3177
12498TIP3    H258986   0.353   2.525  13.119  0.4750  1.8243  0.9452
12499TIP3   OH258987   4.407   4.931  10.377 -1.0181 -0.1983 -0.4750
12499TIP3    H158988   4.374   5.020  10.382 -0.4229 -0.0516  0.8574
12499TIP3    H258989   4.421   4.904  10.467  1.7343 -0.5365 -0.9308
12500TIP3   OH258990   5.867   3.988   4.368  0.6309 -0.4448  0.2196
12500TIP3    H158991   5.810   4.057   4.333  2.1191 -0.3083 -2.0381
12500TIP3    H258992   5.825   3.962   4.451 -0.5100  2.4354  0.6079
12501TIP3   OH258993   5.950   2.201   0.461 -0.2666 -0.0179 -0.2165
12501TIP3    H158994   5.921   2.199   0.370 -0.2219 -0.4945 -0.2213
12501TIP3    H258995   5.920   2.118   0.497  1.4039 -0.6661 -0.3085
12502TIP3   OH258996   5.219   6.370   6.332  0.0714 -0.0174  0.4227
12502TIP3    H158997   5.181   6.290   6.296  1.2887 -0.8927  1.0245
12502TIP3    H258998   5.231   6.427   6.256  1.2217 -1.2555 -0.3627
12503TIP3   OH258999   5.436   2.829  14.927  0.0294  0.1316  1.3381
12503TIP3    H159000   5.412   2.904  14.981 -2.9753 -0.1965  0.5371
12503TIP3    H259001   5.361   2.769  14.934  0.3795 -0.7502 -1.6762
12504TIP3   OH259002   2.017   0.622  15.890 -0.0134  0.4306 -0.1497
12504TIP3    H159003   2.110   0.623  15.915  0.1976  2.2081 -0.9474
12504TIP3    H259004   1.992   0.714  15.885 -1.3970  0.0017 -1.5234
12505TIP3   OH259005   5.104   1.706  10.474 -0.3063  0.5816 -1.4458
12505TIP3    H159006   5.085   1.795  10.503 -0.7236  0.7047 -2.0923
12505TIP3    H259007   5.198   1.707  10.456 -0.1639  0.6803 -0.7446
12506TIP3   OH259008   4.876   3.630   1.579  0.1759 -0.1454 -0.5488
12506TIP3    H159009   4.818   3.575   1.632  0.2179 -0.1760 -0.5342
12506TIP3    H259010   4.819   3.696   1.541  0.2933  0.4387  0.2796
12507TIP3   OH259011   2.522   4.660   5.845  0.2957 -0.2655 -0.3414
12507TIP3    H159012   2.567   4.630   5.924  0.8157 -0.6635 -0.7896
12507TIP3    H259013   2.432   4.678   5.874  0.3474 -0.9073  0.2230
12508TIP3   OH259014   0.988   5.867   0.353 -0.8054  0.7374 -0.1789
12508TIP3    H159015   0.970   5.949   0.399  0.6797  1.3511 -0.6334
12508TIP3    H259016   1.062   5.888   0.296 -1.0077 -0.6813 -0.9889
12509TIP3   OH259017   0.750   3.799   3.141 -0.1738 -0.2037  0.3889
12509TIP3    H159018   0.732   3.723   3.086  0.7382 -0.9205  1.0746
12509TIP3    H259019   0.695   3.868   3.104  0.8233 -0.5085 -1.7893
12510TIP3   OH259020   5.426   1.164  15.298  0.3177 -0.3508  0.2636
12510TIP3    H159021   5.344   1.125  15.325  0.1836 -2.3957 -2.7896
12510TIP3    H259022   5.467   1.097  15.242  2.9914  1.4905 -0.0898
12511TIP3   OH259023   4.384   2.981  17.182  0.0681 -0.2224 -0.0533
12511TIP3    H159024   4.476   2.975  17.206  0.4174  1.1967 -0.9867
12511TIP3    H259025   4.345   2.901  17.217  1.8021 -1.2228 -0.3474
12512TIP3   OH259026   5.914   5.165  14.620  0.3387 -0.0187  0.1228
12512TIP3    H159027   5.970   5.240  14.601 -0.1773  0.6290  1.1485
12512TIP3    H259028   5.973   5.089  14.613  1.1105  0.5723  0.2039
12513TIP3   OH259029   1.322   3.428  11.573  0.7313  0.7552 -0.0923
12513TIP3    H159030   1.278   3.445  11.490  2.0940  1.3014 -0.7208
12513TIP3    H259031   1.313   3.510  11.622  1.9313  1.2281 -0.6414
12514TIP3   OH259032   1.219   0.261   0.165  0.3704  0.8380  0.5077
12514TIP3    H159033   1.157   0.198   0.201  0.4758  0.9965  0.9701
12514TIP3    H259034   1.304   0.219   0.174  0.4867  1.2108  1.1898
12515TIP3   OH259035   4.327   1.012  13.926 -0.0198  0.5948 -0.2310
12515TIP3    H159036   4.354   1.015  14.017 -1.9932  0.3340  0.3961
12515TIP3    H259037   4.308   1.103  13.903 -0.0162  0.6011 -0.2096
12516TIP3   OH259038   4.740   0.051   1.116  0.5851  0.1672 -0.4482
12516TIP3    H159039   4.811   0.113   1.100 -0.6922  1.8649  0.3501
12516TIP3    H259040   4.685   0.093   1.183  0.0832 -2.1350  0.6389
12517TIP3   OH259041   4.547   1.165  15.451 -0.3658  0.0879  0.0773
12517TIP3    H159042   4.634   1.204  15.455  0.2563 -1.1776 -0.8041
12517TIP3    H259043   4.510   1.180  15.538  0.4384  1.2997  0.2074
12518TIP3   OH259044   3.158   6.554  15.048 -0.0750  0.2899 -0.1307
12518TIP3    H159045   3.243   6.596  15.039 -0.4387  0.6253 -2.4167
12518TIP3    H259046   3.172   6.482  15.109  1.5314  1.1318  0.5086
12519TIP3   OH259047   0.707   0.481  15.024 -0.5049 -0.1177  0.1041
12519TIP3    H159048   0.763   0.450  14.953  0.8739  0.5569  0.8596
12519TIP3    H259049   0.639   0.533  14.980 -0.2931 -0.5942 -0.7994
12520TIP3   OH259050   1.646   0.389  12.963 -0.5501 -0.0730  0.3116
12520TIP3    H159051   1.673   0.301  12.937  0.3094  0.6051 -1.1475
12520TIP3    H259052   1.592   0.420  12.890 -0.4729  0.7789  0.6053
12521TIP3   OH259053   2.672   3.071  13.038  0.3083 -0.0354  0.2690
12521TIP3    H159054   2.653   3.159  13.005 -2.4158 -0.4190  0.6645
12521TIP3    H259055   2.602   3.016  13.001  2.2282 -2.1362 -0.3414
12522TIP3   OH259056   0.104   0.147  12.845 -0.0954 -0.1348 -0.3017
12522TIP3    H159057   0.141   0.228  12.810  0.4673 -0.6771 -0.9843
12522TIP3    H259058   0.011   0.153  12.827 -0.1719  0.7221  0.3720
12523TIP3   OH259059   3.742   1.225   3.026 -0.4877  0.2868  0.0045
12523TIP3    H159060   3.788   1.281   3.088  0.6574 -2.1209  1.3960
12523TIP3    H259061   3.650   1.230   3.053 -0.3612  1.3335  0.2423
12524TIP3   OH259062   2.496   2.022   4.232  0.0059  0.3120  0.2372
12524TIP3    H159063   2.424   2.083   4.216  1.0646  1.3152 -0.8179
12524TIP3    H259064   2.496   2.008   4.326  0.0633  2.3593  0.5510
12525TIP3   OH259065   2.416   4.436   6.780  0.4645  0.0271  0.0625
12525TIP3    H159066   2.326   4.467   6.787  0.5317  0.9992 -2.6565
12525TIP3    H259067   2.428   4.377   6.854 -1.7701  1.4327  1.5684
12526TIP3   OH259068   2.152   5.096   2.858 -0.0969  0.2589  0.8001
12526TIP3    H159069   2.106   5.040   2.920  1.2747 -0.4921  1.1634
12526TIP3    H259070   2.189   5.035   2.794 -0.9207  0.9708 -0.3852
12527TIP3   OH259071   6.191   1.238   3.163 -0.6329 -0.4715 -0.9581
12527TIP3    H159072   6.284   1.231   3.140 -0.3547 -0.0479  0.0349
12527TIP3    H259073   6.164   1.322   3.127  0.2870  1.1031  1.8298
12528TIP3   OH259074   6.603   2.674   1.253 -0.6872  0.0061 -0.3752
12528TIP3    H159075   6.520   2.710   1.221 -1.1431 -0.7861 -0.1016
12528TIP3    H259076   6.657   2.664   1.175 -0.9811  0.1864 -0.6031
12529TIP3   OH259077   5.561   0.744   2.867 -0.6377  0.0459 -0.7443
12529TIP3    H159078   5.600   0.668   2.910 -1.8412 -1.6245 -2.5566
12529TIP3    H259079   5.637   0.797   2.841  0.2143 -0.5690  0.4144
12530TIP3   OH259080   0.138   3.523  16.463  0.2468 -0.1467  0.0026
12530TIP3    H159081   0.158   3.616  16.452  0.3324 -0.1491  0.1304
12530TIP3    H259082   0.218   3.485  16.498  0.8049 -0.6138 -1.7403
12531TIP3   OH259083   0.856   3.824   3.720 -0.4467 -0.8103  0.4153
12531TIP3    H159084   0.775   3.834   3.670  0.7954  0.3863 -1.4252
12531TIP3    H259085   0.886   3.736   3.699 -1.1213 -1.1695  0.9131
12532TIP3   OH259086   1.171   3.840   4.663 -0.6399  0.1115  0.5427
12532TIP3    H159087   1.206   3.761   4.622 -0.0189 -0.0192  1.3080
12532TIP3    H259088   1.155   3.900   4.590 -2.2073 -1.1216 -0.1567
12533TIP3   OH259089   6.427   6.439  13.739  0.3363 -0.2514 -0.2253
12533TIP3    H159090   6.389   6.515  13.694 -1.1445  0.0644  1.5063
12533TIP3    H259091   6.428   6.464  13.831  0.4676 -2.0833  0.2892
12534TIP3   OH259092   2.115   5.191   5.011 -0.0034 -0.0005  0.1336
12534TIP3    H159093   2.095   5.222   4.923  0.2891 -0.5624 -0.1352
12534TIP3    H259094   2.176   5.256   5.046  0.6761 -0.3114 -0.4605
12535TIP3   OH259095   1.334   5.701   0.978  0.2819 -0.1631  0.1438
12535TIP3    H159096   1.339   5.607   0.961 -0.2799 -0.2121  0.2500
12535TIP3    H259097   1.243   5.724   0.961  0.4175  0.3639  0.1187
12536TIP3   OH259098   3.655   4.643   5.677  0.9014 -0.0375 -0.4463
12536TIP3    H159099   3.704   4.625   5.758  0.2547 -0.5200 -0.1612
12536TIP3    H259100   3.695   4.586   5.612  0.1327 -1.0874 -0.0043
12537TIP3   OH259101   4.069   2.851  17.263 -0.3890 -0.2476  0.1520
12537TIP3    H159102   4.065   2.882  17.173 -0.6846 -1.8532 -0.4144
12537TIP3    H259103   4.152   2.803  17.269  1.9225  3.7427  2.0879
12538TIP3   OH259104   6.131   3.072  14.932 -0.1549  0.3504 -0.1458
12538TIP3    H159105   6.147   3.089  15.025 -1.0711  0.0056  0.0841
12538TIP3    H259106   6.049   3.023  14.931  0.3977 -0.5780 -1.0574
12539TIP3   OH259107   3.488   4.254  12.680 -0.9101  0.4961  0.5089
12539TIP3    H159108   3.499   4.345  12.653  0.3964  0.0134 -0.6793
12539TIP3    H259109   3.404   4.228  12.643  0.4892  0.0865 -2.5230
12540TIP3   OH259110   4.977   0.042   0.580 -0.1856 -0.3376  0.2991
12540TIP3    H159111   4.933   0.071   0.660 -0.7886 -0.9323  0.1948
12540TIP3    H259112   4.925  -0.034   0.551  0.5803 -0.6979 -0.1417
12541TIP3   OH259113   4.314   4.832   4.178  0.1802  0.5199  0.7250
12541TIP3    H159114   4.312   4.763   4.244  0.5359  0.3711  0.5833
12541TIP3    H259115   4.356   4.791   4.102 -1.6298  0.2286 -0.1415
12542TIP3   OH259116   3.903   6.799  12.896  0.3750  0.2331 -0.1488
12542TIP3    H159117   3.963   6.729  12.923 -0.2044  0.1419  0.9353
12542TIP3    H259118   3.954   6.853  12.836  0.1699 -2.3073 -2.6772
12543TIP3   OH259119   1.954   6.010   3.282 -0.0486 -0.0442 -0.3367
12543TIP3    H159120   2.033   6.047   3.243  1.0136 -0.6847  1.1678
12543TIP3    H259121   1.970   6.012   3.376 -1.0985 -1.8114 -0.0953
12544TIP3   OH259122   0.414   6.319   1.392 -0.5033 -0.1027 -0.1018
12544TIP3    H159123   0.398   6.228   1.369  1.2970 -0.3146 -0.6135
12544TIP3    H259124   0.369   6.369   1.324  0.2881 -0.6468 -1.0431
12545TIP3   OH259125   6.293   6.000  12.047 -0.1847 -0.0000 -0.6603
12545TIP3    H159126   6.233   5.934  12.081 -0.3634  0.4988 -0.0041
12545TIP3    H259127   6.331   6.041  12.125  0.5093  0.1404 -1.0681
12546TIP3   OH259128   5.223   3.143   2.787  0.5128  0.0662  1.0677
12546TIP3    H159129   5.224   3.232   2.750 -2.0788  0.1235  1.0899
12546TIP3    H259130   5.144   3.103   2.751  1.5014 -2.1583  1.2952
12547TIP3   OH259131   6.798   2.208  13.037  0.9986 -0.2627  0.0515
12547TIP3    H159132   6.776   2.295  13.003  0.4259 -0.7861 -0.9389
12547TIP3    H259133   6.739   2.195  13.111  0.7833  0.0033 -0.0734
12548TIP3   OH259134   2.829   6.268   0.754  0.2083  0.6010  0.0917
12548TIP3    H159135   2.851   6.219   0.675 -1.1974  0.6486 -0.3298
12548TIP3    H259136   2.873   6.353   0.742  3.1654 -0.7101  1.1107
12549TIP3   OH259137   1.427   1.675   2.962 -0.2409 -0.0148  0.0721
12549TIP3    H159138   1.489   1.726   3.015  0.5548  0.0477 -0.8929
12549TIP3    H259139   1.341   1.702   2.993  0.1092  3.1253 -1.5266
12550TIP3   OH259140   1.600   2.799  16.456 -0.6846  0.3062 -0.0444
12550TIP3    H159141   1.529   2.860  16.477 -1.0660  0.4190 -1.6208
12550TIP3    H259142   1.676   2.834  16.502 -1.6124  0.2034  1.6401
12551TIP3   OH259143   1.491   4.625  16.908  0.3205 -0.0917 -0.2570
12551TIP3    H159144   1.413   4.672  16.936  0.8532  0.6458  0.0197
12551TIP3    H259145   1.488   4.628  16.812 -0.2608 -0.5143 -0.2496
12552TIP3   OH259146   1.501   5.623  13.699 -0.2763 -0.5375  0.0614
12552TIP3    H159147   1.572   5.652  13.758 -1.4578  0.0031  1.2599
12552TIP3    H259148   1.422   5.662  13.737 -1.0241  0.1597 -2.1446
12553TIP3   OH259149   3.383   4.731   5.233 -0.7220  0.2452  0.0899
12553TIP3    H159150   3.328   4.710   5.158 -1.2264 -0.6147  0.6899
12553TIP3    H259151   3.410   4.821   5.219 -0.8557  0.1066 -1.0968
12554TIP3   OH259152   4.544   0.275   5.634 -0.3668  0.4176 -0.3913
12554TIP3    H159153   4.466   0.219   5.629  0.5121 -0.7052 -1.7274
12554TIP3    H259154   4.578   0.279   5.545  0.9401  1.1569  0.1147
12555TIP3   OH259155   2.610   0.686  13.716  0.3334  0.2138  0.5295
12555TIP3    H159156   2.597   0.594  13.737 -1.0237  0.2890  0.0249
12555TIP3    H259157   2.532   0.730  13.748  0.7357  1.1218  0.2917
12556TIP3   OH259158   2.415   6.551   4.338 -0.1117  0.0698 -0.1048
12556TIP3    H159159   2.477   6.487   4.374 -0.7463  0.5079  1.8296
12556TIP3    H259160   2.463   6.593   4.267  0.3820 -2.4037 -1.2888
12557TIP3   OH259161   1.718   1.901  13.400 -0.3579 -0.1876  0.3904
12557TIP3    H159162   1.706   1.926  13.491  0.3229  0.0249  0.4225
12557TIP3    H259163   1.659   1.958  13.351  0.1947  0.5525  0.5859
12558TIP3   OH259164   6.568   5.991  13.885  0.7128  1.1182 -0.2264
12558TIP3    H159165   6.532   5.903  13.892 -1.8249  2.2090  1.1872
12558TIP3    H259166   6.602   5.996  13.796 -0.0924 -0.9208 -0.6740
12559TIP3   OH259167   6.391   1.822  16.652  0.2394  0.4410 -0.0339
12559TIP3    H159168   6.432   1.873  16.582  0.5147  1.5049  0.8776
12559TIP3    H259169   6.379   1.886  16.723 -3.1405  0.2225 -0.3257
12560TIP3   OH259170   5.370   2.244  14.887 -0.6535  0.5151  0.2114
12560TIP3    H159171   5.357   2.149  14.883  0.2235  0.4327 -1.1508
12560TIP3    H259172   5.336   2.276  14.803 -0.5729  1.3601  0.4937
12561TIP3   OH259173   1.133   4.154   4.864 -0.2190  0.3961  0.0439
12561TIP3    H159174   1.141   4.142   4.770 -1.2729  2.2493 -0.3260
12561TIP3    H259175   1.222   4.164   4.896  0.0194  3.0299 -1.2796
12562TIP3   OH259176   0.569   5.697  14.755 -0.3108  0.5446 -0.0160
12562TIP3    H159177   0.595   5.608  14.731 -1.5086  0.2176 -0.1496
12562TIP3    H259178   0.553   5.693  14.849 -1.4405  0.3362 -0.2100
12563TIP3   OH259179   2.359   1.537   4.657  0.4941 -0.1224  0.4081
12563TIP3    H159180   2.447   1.500   4.649  0.5223  0.0191  0.0382
12563TIP3    H259181   2.321   1.527   4.569 -0.3036 -1.2992  0.8823
12564TIP3   OH259182   3.004   6.005  17.236  0.4904  0.0889  0.2490
12564TIP3    H159183   3.005   5.943  17.309 -1.7328 -0.0790  0.1727
12564TIP3    H259184   2.966   6.085  17.273  0.6209  0.4490 -0.3872
12565TIP3   OH259185   5.139   2.148  10.498  0.9507 -0.0277 -0.3904
12565TIP3    H159186   5.235   2.156  10.495  0.8714  0.9408 -0.4013
12565TIP3    H259187   5.110   2.222  10.551  0.3112 -1.2048  0.9566
12566TIP3   OH259188   1.301   5.500   3.317 -0.5851  0.0178 -0.2273
12566TIP3    H159189   1.261   5.456   3.242  1.4865 -1.4920 -0.5136
12566TIP3    H259190   1.296   5.435   3.387  0.7388  0.0700 -0.0832
12567TIP3   OH259191   4.519   6.220   0.512  0.5211  0.6247  0.2949
12567TIP3    H159192   4.567   6.302   0.526 -1.9043  2.0650  0.4634
12567TIP3    H259193   4.480   6.230   0.425 -0.0888 -0.1860  0.4692
12568TIP3   OH259194   2.713   2.922  17.105  0.0115  0.0346 -0.2759
12568TIP3    H159195   2.627   2.942  17.067 -0.5509  1.3519  1.6046
12568TIP3    H259196   2.698   2.842  17.156 -0.3161  0.7346  0.7359
12569TIP3   OH259197   1.571   4.876  13.743  0.1288  0.4616 -0.7813
12569TIP3    H159198   1.621   4.836  13.673 -0.6182 -0.2164 -0.9374
12569TIP3    H259199   1.481   4.876  13.712 -0.3897 -0.9250  0.6357
12570TIP3   OH259200   0.794   6.518   0.864 -0.1764  0.2929  0.1396
12570TIP3    H159201   0.816   6.425   0.864  1.4490  0.6689 -0.4773
12570TIP3    H259202   0.853   6.557   0.801 -2.4204  1.4114 -1.3298
12571TIP3   OH259203   3.148   1.448   3.091 -0.7656 -0.1886 -0.4063
12571TIP3    H159204   3.118   1.474   3.178  1.5097  0.8801  0.1174
12571TIP3    H259205   3.198   1.368   3.105  1.2754  1.0445 -0.3823
12572TIP3   OH259206   6.185   1.340  14.244 -0.7770 -0.3210 -0.4669
12572TIP3    H159207   6.130   1.315  14.170 -0.1628 -2.5843 -0.2155
12572TIP3    H259208   6.272   1.306  14.221 -0.2176  0.3989  0.5625
12573TIP3   OH259209   2.998   6.800  16.283 -0.1461 -0.1389 -0.6353
12573TIP3    H159210   2.945   6.860  16.335 -0.7836 -1.8257  0.7278
12573TIP3    H259211   3.026   6.852  16.207 -4.0303  0.7213 -1.6167
12574TIP3   OH259212   4.472   6.360   0.968  0.5105 -0.1152 -0.4316
12574TIP3    H159213   4.530   6.302   1.018  0.9987 -1.3183 -2.3312
12574TIP3    H259214   4.384   6.332   0.993  0.7428 -1.4452 -1.0337
12575TIP3   OH259215   3.711   5.086   3.714  0.6049 -0.2768 -0.0957
12575TIP3    H159216   3.628   5.069   3.758 -0.0521  0.4880 -1.0212
12575TIP3    H259217   3.755   5.151   3.770  0.2007 -0.0391 -0.0533
12576TIP3   OH259218   6.607   2.466  16.972 -0.2751  0.5669 -0.0596
12576TIP3    H159219   6.515   2.437  16.973  0.2619 -1.2339  0.9243
12576TIP3    H259220   6.632   2.465  16.880 -1.1472  0.7288 -0.3022
12577TIP3   OH259221   0.789   5.729   3.956 -0.0517  0.4787  0.3274
12577TIP3    H159222   0.760   5.765   3.872  0.8012  1.3473  0.3909
12577TIP3    H259223   0.709   5.720   4.007 -0.4022  1.3883 -0.0453
12578TIP3   OH259224   3.262   0.423   1.774  0.6989  0.0302 -0.3749
12578TIP3    H159225   3.170   0.418   1.751  0.7439  1.2053 -0.8162
12578TIP3    H259226   3.288   0.513   1.754  2.3925 -0.7798 -1.9354
12579TIP3   OH259227   2.448   1.591  15.528 -0.3894 -0.0431 -0.0162
12579TIP3    H159228   2.468   1.527  15.597  0.2289 -1.9213 -1.9139
12579TIP3    H259229   2.517   1.580  15.463 -2.4606 -0.1846 -2.2425
12580TIP3   OH259230   2.191   1.915   1.691 -0.7269 -0.0472 -0.0459
12580TIP3    H159231   2.265   1.929   1.751 -0.1350  0.1997 -0.8278
12580TIP3    H259232   2.216   1.960   1.611 -0.9942 -1.3512 -0.8852
12581TIP3   OH259233   1.740   3.634  12.421  0.4713 -0.6023  0.7148
12581TIP3    H159234   1.692   3.570  12.368 -0.8360  1.2412 -0.4220
12581TIP3    H259235   1.808   3.584  12.465  0.0560 -2.5925 -0.8599
12582TIP3   OH259236   0.792   0.836  14.983 -0.7116 -0.0082 -0.3507
12582TIP3    H159237   0.700   0.843  14.956 -0.6244 -0.0716 -0.6655
12582TIP3    H259238   0.822   0.927  14.990 -1.3773  0.0800  1.7630
12583TIP3   OH259239   6.105   3.090   0.794 -0.1673  0.3458  0.4577
12583TIP3    H159240   6.086   3.069   0.703  0.7524  0.7046  0.1775
12583TIP3    H259241   6.028   3.059   0.842  0.3403 -1.9619 -0.1514
12584TIP3   OH259242   4.162   4.181   0.974  0.1351  0.4673 -0.2519
12584TIP3    H159243   4.246   4.224   0.961 -0.4792  1.6442 -0.4459
12584TIP3    H259244   4.151   4.177   1.069  0.1873  0.7701 -0.2330
12585TIP3   OH259245   2.688   0.580   3.227 -0.4218  0.0552 -0.3480
12585TIP3    H159246   2.693   0.555   3.135 -1.3329  0.9512 -0.6534
12585TIP3    H259247   2.697   0.676   3.226  0.3940 -0.0051  0.5652
12586TIP3   OH259248   5.074   1.953   0.002  0.3736  0.2086 -0.0871
12586TIP3    H159249   5.116   2.035   0.028 -1.7387  1.5320 -0.7961
12586TIP3    H259250   5.110   1.935  -0.085  0.3540  0.7414 -0.2100
12587TIP3   OH259251   4.846   4.749  15.692 -0.2674 -0.5439 -0.0578
12587TIP3    H159252   4.889   4.775  15.610 -0.5266 -0.4622 -0.1662
12587TIP3    H259253   4.844   4.829  15.744 -0.0015 -0.6214  0.0742
12588TIP3   OH259254   0.872   2.983  11.871 -0.1471 -0.2472 -0.5600
12588TIP3    H159255   0.796   2.978  11.813  1.1973  2.1432 -2.6541
12588TIP3    H259256   0.945   2.949  11.818  0.5562 -1.0250  0.8664
12589TIP3   OH259257   5.094   5.394  11.320  0.1475 -0.3084  0.2414
12589TIP3    H159258   5.169   5.396  11.260  0.1975 -2.7235  0.1460
12589TIP3    H259259   5.117   5.455  11.390  2.0877 -0.8096  0.0667
12590TIP3   OH259260   1.551   0.111   5.345  0.1278 -0.1190 -0.0321
12590TIP3    H159261   1.623   0.099   5.282  1.3483 -0.3323  1.3788
12590TIP3    H259262   1.587   0.080   5.428 -1.1952  0.9486  0.9474
12591TIP3   OH259263   2.522   6.590  12.201 -0.1384 -0.1364  0.3127
12591TIP3    H159264   2.586   6.520  12.214  0.7692  0.3628 -1.4338
12591TIP3    H259265   2.445   6.560  12.249  1.1236 -1.0872  1.8169
12592TIP3   OH259266   3.876   2.923   4.915  0.0540  0.6530 -0.6602
12592TIP3    H159267   3.887   2.855   4.848  1.2589 -0.0449  0.2198
12592TIP3    H259268   3.856   2.874   4.996 -1.3588  1.4851 -0.4889
12593TIP3   OH259269   4.162   5.836   1.955 -0.7603 -0.5143  0.0829
12593TIP3    H159270   4.223   5.800   1.890 -0.3723 -0.2121  0.2755
12593TIP3    H259271   4.112   5.902   1.907  1.5853  1.8964  0.7781
12594TIP3   OH259272   5.798   5.360  12.800  0.0328  0.1625  0.2221
12594TIP3    H159273   5.733   5.328  12.739 -0.0029 -1.8383  1.2343
12594TIP3    H259274   5.781   5.454  12.808 -0.9436  0.1567 -1.6063
12595TIP3   OH259275   2.607   3.460   1.165 -0.2959  0.3583 -0.1892
12595TIP3    H159276   2.620   3.544   1.209  1.1160 -0.0697  0.2340
12595TIP3    H259277   2.583   3.483   1.075  0.2350  1.2093 -0.1095
12596TIP3   OH259278   3.184   5.371   5.329  0.5516 -0.3652 -0.3510
12596TIP3    H159279   3.102   5.352   5.375  0.5477  1.0416  0.2481
12596TIP3    H259280   3.248   5.312   5.368  0.2534 -0.1099  0.5282
12597TIP3   OH259281   3.087   1.967   1.563  0.1409 -0.2945  0.1476
12597TIP3    H159282   3.036   2.002   1.489  0.6620 -0.4229 -0.2759
12597TIP3    H259283   3.141   2.040   1.592 -0.2780 -0.1598  0.5949
12598TIP3   OH259284   3.485   1.688   2.296 -0.0103 -0.7426  0.5423
12598TIP3    H159285   3.537   1.736   2.362 -0.4894  1.4745 -0.6430
12598TIP3    H259286   3.422   1.638   2.347  0.7902 -0.4541  1.8466
12599TIP3   OH259287   6.276   4.203  14.180 -0.3851  0.3109  0.3464
12599TIP3    H159288   6.271   4.286  14.132 -0.3681  1.1326  1.7320
12599TIP3    H259289   6.199   4.154  14.151 -0.1778  0.6419 -0.7797
12600TIP3   OH259290   0.748   5.669  12.879  0.1204  0.1556  0.2257
12600TIP3    H159291   0.721   5.578  12.869 -3.1246  1.0613 -0.0577
12600TIP3    H259292   0.743   5.685  12.973  1.0676 -0.0609  0.3131
12601TIP3   OH259293   0.404   5.293   2.311 -0.1924  0.7569  0.4097
12601TIP3    H159294   0.454   5.373   2.325 -0.1200  0.4417  2.1341
12601TIP3    H259295   0.341   5.291   2.384 -0.4751 -0.5276  0.1555
12602TIP3   OH259296   2.219   1.200   1.228  0.0983  0.0672  0.3609
12602TIP3    H159297   2.247   1.144   1.300  1.3627 -0.4618 -0.5349
12602TIP3    H259298   2.137   1.240   1.260 -0.4689 -1.7488  1.2597
12603TIP3   OH259299   3.487   1.323   4.104  0.2026  0.7588 -0.3296
12603TIP3    H159300   3.519   1.294   4.189  2.5829  0.6828 -1.2093
12603TIP3    H259301   3.457   1.243   4.061 -1.5014  0.8692  0.6139
12604TIP3   OH259302   2.471   3.363   5.157 -0.4474  0.2913 -0.1225
12604TIP3    H159303   2.548   3.351   5.102  0.1061  0.5076  0.5999
12604TIP3    H259304   2.417   3.286   5.139 -0.0250  0.0994 -0.5804
12605TIP3   OH259305   5.432   2.662  13.799  0.0988  0.4113  0.5511
12605TIP3    H159306   5.344   2.688  13.772 -0.6111  0.2258  2.5862
12605TIP3    H259307   5.459   2.597  13.734 -2.0597 -0.9647  0.9689
12606TIP3   OH259308   2.854   1.296   5.976 -0.6594  0.4896  0.0957
12606TIP3    H159309   2.860   1.221   6.035 -0.2336  0.4093 -0.0485
12606TIP3    H259310   2.760   1.311   5.965 -0.7409  0.0436  0.2075
12607TIP3   OH259311   1.461   0.543   2.317 -0.2488 -0.0736 -0.0957
12607TIP3    H159312   1.375   0.515   2.348 -0.9374  2.3849  0.3443
12607TIP3    H259313   1.502   0.583   2.394  0.7049  0.0478 -0.6630
12608TIP3   OH259314   3.167   5.240  16.125 -0.4727  0.0158  0.3895
12608TIP3    H159315   3.158   5.237  16.030  1.0486  1.5372  0.1690
12608TIP3    H259316   3.242   5.182  16.144 -0.2581  0.3508  0.5747
12609TIP3   OH259317   3.692   2.608  15.801 -0.0652  0.4122  0.5214
12609TIP3    H159318   3.747   2.624  15.724 -0.8373  1.7588  0.2167
12609TIP3    H259319   3.737   2.539  15.850  1.4266  0.8867 -0.1565
12610TIP3   OH259320   4.564   4.001   2.594  0.0145 -0.3320 -0.5772
12610TIP3    H159321   4.508   4.042   2.661  1.0825  1.5888 -0.8261
12610TIP3    H259322   4.596   3.921   2.635 -1.7934 -0.7505  0.0782
12611TIP3   OH259323   6.748   4.233   4.242  0.3009  0.0898  0.3810
12611TIP3    H159324   6.667   4.189   4.216 -0.0731  1.0143 -0.0326
12611TIP3    H259325   6.790   4.172   4.304 -0.8793 -0.2146  0.8808
12612TIP3   OH259326   2.412   4.068   0.544 -0.1995 -0.1473  0.0939
12612TIP3    H159327   2.353   4.041   0.615  0.0526  0.5845  0.5964
12612TIP3    H259328   2.418   4.163   0.554 -2.0084  0.2661 -2.3586
12613TIP3   OH259329   0.046   0.426   2.685  0.0439  0.7500 -0.5066
12613TIP3    H159330   0.093   0.463   2.610  1.8463 -0.5575 -0.0590
12613TIP3    H259331   0.098   0.450   2.761 -0.6064  0.2185  0.1224
12614TIP3   OH259332   5.752   6.397   5.510 -0.1194  0.0557 -0.1698
12614TIP3    H159333   5.777   6.305   5.503 -2.0012 -0.4894  0.1615
12614TIP3    H259334   5.835   6.445   5.498  0.7778 -1.6387 -0.9182
12615TIP3   OH259335   0.480   4.667   1.080  0.1067 -0.9478  0.3723
12615TIP3    H159336   0.453   4.590   1.130 -1.6817  0.2464  1.3001
12615TIP3    H259337   0.513   4.728   1.147  1.0576 -0.7210 -0.2993
12616TIP3   OH259338   3.991   5.876  12.895 -0.0964 -0.5396 -0.2144
12616TIP3    H159339   3.958   5.940  12.832 -2.4479 -1.1039  0.3838
12616TIP3    H259340   3.913   5.827  12.922  0.8988 -0.5047  2.8941
12617TIP3   OH259341   5.543   4.359  13.046  0.2692  0.4700  0.2246
12617TIP3    H159342   5.577   4.393  13.128  1.0547  0.6606 -0.1709
12617TIP3    H259343   5.546   4.264  13.055 -1.4066  0.4851  1.1216
12618TIP3   OH259344   6.592   3.710   5.045 -0.3229 -0.2898  0.4875
12618TIP3    H159345   6.656   3.652   5.004 -2.6596 -1.2711 -1.9130
12618TIP3    H259346   6.513   3.701   4.991 -1.9129  2.2917  2.2609
12619TIP3   OH259347   2.056   1.442  10.179  0.3088 -0.0965  0.3398
12619TIP3    H159348   2.059   1.385  10.102 -1.7565 -1.1484  1.0123
12619TIP3    H259349   2.102   1.392  10.246 -0.2667 -0.3626  0.5375
12620TIP3   OH259350   3.644   1.314  11.107  0.2428 -0.3165  0.1483
12620TIP3    H159351   3.607   1.383  11.162 -2.9948 -3.2713  1.8697
12620TIP3    H259352   3.626   1.343  11.017 -0.0034  1.6177  0.8036
12621TIP3   OH259353   3.250   5.399   3.240  0.2242  0.2604 -1.3678
12621TIP3    H159354   3.305   5.477   3.248 -1.2222  1.3770 -1.9609
12621TIP3    H259355   3.238   5.387   3.146  1.2742 -1.2861 -1.3036
12622TIP3   OH259356   4.864   2.071  12.055  0.3890 -0.5239 -0.1797
12622TIP3    H159357   4.927   2.114  12.112 -1.6228  0.8563  1.0717
12622TIP3    H259358   4.804   2.026  12.115 -1.8866  1.1359 -1.1383
12623TIP3   OH259359   3.669   2.399   3.456 -0.1256 -0.2647  0.3312
12623TIP3    H159360   3.604   2.355   3.511  0.4742 -2.9159 -1.0188
12623TIP3    H259361   3.671   2.349   3.375  1.8669  1.2056 -0.5837
12624TIP3   OH259362   1.430   1.385   4.591 -0.4377  0.4030 -0.1708
12624TIP3    H159363   1.492   1.353   4.656 -0.7949  1.6136  0.7897
12624TIP3    H259364   1.351   1.407   4.641 -0.5328  1.8455 -0.9263
12625TIP3   OH259365   0.206   0.118   1.895  0.0173 -0.1503  0.1260
12625TIP3    H159366   0.166   0.167   1.968  0.6951 -1.4297  1.3832
12625TIP3    H259367   0.271   0.179   1.859  0.3455  0.1598  1.2071
12626TIP3   OH259368   5.634   6.526   2.276 -0.1983  0.7155  0.2719
12626TIP3    H159369   5.576   6.572   2.215 -1.8525  0.2101  1.4387
12626TIP3    H259370   5.673   6.457   2.223  1.5415  2.7960 -1.2388
12627TIP3   OH259371   5.225   6.219  16.858  0.3565  0.2855  0.3595
12627TIP3    H159372   5.233   6.130  16.823  0.8030  0.1437  0.8185
12627TIP3    H259373   5.131   6.236  16.859  0.1163 -1.0052  2.3016
12628TIP3   OH259374   3.271   5.769   2.925  0.4689 -0.5300 -0.2715
12628TIP3    H159375   3.257   5.842   2.986  0.2864 -1.7070  1.1352
12628TIP3    H259376   3.243   5.802   2.840  1.6100  1.4647  0.0967
12629TIP3   OH259377   6.644   6.815   5.577  0.0381 -0.3539  0.0797
12629TIP3    H159378   6.549   6.826   5.577 -0.0550 -1.1512  0.5934
12629TIP3    H259379   6.659   6.729   5.539  0.6014  0.0889 -0.7233
12630TIP3   OH259380   1.272   5.308   2.269 -0.0755 -0.2554 -0.2075
12630TIP3    H159381   1.184   5.300   2.307  0.0165  2.0350  0.6144
12630TIP3    H259382   1.330   5.268   2.333 -0.3088  0.1568  0.2634
12631TIP3   OH259383   2.207   3.837   2.145 -0.0226 -0.2956 -0.1748
12631TIP3    H159384   2.123   3.834   2.191  0.7356 -0.2140  1.2435
12631TIP3    H259385   2.183   3.848   2.053 -1.5583 -0.0587  0.2320
12632TIP3   OH259386   1.515   0.465  13.814  0.3007 -0.8127 -0.2714
12632TIP3    H159387   1.497   0.558  13.800 -0.0677 -0.5563  1.7561
12632TIP3    H259388   1.439   0.420  13.778 -0.0224 -0.2708 -0.2749
12633TIP3   OH259389   2.046   4.516   4.805 -0.9566 -0.0755 -0.1829
12633TIP3    H159390   2.052   4.601   4.762  2.9426 -1.1773 -2.0530
12633TIP3    H259391   1.970   4.474   4.766 -0.6668  1.0627 -2.0071
12634TIP3   OH259392   0.573   4.242   3.176  0.6668  0.1691 -0.0889
12634TIP3    H159393   0.615   4.314   3.224  0.9520  0.0335 -0.1347
12634TIP3    H259394   0.551   4.280   3.091  2.0907 -0.1863 -0.6295
12635TIP3   OH259395   3.526   5.452  11.551 -0.5437  0.7904 -0.5279
12635TIP3    H159396   3.531   5.545  11.528 -2.1390  1.2949  1.0513
12635TIP3    H259397   3.615   5.419  11.535 -0.0228  2.5042 -1.3557
12636TIP3   OH259398   0.946   2.944  15.309 -0.3966  0.2763  0.1130
12636TIP3    H159399   0.915   2.928  15.220  0.6108  0.4659 -0.2753
12636TIP3    H259400   0.994   3.026  15.304  1.9948 -1.0722  0.2409
12637TIP3   OH259401   5.073   4.331  14.887  0.3579  0.0298  0.0301
12637TIP3    H159402   5.147   4.313  14.828  0.5422 -0.6492  0.4657
12637TIP3    H259403   5.062   4.250  14.936 -0.3018  0.3355  0.3827
12638TIP3   OH259404   2.024   6.693   4.839  0.1647 -0.2405 -0.1320
12638TIP3    H159405   1.987   6.623   4.892  0.8679 -0.7420 -0.3038
12638TIP3    H259406   2.104   6.718   4.885 -0.2402  0.6594  0.0948
12639TIP3   OH259407   3.440   5.014  15.919  0.5060  0.3280  0.0907
12639TIP3    H159408   3.412   4.944  15.977  0.6355  0.2523  0.0648
12639TIP3    H259409   3.535   5.000  15.910  0.1898 -0.8380 -1.6855
12640TIP3   OH259410   0.491   0.259  12.767 -0.5005 -0.1043 -0.1192
12640TIP3    H159411   0.496   0.333  12.706  0.4501 -0.2172 -0.1859
12640TIP3    H259412   0.463   0.185  12.713 -0.5605 -0.0008 -0.2304
12641TIP3   OH259413   1.640   5.922  13.663  0.0997 -0.2644 -0.0001
12641TIP3    H159414   1.606   5.919  13.752 -0.7652 -1.0147 -0.3439
12641TIP3    H259415   1.565   5.899  13.608  0.7608 -0.3442 -0.8808
12642TIP3   OH259416   5.875   4.957   6.292 -0.0012 -0.2568  0.0708
12642TIP3    H159417   5.832   4.985   6.372 -1.0006  0.3454 -0.6534
12642TIP3    H259418   5.920   4.877   6.315 -1.6403 -0.9898  0.8424
12643TIP3   OH259419   0.726   1.742   5.513  0.2780  0.2584  0.0745
12643TIP3    H159420   0.772   1.816   5.553  1.6916 -1.8981  2.6623
12643TIP3    H259421   0.645   1.734   5.564 -1.6532  2.2401 -2.5840
12644TIP3   OH259422   5.562   6.359  11.349 -0.0900  0.3390  0.1728
12644TIP3    H159423   5.490   6.359  11.412 -0.0927  1.2381  0.1780
12644TIP3    H259424   5.522   6.334  11.266 -0.6078  1.7854 -0.0341
12645TIP3   OH259425   0.160   5.697   4.075  0.2042  0.3234 -0.0461
12645TIP3    H159426   0.194   5.782   4.102 -2.3709  1.2407  0.4023
12645TIP3    H259427   0.171   5.641   4.151  0.1388  0.7743  0.2932
12646TIP3   OH259428   2.744   0.206   5.455 -0.5232 -0.1173  0.6249
12646TIP3    H159429   2.735   0.231   5.363 -0.1543 -0.3647  0.5172
12646TIP3    H259430   2.656   0.215   5.491 -0.7526 -0.3986  0.1467
12647TIP3   OH259431   6.140   6.698   1.131  0.0307  0.5611  0.4745
12647TIP3    H159432   6.071   6.668   1.190 -0.1013  2.0859  1.1228
12647TIP3    H259433   6.187   6.618   1.106 -2.0192 -0.4914 -0.0586
12648TIP3   OH259434   3.860   2.060  13.283 -0.7095 -0.2660  0.1123
12648TIP3    H159435   3.952   2.052  13.308 -0.5064  1.4461 -0.0814
12648TIP3    H259436   3.855   2.012  13.200  0.2340  0.5084 -0.4060
12649TIP3   OH259437   5.726   5.336  16.301  0.3318  0.0318 -0.6238
12649TIP3    H159438   5.750   5.348  16.392 -1.5757 -2.7897  0.3419
12649TIP3    H259439   5.799   5.288  16.263  0.9710  0.9016 -0.5081
12650TIP3   OH259440   1.237   6.728   2.711 -0.4966  0.1152 -0.7006
12650TIP3    H159441   1.314   6.761   2.666  0.1520  2.3563  1.9328
12650TIP3    H259442   1.247   6.633   2.709  1.9193  0.3499 -1.1391
12651TIP3   OH259443   1.443   0.290  16.204  0.1236 -0.2213 -0.1533
12651TIP3    H159444   1.363   0.247  16.176 -1.3699  1.7618  0.9335
12651TIP3    H259445   1.471   0.240  16.282 -0.9071  0.0057  0.3703
12652TIP3   OH259446   0.063   4.039   6.382  0.4816 -0.4663  0.5743
12652TIP3    H159447   0.124   4.112   6.372 -0.1929  0.0551  0.1551
12652TIP3    H259448   0.039   4.040   6.474 -0.0233  0.2634  0.4421
12653TIP3   OH259449   2.315   3.235   3.814 -0.6468 -0.9388  0.0741
12653TIP3    H159450   2.355   3.208   3.897  0.3677  0.3094  0.0092
12653TIP3    H259451   2.350   3.173   3.749  0.5018 -0.4187  0.1757
12654TIP3   OH259452   5.385   0.615   1.499 -0.2199 -0.4620  0.1924
12654TIP3    H159453   5.401   0.654   1.413  0.3168  0.1248  0.5549
12654TIP3    H259454   5.419   0.526   1.493  0.7490 -0.0875  0.1158
12655TIP3   OH259455   4.187   5.046   1.563  0.0991  0.0503 -0.3289
12655TIP3    H159456   4.233   5.117   1.518 -1.6605  0.6111 -1.3012
12655TIP3    H259457   4.238   4.968   1.542  1.2052  0.8057 -0.5045
12656TIP3   OH259458   4.567   1.610   5.521  0.4431 -0.1210  0.4705
12656TIP3    H159459   4.629   1.614   5.449 -1.0432  0.7319 -0.8077
12656TIP3    H259460   4.506   1.540   5.497 -1.7690  2.0854 -0.5666
12657TIP3   OH259461   2.302   4.677   0.881  0.0290  0.1560  0.3394
12657TIP3    H159462   2.331   4.723   0.802 -0.1120 -0.1787  0.0931
12657TIP3    H259463   2.207   4.687   0.881  0.0251  0.1176  0.4428
12658TIP3   OH259464   5.671   4.874   1.976  0.1122 -0.6235  0.0817
12658TIP3    H159465   5.707   4.955   2.012 -0.8274  0.0633 -0.5000
12658TIP3    H259466   5.576   4.881   1.989  0.1094 -2.0806  0.9282
12659TIP3   OH259467   0.151   0.448   6.542  0.8210 -0.5885 -0.0515
12659TIP3    H159468   0.158   0.519   6.606  0.1469  2.3182 -3.1372
12659TIP3    H259469   0.135   0.370   6.596  0.9596  1.6342  3.3711
12660TIP3   OH259470   1.979   6.019  12.167  0.1744  0.4348 -0.4479
12660TIP3    H159471   1.989   5.987  12.078  0.1811  1.3154 -0.7670
12660TIP3    H259472   1.969   6.114  12.158 -1.9140  0.3254  0.3183
12661TIP3   OH259473   3.734   6.076   5.498  0.0699  0.3785  0.0939
12661TIP3    H159474   3.796   6.094   5.568 -0.1580  1.5019  0.0293
12661TIP3    H259475   3.670   6.016   5.537  1.8966 -1.8388 -0.2435
12662TIP3   OH259476   3.945   2.441   2.095  0.7030 -0.1447 -0.1044
12662TIP3    H159477   3.981   2.415   2.180 -1.1480 -3.2634 -0.1947
12662TIP3    H259478   4.007   2.405   2.031  1.1752  0.6986 -0.1285
12663TIP3   OH259479   4.161   2.917  13.750 -0.0385  0.5174 -0.3192
12663TIP3    H159480   4.110   2.835  13.749 -0.3623  0.7043  0.7130
12663TIP3    H259481   4.248   2.890  13.780  0.2354  0.3499 -1.2253
12664TIP3   OH259482   3.312   5.182   3.585 -0.0530  0.3337  0.1621
12664TIP3    H159483   3.244   5.153   3.525 -0.3627  0.1473  0.5984
12664TIP3    H259484   3.394   5.168   3.538 -0.1766 -1.5662  0.4819
12665TIP3   OH259485   1.554   1.870   5.114 -0.4051  0.1308  0.3653
12665TIP3    H159486   1.594   1.783   5.117 -0.3898  0.1467  0.7053
12665TIP3    H259487   1.462   1.855   5.137 -0.5185  0.1392 -0.0777
12666TIP3   OH259488   4.037   4.037  11.731 -0.0029 -0.0539  0.7060
12666TIP3    H159489   4.096   4.112  11.726  0.4230 -0.4439 -0.3738
12666TIP3    H259490   3.949   4.074  11.730  0.2103  0.4393  0.5271
12667TIP3   OH259491   3.786   6.289  15.031  0.0810  0.5064 -0.1153
12667TIP3    H159492   3.701   6.246  15.039  1.0081 -1.3538 -0.1471
12667TIP3    H259493   3.784   6.328  14.943 -1.0846  1.2703  0.2356
12668TIP3   OH259494   2.383   0.428   1.271 -0.6364  0.3642  0.0212
12668TIP3    H159495   2.305   0.406   1.321 -0.4563 -1.7170 -0.5733
12668TIP3    H259496   2.352   0.439   1.181 -0.2553 -0.5025 -0.2223
12669TIP3   OH259497   4.490   3.821   5.752 -0.6298 -0.7391 -0.5929
12669TIP3    H159498   4.541   3.861   5.821 -2.2906  1.1038 -0.3994
12669TIP3    H259499   4.401   3.815   5.787 -1.3976 -0.2248 -2.3709
12670TIP3   OH259500   2.381   2.066   0.916 -0.1053 -0.1838  0.7967
12670TIP3    H159501   2.403   1.976   0.941 -0.2447 -0.6005 -0.5240
12670TIP3    H259502   2.338   2.102   0.994  1.5130 -0.6839  1.9406
12671TIP3   OH259503   3.633   3.770   2.347 -0.1694 -0.1360 -0.3301
12671TIP3    H159504   3.655   3.747   2.437  0.0977 -2.1999 -0.8971
12671TIP3    H259505   3.634   3.866   2.345  1.7429 -0.1107  1.3732
12672TIP3   OH259506   2.320   3.571  13.701  0.4210  0.2387 -0.4382
12672TIP3    H159507   2.325   3.645  13.762 -0.4012 -0.8341  0.9533
12672TIP3    H259508   2.289   3.610  13.620  1.3197  1.6561 -0.1247
12673TIP3   OH259509   6.679   0.899  15.599  0.5105 -0.4202 -0.7913
12673TIP3    H159510   6.664   0.933  15.687  2.5526 -0.5356 -0.3756
12673TIP3    H259511   6.686   0.804  15.610 -0.7772 -0.5946 -1.3240
12674TIP3   OH259512   3.538   5.984  16.619  0.0898  0.2851 -0.5118
12674TIP3    H159513   3.447   6.013  16.622 -0.2450 -0.6242 -1.5790
12674TIP3    H259514   3.588   6.064  16.601 -0.4447  0.8659  0.5342
12675TIP3   OH259515   0.116   0.558  12.990 -0.2096  0.2970  0.2121
12675TIP3    H159516   0.039   0.501  12.993 -0.0608  0.0826  0.0189
12675TIP3    H259517   0.190   0.499  13.001 -0.0667  0.4839  0.2504
12676TIP3   OH259518   2.179   0.091   5.043  0.3775  0.0625  0.3957
12676TIP3    H159519   2.273   0.080   5.025 -0.0977  0.8931 -2.8155
12676TIP3    H259520   2.174   0.173   5.092  1.2257  0.6161 -0.4184
12677TIP3   OH259521   4.264   4.654  11.322 -0.0358  0.4127 -0.0071
12677TIP3    H159522   4.207   4.598  11.269 -1.0525  0.3002  1.1726
12677TIP3    H259523   4.275   4.734  11.269 -1.6258  0.5997 -0.0821
12678TIP3   OH259524   5.029   4.369   3.756  0.3055  0.3047  0.5459
12678TIP3    H159525   4.980   4.445   3.787  1.0001  0.7918  0.4464
12678TIP3    H259526   5.120   4.389   3.777  0.7249  0.3898 -1.3097
12679TIP3   OH259527   4.399   3.919   2.946 -0.0567 -0.4552 -0.3314
12679TIP3    H159528   4.455   3.865   2.891  1.5346 -2.4442  3.0640
12679TIP3    H259529   4.315   3.875   2.946  0.0407 -0.6471 -0.8527
12680TIP3   OH259530   2.113   2.428   1.030  0.1919 -0.6127  0.4322
12680TIP3    H159531   2.126   2.499   0.967 -0.4970 -0.5181  0.3880
12680TIP3    H259532   2.117   2.472   1.116 -0.6670 -0.4378  0.3928
12681TIP3   OH259533   4.033   3.309   1.277 -0.0362  0.3388  0.4341
12681TIP3    H159534   4.031   3.404   1.282  1.4458  0.3293  1.1685
12681TIP3    H259535   4.046   3.280   1.367  1.2579 -0.5033 -0.0156
12682TIP3   OH259536   5.790   4.062  13.498  0.5101 -0.5836  0.3542
12682TIP3    H159537   5.703   4.102  13.506  0.5942 -0.3505  0.0731
12682TIP3    H259538   5.849   4.134  13.478  0.9154 -0.6148  1.4300
12683TIP3   OH259539   2.200   5.887  14.350 -0.0330 -0.5806 -0.0224
12683TIP3    H159540   2.186   5.793  14.346 -1.5432 -0.2720 -3.2947
12683TIP3    H259541   2.227   5.911  14.262  2.3030  1.7987  1.2576
12684TIP3   OH259542   2.731   5.756  13.022 -0.3076  0.3315  0.6077
12684TIP3    H159543   2.761   5.841  13.055 -0.7100  1.7283 -2.4041
12684TIP3    H259544   2.784   5.692  13.068  3.0788  2.4503 -0.1397
12685TIP3   OH259545   2.175   4.571   3.804 -0.6178  0.1794  0.4234
12685TIP3    H159546   2.154   4.480   3.822  0.9347 -0.3009 -0.0958
12685TIP3    H259547   2.171   4.615   3.889 -1.1963 -0.4092  0.6998
12686TIP3   OH259548   6.139   1.353   4.388 -0.0547 -0.2622 -0.2596
12686TIP3    H159549   6.228   1.388   4.378 -0.3168  0.6418  0.5407
12686TIP3    H259550   6.152   1.259   4.400  0.8332 -0.0456  0.5085
12687TIP3   OH259551   4.936   5.914  14.516 -0.8250 -0.2899  0.0639
12687TIP3    H159552   4.865   5.970  14.486 -0.9652  0.1235  1.1462
12687TIP3    H259553   5.010   5.974  14.530 -0.6569 -0.5289  0.2011
12688TIP3   OH259554   4.899   5.524  11.803 -0.0428 -0.5511 -0.3885
12688TIP3    H159555   4.921   5.592  11.867 -0.6456  1.5476 -2.3297
12688TIP3    H259556   4.978   5.471  11.796  0.7498  0.4801  0.5199
12689TIP3   OH259557   0.470   1.526  15.012  0.0520  0.3103  0.3495
12689TIP3    H159558   0.450   1.445  14.965 -0.5916 -0.1147  1.3364
12689TIP3    H259559   0.461   1.503  15.105  1.7498  1.0057  0.7187
12690TIP3   OH259560   0.270   2.221   0.877  0.2397  0.1274  0.0208
12690TIP3    H159561   0.355   2.196   0.915 -0.8671  0.0996  2.6202
12690TIP3    H259562   0.206   2.185   0.938 -1.6759 -0.4064 -2.2672
12691TIP3   OH259563   3.071   6.568  16.396 -0.5530  0.3915 -0.4844
12691TIP3    H159564   3.007   6.639  16.388  2.8330  3.7790  1.0194
12691TIP3    H259565   3.147   6.599  16.347  0.6483 -2.7500 -0.7067
12692TIP3   OH259566   1.580   4.734  15.379  0.7068 -0.2883 -0.7018
12692TIP3    H159567   1.625   4.657  15.414 -0.9889 -0.2466  1.7151
12692TIP3    H259568   1.585   4.799  15.450  0.1080  1.0246 -1.8348
12693TIP3   OH259569   3.560   2.546  12.130  0.4981 -0.2286  0.4970
12693TIP3    H159570   3.590   2.497  12.207 -1.5128 -1.4233  0.5315
12693TIP3    H259571   3.468   2.565  12.148  1.1163  3.2405  0.3078
12694TIP3   OH259572   2.546   3.865  13.239  0.5829 -0.4599  0.0681
12694TIP3    H159573   2.503   3.830  13.317  1.0884 -2.4052 -0.4855
12694TIP3    H259574   2.602   3.793  13.208  2.3477  1.1512 -0.6226
12695TIP3   OH259575   4.175   4.426   2.271  0.0554 -0.1881  0.2054
12695TIP3    H159576   4.132   4.490   2.213  0.2076 -0.1732  0.1081
12695TIP3    H259577   4.116   4.351   2.271 -1.5307  1.0080  2.5434
12696TIP3   OH259578   2.217   0.536   3.558 -0.1419  0.3377 -0.0523
12696TIP3    H159579   2.284   0.488   3.509 -0.7535 -0.2908 -0.2837
12696TIP3    H259580   2.195   0.479   3.632  0.6371  1.1972  0.8639
12697TIP3   OH259581   4.741   3.274  11.674  0.1897 -0.2141  0.1115
12697TIP3    H159582   4.653   3.301  11.646 -0.0490  0.4727  1.5027
12697TIP3    H259583   4.729   3.186  11.710  0.3744 -0.8084 -1.2519
12698TIP3   OH259584   5.907   4.510  12.208  0.5853 -0.0951 -0.2501
12698TIP3    H159585   5.955   4.589  12.183 -0.2745  0.4980 -0.0355
12698TIP3    H259586   5.836   4.542  12.264  0.1276 -1.0031 -0.3120
12699TIP3   OH259587   2.630   0.834   5.203  0.2664  0.2311 -0.0548
12699TIP3    H159588   2.539   0.805   5.216 -0.2187  0.9034 -1.7722
12699TIP3    H259589   2.642   0.903   5.268 -1.0124  1.3028 -0.9377
12700TIP3   OH259590   5.353   3.971  11.576 -0.0732  0.0218 -0.0931
12700TIP3    H159591   5.290   3.978  11.648 -1.0988 -2.9098 -0.6489
12700TIP3    H259592   5.431   4.016  11.608 -1.3599  0.9792  1.8393
12701TIP3   OH259593   2.617   2.519  11.165  0.8478 -0.2578  0.1987
12701TIP3    H159594   2.640   2.461  11.238 -1.2868 -2.0597 -0.5039
12701TIP3    H259595   2.557   2.584  11.204 -0.3379 -1.2540  0.0713
12702TIP3   OH259596   6.432   3.630  15.915 -0.1368 -0.4578  0.3470
12702TIP3    H159597   6.464   3.570  15.847 -0.8746 -0.2239 -0.2261
12702TIP3    H259598   6.405   3.708  15.866 -0.6539 -0.2779  0.9133
12703TIP3   OH259599   4.366   4.213  15.077  0.3281 -0.6793  0.3119
12703TIP3    H159600   4.407   4.148  15.019  0.9631 -0.2776  0.3043
12703TIP3    H259601   4.333   4.280  15.018  2.9914  0.8834  0.5020
12704TIP3   OH259602   5.991   0.820  14.175 -0.4344  0.2737 -0.4053
12704TIP3    H159603   5.896   0.835  14.171 -0.2512  1.1202 -2.1076
12704TIP3    H259604   6.007   0.757  14.104  0.6092  2.0849 -1.8281
12705TIP3   OH259605   6.755   5.874   1.337  0.1055  0.5995 -0.2155
12705TIP3    H159606   6.730   5.933   1.266 -2.1410  0.9823  0.8598
12705TIP3    H259607   6.679   5.873   1.396  1.6333 -0.2829  1.8103
12706TIP3   OH259608   4.351   5.933   4.026 -0.1938 -0.0333  0.5425
12706TIP3    H159609   4.313   5.868   4.085  0.3144 -0.3736  0.5003
12706TIP3    H259610   4.418   5.976   4.079  1.0416 -1.0995 -0.1003
12707TIP3   OH259611   3.466   6.715  10.727  0.1316 -0.4748 -0.1692
12707TIP3    H159612   3.538   6.743  10.669  0.7772 -2.9224 -0.5924
12707TIP3    H259613   3.397   6.686  10.668 -0.9341  1.1345  0.2558
12708TIP3   OH259614   1.799   0.774  14.843  0.8326 -0.3982 -0.4467
12708TIP3    H159615   1.882   0.726  14.847  0.9801 -0.1513 -0.5181
12708TIP3    H259616   1.806   0.828  14.764  1.6819  1.5900  0.9676
12709TIP3   OH259617   1.662   4.597   4.461  0.9234  0.2404  0.0907
12709TIP3    H159618   1.674   4.680   4.415 -0.7919 -0.2685 -1.3556
12709TIP3    H259619   1.613   4.619   4.540 -0.5603  0.4659 -0.8793
12710TIP3   OH259620   0.550   4.954  16.230 -0.1075  0.4480  0.6919
12710TIP3    H159621   0.608   5.020  16.269 -0.7002  1.0948  0.4833
12710TIP3    H259622   0.551   4.882  16.293 -0.6508  1.2803  1.6718
12711TIP3   OH259623   6.158   0.354  14.296 -0.6107  0.2212 -0.0947
12711TIP3    H159624   6.105   0.288  14.341 -0.1054 -0.3326 -0.3006
12711TIP3    H259625   6.164   0.426  14.358 -0.3770 -0.3144  0.5061
12712TIP3   OH259626   6.007   5.752   3.198  0.3385  0.1090  0.1108
12712TIP3    H159627   5.968   5.836   3.222 -1.3240 -0.4893 -0.4416
12712TIP3    H259628   6.100   5.772   3.186  0.0553  1.7596  0.4738
12713TIP3   OH259629   3.858   4.687  13.516  0.2188 -0.0627  0.1275
12713TIP3    H159630   3.905   4.604  13.520 -1.2380 -0.9850 -1.2196
12713TIP3    H259631   3.791   4.680  13.585 -0.6791 -0.5273 -0.7718
12714TIP3   OH259632   4.371   3.755  16.387 -0.4838  0.2920  0.1728
12714TIP3    H159633   4.359   3.669  16.348 -2.5961  0.3666  0.6114
12714TIP3    H259634   4.436   3.742  16.457  0.6756 -0.5268 -1.0536
12715TIP3   OH259635   5.026   1.810  12.171 -0.5021  0.0513  0.1757
12715TIP3    H159636   5.035   1.891  12.221 -2.8424  1.8983 -2.2465
12715TIP3    H259637   5.113   1.795  12.135  0.1113  1.1793  1.1457
12716TIP3   OH259638   2.359   5.239  14.279  0.1449 -0.2498 -0.4303
12716TIP3    H159639   2.280   5.210  14.322  1.0697 -0.5955  1.0635
12716TIP3    H259640   2.377   5.325  14.316  0.2476  0.0036 -1.0559
12717TIP3   OH259641   3.800   6.697  16.750 -0.5862 -0.1965 -0.2452
12717TIP3    H159642   3.794   6.775  16.695  0.6580 -1.0349 -1.5820
12717TIP3    H259643   3.893   6.681  16.759 -0.7754 -0.2473  1.8980
12718TIP3   OH259644   3.968   3.493   5.800 -0.1112 -0.6007 -0.3773
12718TIP3    H159645   3.888   3.531   5.765  0.5972 -0.1571 -1.5860
12718TIP3    H259646   3.941   3.413   5.844 -1.0106 -1.4501 -2.4039
12719TIP3   OH259647   3.453   3.460   1.844 -0.5184  0.2419  0.1027
12719TIP3    H159648   3.546   3.449   1.861 -0.0918  2.8979 -0.3307
12719TIP3    H259649   3.410   3.405   1.910  1.3319 -0.5181  0.7112
12720TIP3   OH259650   2.363   0.514  11.155 -0.2910  0.0493  0.4399
12720TIP3    H159651   2.438   0.455  11.150  1.4753  2.1360  1.0646
12720TIP3    H259652   2.383   0.570  11.231 -0.9774  2.5954 -1.1908
12721TIP3   OH259653   1.258   2.370   0.859 -0.1444  0.3525  0.4708
12721TIP3    H159654   1.241   2.409   0.945  0.7403 -1.1576  1.3519
12721TIP3    H259655   1.353   2.357   0.858  0.0057  1.4282 -1.2142
12722TIP3   OH259656   3.425   3.169  15.575 -0.1561  0.0403 -0.0190
12722TIP3    H159657   3.459   3.114  15.646  0.8453  1.4363  0.5987
12722TIP3    H259658   3.467   3.135  15.496 -0.0874 -0.5365  0.2626
12723TIP3   OH259659   6.460   4.386   2.348  1.0691  0.4915  0.9318
12723TIP3    H159660   6.453   4.296   2.316  0.7522  0.9256 -0.2479
12723TIP3    H259661   6.491   4.377   2.438 -0.0220 -0.8503  1.2033
12724TIP3   OH259662   4.011   3.364   3.606  0.1321 -0.6484  0.1049
12724TIP3    H159663   3.955   3.292   3.636  2.6235 -2.5723  0.2544
12724TIP3    H259664   4.003   3.362   3.510 -1.5172  0.3247  0.2030
12725TIP3   OH259665   3.059   4.622  11.379  0.3119 -0.1034  0.5647
12725TIP3    H159666   3.143   4.597  11.341  0.1241  1.9970 -1.3464
12725TIP3    H259667   3.080   4.690  11.444  0.0656  0.9116 -0.3960
12726TIP3   OH259668   5.816   4.237   2.797 -0.8421 -0.2005  0.4431
12726TIP3    H159669   5.853   4.258   2.711 -0.7835  2.4650  1.0750
12726TIP3    H259670   5.892   4.229   2.855 -0.9645 -0.1524  0.6137
12727TIP3   OH259671   3.816   1.092  11.418  0.0562  0.0584 -0.3117
12727TIP3    H159672   3.905   1.066  11.440 -0.2675 -1.6469 -0.8923
12727TIP3    H259673   3.827   1.159  11.350  0.8934  0.0665 -0.1795
12728TIP3   OH259674   1.216   6.563   5.530  0.4243  0.1977  0.3635
12728TIP3    H159675   1.287   6.576   5.468  0.5492  0.8286  0.6286
12728TIP3    H259676   1.155   6.634   5.511 -0.7586 -1.0949 -0.7157
12729TIP3   OH259677   4.909   5.981  13.278 -0.4293 -0.1157  0.1176
12729TIP3    H159678   4.822   6.019  13.269 -0.9204 -0.5917  2.4060
12729TIP3    H259679   4.911   5.948  13.368  0.7252 -3.5576 -1.0736
12730TIP3   OH259680   3.495   4.288   1.206 -0.0726  0.1485  0.1970
12730TIP3    H159681   3.496   4.331   1.120 -0.4907  0.6525  0.4385
12730TIP3    H259682   3.527   4.355   1.266  0.1677 -0.1873  0.4441
12731TIP3   OH259683   4.147   1.419   3.739  0.0304 -0.4950  0.3614
12731TIP3    H159684   4.074   1.415   3.677  0.3483 -1.1149  0.0153
12731TIP3    H259685   4.126   1.355   3.806  0.8538 -1.6110 -0.4172
12732TIP3   OH259686   2.279   1.162  16.245  0.5455 -0.5600 -0.3545
12732TIP3    H159687   2.373   1.148  16.248  0.5127 -0.5725  0.8734
12732TIP3    H259688   2.267   1.245  16.199  1.2841  0.6780  1.6472
12733TIP3   OH259689   2.227   4.283   0.697  0.7617 -0.1075 -0.0044
12733TIP3    H159690   2.131   4.285   0.703  0.6831 -2.1882 -0.0952
12733TIP3    H259691   2.257   4.292   0.787  0.5302  1.6244 -0.0807
12734TIP3   OH259692   4.170   4.727  15.124  0.6814 -0.2208 -0.3720
12734TIP3    H159693   4.173   4.652  15.064  0.2347 -1.3896  1.0401
12734TIP3    H259694   4.261   4.756  15.130  0.8393 -0.5771 -1.0181
12735TIP3   OH259695   4.647   4.621  13.241 -0.3504 -0.0520 -0.6705
12735TIP3    H159696   4.573   4.602  13.183 -1.1571 -0.0274  0.3459
12735TIP3    H259697   4.606   4.646  13.324  0.7477  1.8965 -0.6824
12736TIP3   OH259698   3.088   1.111  12.734 -0.1766  0.4386  0.4164
12736TIP3    H159699   2.996   1.125  12.713 -0.5803 -0.8989  1.2666
12736TIP3    H259700   3.088   1.048  12.806  1.4265 -0.1748 -0.0861
12737TIP3   OH259701   6.453   3.961  14.794  0.0551  0.3063 -0.0100
12737TIP3    H159702   6.415   4.038  14.752  0.6880  0.1894 -0.8063
12737TIP3    H259703   6.542   3.956  14.760  0.4616 -0.0105  1.0659
12738TIP3   OH259704   3.177   5.250   5.744 -0.1576 -0.2903  0.0482
12738TIP3    H159705   3.192   5.309   5.670  3.4729  0.9716  1.6894
12738TIP3    H259706   3.160   5.309   5.818  1.3550 -1.3479  1.2528
12739TIP3   OH259707   0.531   1.229   5.611  0.1355  0.5912 -0.3810
12739TIP3    H159708   0.539   1.324   5.614  0.7410  0.5437 -0.3336
12739TIP3    H259709   0.453   1.209   5.662  0.3133  1.0262  0.0652
12740TIP3   OH259710   3.749   3.928   5.061 -0.2383  0.0626 -0.5176
12740TIP3    H159711   3.715   3.980   4.988  0.4722  0.5961 -0.4672
12740TIP3    H259712   3.732   3.837   5.036 -1.0782  0.2890 -0.8062
12741TIP3   OH259713   6.185   6.607   4.725  0.1781 -0.2686 -0.4396
12741TIP3    H159714   6.124   6.543   4.688  1.1255 -0.2694 -2.0384
12741TIP3    H259715   6.167   6.605   4.819 -2.2489 -0.3184 -0.8490
12742TIP3   OH259716   0.597   3.250  11.947  0.6463  0.2292 -0.6846
12742TIP3    H159717   0.627   3.277  12.034 -0.1193  1.1264 -0.6970
12742TIP3    H259718   0.675   3.256  11.892  0.8908  0.6840 -0.2933
12743TIP3   OH259719   5.157   0.373   5.175  0.1288  0.3749 -0.6569
12743TIP3    H159720   5.064   0.362   5.194  0.0333  1.4135 -0.5350
12743TIP3    H259721   5.201   0.355   5.258 -0.0951  1.9325 -0.2003
12744TIP3   OH259722   2.034   5.932   5.728  0.2178 -0.5340  0.2154
12744TIP3    H159723   2.010   5.987   5.653  1.4239 -1.4694 -0.8763
12744TIP3    H259724   2.002   5.845   5.705  0.8186 -0.8828  0.6777
12745TIP3   OH259725   1.003   4.503   5.208 -0.1090  0.0931 -0.0788
12745TIP3    H159726   0.942   4.474   5.140 -0.1304  0.2067 -0.1095
12745TIP3    H259727   1.039   4.585   5.174  1.3389 -0.8377 -0.8214
12746TIP3   OH259728   4.224   1.273  12.412  0.4037  0.2824  0.0285
12746TIP3    H159729   4.284   1.287  12.340 -0.1026  0.0704 -0.4369
12746TIP3    H259730   4.137   1.280  12.373  0.0940  2.5196  1.0427
12747TIP3   OH259731   2.799   6.064  13.622  0.1344 -0.0769 -1.0236
12747TIP3    H159732   2.838   5.990  13.668 -0.7994  0.4774  0.7481
12747TIP3    H259733   2.860   6.136  13.636 -0.2523  0.1459 -0.4367
12748TIP3   OH259734   0.369   4.266  15.215 -0.2844 -0.0060  0.0357
12748TIP3    H159735   0.327   4.352  15.219 -1.3721 -0.5434  0.6552
12748TIP3    H259736   0.454   4.282  15.174 -1.1190  1.1203 -1.3116
12749TIP3   OH259737   2.411   5.945  13.041 -0.5913 -0.3232  0.3624
12749TIP3    H159738   2.350   5.898  12.984  0.3313 -2.7662  1.3085
12749TIP3    H259739   2.498   5.916  13.011  0.0648  1.8086  0.1320
12750TIP3   OH259740   1.893   5.737   3.425  0.1736 -0.0285  0.1279
12750TIP3    H159741   1.862   5.656   3.466 -0.2574 -0.4901 -1.0642
12750TIP3    H259742   1.814   5.778   3.391  0.7007 -0.5896 -1.8518
12751TIP3   OH259743   6.687   1.635   3.802 -0.2027  0.6865  0.5162
12751TIP3    H159744   6.708   1.569   3.869  1.7773  1.5087  0.7463
12751TIP3    H259745   6.622   1.592   3.746 -1.0650 -0.4159  2.3162
12752TIP3   OH259746   2.564   5.866   1.243 -0.6818 -0.6597 -0.3740
12752TIP3    H159747   2.595   5.905   1.324 -0.0880  1.6240 -1.6443
12752TIP3    H259748   2.582   5.772   1.252  3.1653  0.0761  0.4925
12753TIP3   OH259749   3.674   6.240   0.071  0.1892  0.0805  0.2958
12753TIP3    H159750   3.731   6.185   0.125 -0.8621  0.5727  1.9604
12753TIP3    H259751   3.645   6.183   0.000  1.0310 -0.7950  0.6482
12754TIP3   OH259752   4.332   1.702   0.803  0.6161  0.1182  0.5779
12754TIP3    H159753   4.260   1.764   0.811  0.4273 -0.1379  0.8767
12754TIP3    H259754   4.371   1.720   0.717  0.8524  0.9648  0.8571
12755TIP3   OH259755   6.600   4.884  13.306 -0.0091  0.4230 -0.2017
12755TIP3    H159756   6.513   4.856  13.332  0.1745 -0.3038 -0.3490
12755TIP3    H259757   6.588   4.926  13.221 -0.0696 -0.6290 -0.7190
12756TIP3   OH259758   4.686   4.184  16.264 -0.0247 -0.3729  0.0727
12756TIP3    H159759   4.708   4.100  16.225 -0.2366 -0.4996  0.2217
12756TIP3    H259760   4.651   4.162  16.351  1.5768 -0.0292  0.8293
12757TIP3   OH259761   4.201   1.200  17.046  0.0795 -0.3814  0.3201
12757TIP3    H159762   4.246   1.252  17.113  1.7810 -1.4755  0.0420
12757TIP3    H259763   4.139   1.146  17.096  0.0328  0.1307  0.8290
12758TIP3   OH259764   1.974   2.764  12.292  0.4443  0.3388 -0.0603
12758TIP3    H159765   1.966   2.768  12.387 -1.3140  2.0049 -0.2432
12758TIP3    H259766   1.883   2.762  12.260  1.0179 -1.0976 -1.6775
12759TIP3   OH259767   3.133   1.459   0.253 -0.1134 -0.5184 -0.4971
12759TIP3    H159768   3.127   1.555   0.246  0.4472 -0.2399  2.2481
12759TIP3    H259769   3.091   1.427   0.173 -2.0650  1.9844 -0.5619
12760TIP3   OH259770   0.615   3.058  10.634  0.9568  0.0074  0.1098
12760TIP3    H159771   0.611   3.142  10.680  0.1864  0.9613 -1.6301
12760TIP3    H259772   0.564   2.998  10.688  1.9655  0.5132  1.6525
12761TIP3   OH259773   1.499   0.577  10.892  0.0654  0.2511  0.1060
12761TIP3    H159774   1.569   0.561  10.829  0.4161  0.1345  0.5210
12761TIP3    H259775   1.452   0.653  10.858 -1.3963 -1.4336 -1.7102
12762TIP3   OH259776   5.179   0.695   2.117  0.0455 -0.2430 -0.0999
12762TIP3    H159777   5.137   0.754   2.180 -1.0596 -1.5311  0.3956
12762TIP3    H259778   5.107   0.666   2.061  0.4407 -1.6708  0.1155
12763TIP3   OH259779   4.021   6.244   3.663 -0.1388 -0.4794 -0.4535
12763TIP3    H159780   4.085   6.232   3.733 -0.0584  1.6765 -0.1198
12763TIP3    H259781   4.003   6.156   3.632  1.3341 -1.3032  0.9348
12764TIP3   OH259782   0.175   4.514  11.645  0.4955  0.2949  0.2428
12764TIP3    H159783   0.213   4.601  11.635 -0.9652  0.9009 -0.3672
12764TIP3    H259784   0.089   4.530  11.685 -0.1146 -0.7638 -0.5867
12765TIP3   OH259785   3.664   1.074  16.358  0.1006  0.0458  0.2670
12765TIP3    H159786   3.672   1.132  16.434 -0.5776 -1.5652  1.5829
12765TIP3    H259787   3.736   1.101  16.301  0.1736  1.7653  1.1372
12766TIP3   OH259788   1.169   2.804  11.027  0.0835 -0.5152  0.4760
12766TIP3    H159789   1.141   2.713  11.016 -1.0899 -0.1008 -0.0700
12766TIP3    H259790   1.264   2.799  11.038  0.2600 -1.6445 -1.4254
12767TIP3   OH259791   0.421   1.014   5.013  0.1909 -0.0074  0.0933
12767TIP3    H159792   0.484   0.959   5.061 -0.2957 -0.2014  0.5120
12767TIP3    H259793   0.454   1.014   4.923  1.2228  0.5154  0.4552
12768TIP3   OH259794   3.891   0.355   3.106 -0.4115 -0.1906  0.0973
12768TIP3    H159795   3.972   0.372   3.059 -1.0971 -1.4008 -1.5624
12768TIP3    H259796   3.873   0.436   3.154  0.1634  1.1767 -1.9400
12769TIP3   OH259797   0.199   3.112   0.589 -0.2927  0.3659  0.3600
12769TIP3    H159798   0.199   3.159   0.506 -1.1399  0.8570  0.6268
12769TIP3    H259799   0.170   3.023   0.566 -1.0038  0.6341  0.1916
12770TIP3   OH259800   0.212   3.275   5.340  0.1271  0.1011 -0.6052
12770TIP3    H159801   0.175   3.193   5.372  1.2943  0.0413  0.6393
12770TIP3    H259802   0.307   3.263   5.349  0.2580  2.4782  1.9177
12771TIP3   OH259803   0.283   0.221  16.317 -0.2349 -0.0979  0.1505
12771TIP3    H159804   0.281   0.310  16.281  0.3792 -0.2519 -0.2626
12771TIP3    H259805   0.332   0.170  16.253 -0.4467 -0.7017  0.4696
12772TIP3   OH259806   2.568   4.413   0.177  0.2517  0.8054  0.1235
12772TIP3    H159807   2.579   4.392   0.084  0.1283  0.6813  0.1368
12772TIP3    H259808   2.613   4.342   0.223 -1.4339 -0.2290  0.1982
12773TIP3   OH259809   4.677   2.639   4.588  0.8016 -0.8406  0.2917
12773TIP3    H159810   4.615   2.575   4.554 -1.3095  0.3536  1.8258
12773TIP3    H259811   4.742   2.587   4.635  0.9410 -2.0932 -1.2459
12774TIP3   OH259812   3.064   0.980  15.121 -0.0986 -0.4656  0.0226
12774TIP3    H159813   3.130   0.923  15.162  2.1761  2.2830  0.2977
12774TIP3    H259814   3.036   1.038  15.192 -0.0840  0.8068 -1.0085
12775TIP3   OH259815   1.179   6.607   0.473  0.1166  0.0556 -0.3148
12775TIP3    H159816   1.164   6.562   0.390 -0.7268 -0.1092 -0.0777
12775TIP3    H259817   1.214   6.693   0.448  1.7039 -0.6992 -0.7697
12776TIP3   OH259818   2.890   3.596   3.570 -0.2789  0.7864  0.1015
12776TIP3    H159819   2.884   3.505   3.543  1.2978  0.0548  2.1092
12776TIP3    H259820   2.884   3.646   3.489  0.2426 -1.1684 -1.1577
12777TIP3   OH259821   5.280   5.022  15.035 -0.2875 -0.3898 -0.3143
12777TIP3    H159822   5.255   4.930  15.045  0.7485 -0.7223 -0.7256
12777TIP3    H259823   5.288   5.034  14.940 -0.4804  0.1459 -0.2639
12778TIP3   OH259824   4.553   0.187  14.991 -0.3057 -0.0664 -0.0244
12778TIP3    H159825   4.522   0.112  14.941  4.5996 -1.0851 -1.8315
12778TIP3    H259826   4.543   0.261  14.931 -1.5856  0.1124  0.3824
12779TIP3   OH259827   3.285   1.401  15.908  0.0912  0.2910 -0.3523
12779TIP3    H159828   3.323   1.400  15.996 -0.0060  1.4142 -0.2928
12779TIP3    H259829   3.360   1.407  15.849  0.1135  0.3586 -0.3164
12780TIP3   OH259830   5.142   4.393   5.131  0.5021  0.0889 -0.6605
12780TIP3    H159831   5.159   4.354   5.045  1.1632 -0.4474 -0.2924
12780TIP3    H259832   5.139   4.318   5.191  0.1869  0.4732 -0.1962
12781TIP3   OH259833   2.553   2.220   6.484  0.2920 -0.1106 -0.0221
12781TIP3    H159834   2.506   2.182   6.557  0.1427 -1.0326 -0.5940
12781TIP3    H259835   2.613   2.283   6.524 -0.7144  0.3522  0.7857
12782TIP3   OH259836   1.788   1.201  12.643 -0.2184  0.0706  0.2319
12782TIP3    H159837   1.831   1.271  12.693  0.3973  0.7746 -1.2645
12782TIP3    H259838   1.857   1.166  12.587 -1.2639  0.3233 -1.2265
12783TIP3   OH259839   6.197   6.194  16.511 -0.1172  0.4502  0.0038
12783TIP3    H159840   6.268   6.131  16.523 -0.2546  0.0510 -1.2086
12783TIP3    H259841   6.128   6.145  16.466 -1.3690  0.7051  1.5880
12784TIP3   OH259842   5.084   3.909  10.652 -0.8856 -0.5131  0.2213
12784TIP3    H159843   5.022   3.877  10.717 -0.9928 -0.2649  0.2425
12784TIP3    H259844   5.045   3.885  10.568  0.0590 -2.3138  0.2753
12785TIP3   OH259845   0.874   5.928  14.454 -0.4051  0.4588  0.0069
12785TIP3    H159846   0.832   5.844  14.435  0.0214  0.3063 -0.2903
12785TIP3    H259847   0.849   5.948  14.544  0.8571 -0.8242  0.6736
12786TIP3   OH259848   4.929   5.048  16.613  0.0116 -0.1649 -0.4688
12786TIP3    H159849   5.013   5.011  16.588 -0.1504 -2.1603  1.7693
12786TIP3    H259850   4.868   5.016  16.547  0.5232 -0.9603 -0.5592
12787TIP3   OH259851   1.294   2.057   0.049  0.5661  0.2532  0.1266
12787TIP3    H159852   1.290   1.965   0.074  0.6280 -0.0591 -0.9912
12787TIP3    H259853   1.372   2.090   0.093  0.5445 -0.2244  0.5299
12788TIP3   OH259854   5.483   1.868  14.064 -0.1981  0.1541  0.3392
12788TIP3    H159855   5.492   1.791  14.121 -0.2055 -0.7780 -0.8877
12788TIP3    H259856   5.570   1.907  14.062  0.4368 -1.2956 -1.0541
12789TIP3   OH259857   4.000   6.416   1.648  0.6245 -0.2758  0.3247
12789TIP3    H159858   4.002   6.475   1.573  0.4456 -0.1413  0.4268
12789TIP3    H259859   3.926   6.446   1.701  1.9545  0.8458  1.5667
12790TIP3   OH259860   3.229   2.928  11.763 -0.2705 -0.4609  0.0568
12790TIP3    H159861   3.282   2.960  11.689  1.3204 -0.7358  1.0618
12790TIP3    H259862   3.287   2.934  11.839 -1.2644 -1.9942  0.9614
12791TIP3   OH259863   5.067   1.048  15.660 -0.0446 -0.4571  0.1044
12791TIP3    H159864   4.974   1.034  15.642  0.1233  0.1976 -1.3958
12791TIP3    H259865   5.084   1.137  15.628  0.4715  0.5170  2.9400
12792TIP3   OH259866   0.478   0.969   3.950  0.1035  0.2940  0.3589
12792TIP3    H159867   0.447   1.059   3.963 -1.0323  0.1314 -1.1268
12792TIP3    H259868   0.502   0.965   3.858 -1.2115 -1.3188  0.0671
12793TIP3   OH259869   4.867   1.970   4.015  0.3041 -0.2653  0.0859
12793TIP3    H159870   4.951   1.943   4.053  1.5257 -0.5982 -2.6790
12793TIP3    H259871   4.807   1.900   4.038  1.0667 -0.5777  1.1739
12794TIP3   OH259872   6.383   1.802   3.485  0.6071 -0.2840 -0.7162
12794TIP3    H159873   6.344   1.861   3.550  1.3608 -1.7013  1.0686
12794TIP3    H259874   6.310   1.748   3.456  0.7362 -1.4180  0.9562
12795TIP3   OH259875   4.920   0.189   3.963  0.1779 -0.1837 -0.3809
12795TIP3    H159876   4.994   0.131   3.980 -0.0530 -0.2192  0.5626
12795TIP3    H259877   4.843   0.134   3.976 -0.0605  0.5679  1.5137
12796TIP3   OH259878   3.987   6.263   3.316 -0.6026  0.2188  0.2370
12796TIP3    H159879   3.916   6.321   3.291 -0.2970  0.0586 -1.0863
12796TIP3    H259880   4.063   6.321   3.326 -0.8808  0.3684  1.4817
12797TIP3   OH259881   1.969   1.054  12.475 -0.8433  0.2734  0.5359
12797TIP3    H159882   2.051   1.102  12.461 -0.6422 -0.1492  0.2698
12797TIP3    H259883   1.980   0.973  12.427 -1.0382 -0.2162  1.3102
12798TIP3   OH259884   3.155   2.453  13.005  0.2952  0.3052  0.1932
12798TIP3    H159885   3.101   2.374  13.009 -1.1161  1.3316  2.3682
12798TIP3    H259886   3.226   2.437  13.066  0.5872  0.2938 -0.1510
12799TIP3   OH259887   1.906   5.136   3.378 -0.2678  0.4896 -0.6024
12799TIP3    H159888   1.948   5.220   3.396 -1.0163  0.6524  0.4941
12799TIP3    H259889   1.816   5.148   3.407 -0.1697 -0.9513  0.3550
12800TIP3   OH259890   4.879   5.548  16.174 -0.1080 -0.2757  0.8592
12800TIP3    H159891   4.941   5.494  16.221  2.0160  1.2884 -0.0425
12800TIP3    H259892   4.932   5.618  16.136 -2.2187  0.3738 -1.0484
12801TIP3   OH259893   6.232   2.995   5.226  0.5262  0.2890  0.1996
12801TIP3    H159894   6.161   3.014   5.287  0.5591 -0.0500  0.3431
12801TIP3    H259895   6.269   2.912   5.257  2.2030  1.4057  1.2616
12802TIP3   OH259896   2.502   2.627   1.007  0.2871  0.0774  0.3612
12802TIP3    H159897   2.498   2.537   0.973 -2.1157  0.0680  0.6092
12802TIP3    H259898   2.587   2.659   0.977  0.8314 -1.9939 -0.4464
12803TIP3   OH259899   3.020   0.367  16.204  0.3464 -0.0175 -0.0482
12803TIP3    H159900   3.078   0.293  16.188  0.9248  1.2672 -4.3778
12803TIP3    H259901   2.932   0.328  16.209  0.7252 -1.0769 -1.5639
12804TIP3   OH259902   2.996   5.303   5.506 -0.0064  0.5392 -0.0632
12804TIP3    H159903   2.920   5.267   5.461  1.2591 -1.2924 -0.8060
12804TIP3    H259904   2.964   5.327   5.593 -1.9786  2.1187 -1.2084
12805TIP3   OH259905   6.735   2.303   2.953  0.5217  0.3220 -0.1598
12805TIP3    H159906   6.750   2.380   3.008  0.8449  0.7276 -0.8055
12805TIP3    H259907   6.653   2.322   2.908 -0.1284 -0.3436  0.7465
12806TIP3   OH259908   6.794   5.893  14.654 -0.3586  0.2347 -0.0880
12806TIP3    H159909   6.746   5.971  14.626  2.1619  1.4448 -1.1441
12806TIP3    H259910   6.877   5.926  14.687  0.4096 -1.9498  0.2737
12807TIP3   OH259911   1.712   2.121   2.947 -0.0593  0.2935  0.4942
12807TIP3    H159912   1.804   2.095   2.946 -0.0012  0.3913  2.1264
12807TIP3    H259913   1.704   2.184   2.875  0.9841 -0.2626 -0.1190
12808TIP3   OH259914   3.654   6.469   0.697  0.5321  0.2021 -0.2275
12808TIP3    H159915   3.633   6.378   0.719 -2.2272  1.0614  0.9983
12808TIP3    H259916   3.726   6.492   0.755 -0.8898 -0.2627  1.7741
12809TIP3   OH259917   5.127   2.701   4.602  0.7102  0.2890 -0.0491
12809TIP3    H159918   5.187   2.739   4.667  0.4694  0.0198  0.3325
12809TIP3    H259919   5.045   2.749   4.615  0.6160  0.1268 -0.0516
12810TIP3   OH259920   6.596   3.567  17.043 -0.7419  0.5133 -0.6860
12810TIP3    H159921   6.525   3.626  17.069  0.2650  0.2346  2.9782
12810TIP3    H259922   6.635   3.609  16.967 -0.9695  3.8488  0.9621
12811TIP3   OH259923   2.193   1.584  12.170 -0.1680 -0.1328  0.6495
12811TIP3    H159924   2.240   1.653  12.123  0.5644 -1.0154  0.0736
12811TIP3    H259925   2.140   1.541  12.103  1.6757 -2.0761  0.3868
12812TIP3   OH259926   3.059   2.318   5.291 -0.5597 -0.7272 -0.7170
12812TIP3    H159927   2.982   2.262   5.283 -0.0755 -1.4217 -0.5639
12812TIP3    H259928   3.029   2.392   5.344 -1.3790 -0.5067 -1.4742
12813TIP3   OH259929   6.504   0.133  13.377 -0.4229 -0.3345 -0.5570
12813TIP3    H159930   6.556   0.062  13.416  0.4853  0.1442 -0.8718
12813TIP3    H259931   6.427   0.089  13.340  0.3838 -1.2329 -1.2112
12814TIP3   OH259932   4.781   1.237  13.612 -0.2327 -0.0650 -0.4227
12814TIP3    H159933   4.790   1.309  13.675 -0.5584 -1.0969  0.8184
12814TIP3    H259934   4.871   1.210  13.593 -0.0982  0.8113 -1.0740
12815TIP3   OH259935   0.095   1.761   4.370 -0.0279  0.2640  0.2879
12815TIP3    H159936   0.114   1.714   4.288 -1.8169 -1.4492  0.8177
12815TIP3    H259937   0.112   1.696   4.439 -2.2625  0.4521  1.0454
12816TIP3   OH259938   3.239   5.481   5.602 -0.3388 -0.1151  0.0945
12816TIP3    H159939   3.198   5.447   5.523  0.5204  0.2313 -0.5026
12816TIP3    H259940   3.222   5.575   5.600  2.0743  0.3374 -1.1373
12817TIP3   OH259941   2.723   2.696  14.152 -0.4195  0.4391 -0.2175
12817TIP3    H159942   2.693   2.607  14.134 -0.7591  0.3534  0.7232
12817TIP3    H259943   2.740   2.697  14.246  1.9551  0.6762 -0.6275
12818TIP3   OH259944   2.954   0.718  12.217  0.3475  0.0640  0.7569
12818TIP3    H159945   2.866   0.716  12.178  0.0572  1.6367  1.2814
12818TIP3    H259946   2.940   0.755  12.304  1.3634 -0.8711  1.3128
12819TIP3   OH259947   6.500   4.738   2.974  0.5602  0.4241 -0.0207
12819TIP3    H159948   6.554   4.817   2.981  0.5489  0.3096  1.3373
12819TIP3    H259949   6.551   4.670   3.017 -0.1369  0.0481  0.2149
12820TIP3   OH259950   3.802   3.789  14.960 -0.2694 -0.0047 -0.3407
12820TIP3    H159951   3.794   3.714  15.019  0.8792  0.0219 -0.1521
12820TIP3    H259952   3.715   3.796  14.919 -0.5843 -1.0200  0.1362
12821TIP3   OH259953   1.660   0.298  17.088  0.7035  0.5039  0.7596
12821TIP3    H159954   1.588   0.357  17.064 -1.2945 -3.1875 -2.9428
12821TIP3    H259955   1.619   0.231  17.142  1.5098 -1.0852 -0.5497
12822TIP3   OH259956   2.833   1.609   4.735 -0.2248 -0.3142  0.5671
12822TIP3    H159957   2.869   1.653   4.658 -0.3034 -0.1903  0.6015
12822TIP3    H259958   2.754   1.565   4.703 -0.7402  0.4583  0.7653
12823TIP3   OH259959   4.625   3.002  15.995  0.1160  0.7734  0.2259
12823TIP3    H159960   4.596   3.042  16.077  1.2367  0.3352  0.8526
12823TIP3    H259961   4.605   2.909  16.005  0.9710  0.5998  0.3265
12824TIP3   OH259962   3.259   2.927  11.423 -0.1300  0.3679 -0.0804
12824TIP3    H159963   3.307   2.845  11.411  0.1180  0.5295 -0.1994
12824TIP3    H259964   3.320   2.983  11.471  0.2820  1.0218 -1.3508
12825TIP3   OH259965   1.719   2.735  15.590 -0.3318 -0.2608 -0.0527
12825TIP3    H159966   1.699   2.823  15.621 -0.4740 -0.0492 -0.7476
12825TIP3    H259967   1.743   2.687  15.670  0.9508  0.7288  0.1828
12826TIP3   OH259968   0.919   0.402   6.144  0.4466  0.1245  0.0687
12826TIP3    H159969   0.939   0.310   6.162 -1.5558 -0.1222  1.1274
12826TIP3    H259970   0.952   0.449   6.221 -2.5709 -0.2444  1.6535
12827TIP3   OH259971   2.555   4.811  14.858 -0.4477 -0.2052 -0.1317
12827TIP3    H159972   2.520   4.799  14.770 -0.5781  0.1223 -0.1228
12827TIP3    H259973   2.502   4.753  14.913  1.1398 -2.2185 -0.6240
12828TIP3   OH259974   1.653   1.671  11.445  0.9256 -0.2201  0.2405
12828TIP3    H159975   1.741   1.635  11.437  0.4265 -1.9603  2.0831
12828TIP3    H259976   1.612   1.653  11.360  1.6124 -1.4949  0.1730
12829TIP3   OH259977   3.717   6.770   1.716  0.0105  0.1197  0.2018
12829TIP3    H159978   3.656   6.802   1.650  0.7253  0.0794 -0.4877
12829TIP3    H259979   3.678   6.796   1.800 -0.7217  0.4849 -0.2481
12830TIP3   OH259980   0.678   3.078  15.301 -0.3353 -0.5558  0.1981
12830TIP3    H159981   0.671   3.125  15.384  1.8100 -0.5440  0.3845
12830TIP3    H259982   0.757   3.113  15.260 -0.2145 -2.0767 -0.8979
12831TIP3   OH259983   6.438   2.880   0.294 -0.1191 -0.3412 -0.6515
12831TIP3    H159984   6.345   2.871   0.274 -0.0531  0.6245 -1.3925
12831TIP3    H259985   6.482   2.856   0.213  0.3301 -1.9444  0.0380
12832TIP3   OH259986   0.449   4.731  14.265 -0.0045 -0.9048  0.5403
12832TIP3    H159987   0.513   4.681  14.316  1.1717 -0.8868 -0.8726
12832TIP3    H259988   0.364   4.699  14.295  0.6485 -0.9214  2.4689
12833TIP3   OH259989   3.459   4.256  16.945 -0.0472  0.9899  0.1040
12833TIP3    H159990   3.422   4.303  16.870 -1.2359  2.1545  1.3885
12833TIP3    H259991   3.520   4.318  16.984 -1.4370  1.4176  1.6653
12834TIP3   OH259992   6.800   3.447   4.520  0.1529  0.3329 -0.5365
12834TIP3    H159993   6.767   3.429   4.608  0.5406  1.6503 -0.1269
12834TIP3    H259994   6.753   3.525   4.492  0.8006  0.5217 -1.0958
12835TIP3   OH259995   2.965   0.880   5.902 -0.0122 -0.1009  0.3529
12835TIP3    H159996   2.938   0.943   5.969  2.5686  0.1724  1.1857
12835TIP3    H259997   3.059   0.871   5.914 -0.2794 -4.0354  0.1617
12836TIP3   OH259998   6.198   1.569   2.600 -0.6780  0.2003 -0.2098
12836TIP3    H159999   6.182   1.662   2.586 -1.5854 -0.2750 -2.4967
12836TIP3    H260000   6.264   1.546   2.534 -0.3040 -0.7411  0.4832
12837TIP3   OH260001   2.155   2.473   3.703 -0.1490 -0.3514  0.4052
12837TIP3    H160002   2.126   2.548   3.754  0.6739  0.4019 -0.2166
12837TIP3    H260003   2.197   2.511   3.626  0.1502 -1.4524  0.0115
12838TIP3   OH260004   5.941   1.504   2.364  0.1825  0.2220  0.1263
12838TIP3    H160005   5.946   1.440   2.436  3.3152 -0.6811 -0.7990
12838TIP3    H260006   5.909   1.454   2.289 -1.3092  0.7323  0.4077
12839TIP3   OH260007   4.307   1.240  13.712 -0.3687 -0.1428 -0.0331
12839TIP3    H160008   4.356   1.214  13.633 -0.7577 -0.7357 -0.0768
12839TIP3    H260009   4.374   1.274  13.771 -0.1543  1.0238 -0.9056
12840TIP3   OH260010   5.465   5.563   3.601  1.2835  0.4425 -0.5065
12840TIP3    H160011   5.402   5.519   3.657  1.4794 -0.7626 -1.2285
12840TIP3    H260012   5.511   5.493   3.555  0.8361  1.4001 -2.5070
12841TIP3   OH260013   4.933   4.865   4.357 -0.5792 -0.4458  0.0959
12841TIP3    H160014   4.967   4.799   4.296  0.3817  0.7749 -0.7274
12841TIP3    H260015   4.869   4.914   4.305  0.8168  1.1106 -0.2026
12842TIP3   OH260016   3.549   0.316   6.257 -0.1067 -0.1659  0.0670
12842TIP3    H160017   3.576   0.249   6.195  1.9639  1.5932 -1.0107
12842TIP3    H260018   3.492   0.374   6.207 -1.2462 -0.6385  0.7826
12843TIP3   OH260019   5.797   5.291  14.942  0.0486  0.1323 -0.5328
12843TIP3    H160020   5.747   5.330  14.870  0.1131  0.9785 -0.1374
12843TIP3    H260021   5.808   5.364  15.004  0.0631 -0.5629  0.2833
12844TIP3   OH260022   1.037   3.330   1.865 -0.3955 -0.3561 -0.5247
12844TIP3    H160023   1.039   3.422   1.838 -0.5589 -0.6337 -1.5032
12844TIP3    H260024   1.041   3.281   1.783 -0.8194 -1.2232 -0.0318
12845TIP3   OH260025   6.493   3.249  13.994 -0.5530 -0.2374  0.5534
12845TIP3    H160026   6.546   3.185  14.041  1.4529  0.4901 -0.6611
12845TIP3    H260027   6.466   3.312  14.061  1.2653  0.1306  0.9655
12846TIP3   OH260028   0.097   2.454  17.080 -0.2186  0.6422  0.1310
12846TIP3    H160029   0.025   2.517  17.072 -0.8841 -0.1941 -0.5937
12846TIP3    H260030   0.056   2.377  17.118  0.5753  0.6027  0.9136
12847TIP3   OH260031   4.956   3.459   4.248 -1.0592 -1.0397  0.3616
12847TIP3    H160032   4.912   3.543   4.262  0.2565 -0.4298  0.9607
12847TIP3    H260033   4.937   3.437   4.157  2.9118  2.5936 -1.5540
12848TIP3   OH260034   1.153   3.528   1.442 -0.2829  0.2343 -0.1812
12848TIP3    H160035   1.087   3.468   1.406 -0.2968  1.3342 -2.0502
12848TIP3    H260036   1.220   3.470   1.479 -1.2242 -0.9101 -0.2334
12849TIP3   OH260037   1.857   6.506  12.050 -0.1298  0.0571  0.1521
12849TIP3    H160038   1.872   6.592  12.090  0.7180  0.6607 -1.4219
12849TIP3    H260039   1.897   6.512  11.963 -2.4244 -1.0334 -1.0238
12850TIP3   OH260040   2.924   1.055   0.734 -0.1398  0.3204  0.0408
12850TIP3    H160041   2.836   1.088   0.753 -0.0715  1.3320 -1.3280
12850TIP3    H260042   2.975   1.133   0.716  0.8055 -0.3320 -0.1236
12851TIP3   OH260043   3.863   6.553   4.992 -0.1373 -0.1458 -0.3835
12851TIP3    H160044   3.802   6.595   5.052  0.3163  0.9160 -0.6519
12851TIP3    H260045   3.891   6.623   4.934 -0.2276 -1.0700 -1.5552
12852TIP3   OH260046   5.716   6.709  10.444 -0.2768 -0.5056  0.1470
12852TIP3    H160047   5.808   6.736  10.439 -0.6087  0.8035  0.8628
12852TIP3    H260048   5.668   6.777  10.396 -1.1336  0.2702  2.0363
12853TIP3   OH260049   4.286   3.854  16.962 -0.2611 -0.1194 -0.2387
12853TIP3    H160050   4.317   3.795  17.031  0.2575 -0.7931 -1.0322
12853TIP3    H260051   4.355   3.851  16.896  0.4058  2.4486  0.2966
12854TIP3   OH260052   6.368   1.710   5.834  0.2001 -0.0133 -0.9678
12854TIP3    H160053   6.369   1.769   5.909  1.7755  1.0205 -1.7812
12854TIP3    H260054   6.361   1.622   5.872 -0.6947  0.5981  0.3019
12855TIP3   OH260055   5.773   3.051   1.965 -0.6018  0.0644 -0.7957
12855TIP3    H160056   5.784   3.041   2.060 -0.7535  0.9265 -0.6827
12855TIP3    H260057   5.701   2.993   1.943 -1.7148  1.1391 -0.0915
12856TIP3   OH260058   3.744   6.341  10.176 -0.5252 -0.2838  0.5945
12856TIP3    H160059   3.680   6.405  10.146  0.3349 -0.1594 -1.0356
12856TIP3    H260060   3.827   6.370  10.139  0.1862 -1.3657  1.2938
12857TIP3   OH260061   3.899   6.510  16.964  0.1571 -0.5621  0.2582
12857TIP3    H160062   3.929   6.574  17.029  0.6432  1.0519 -1.4769
12857TIP3    H260063   3.834   6.558  16.912 -0.5263 -1.9398 -0.1802
12858TIP3   OH260064   4.930   4.644  15.047 -0.3884  0.1811 -0.1382
12858TIP3    H160065   4.954   4.558  15.082 -0.3855  0.1517 -0.2117
12858TIP3    H260066   4.989   4.705  15.090 -0.1384  0.0998 -0.3648
12859TIP3   OH260067   0.430   1.368  13.863  0.0735 -0.5732  0.2281
12859TIP3    H160068   0.469   1.392  13.947  0.8148 -0.7875 -0.0466
12859TIP3    H260069   0.423   1.450  13.815 -0.0699 -0.4933  0.3869
12860TIP3   OH260070   1.627   5.062  12.133 -0.2850  0.6064 -0.0071
12860TIP3    H160071   1.691   5.085  12.066 -0.3175  2.1739  0.4899
12860TIP3    H260072   1.546   5.047  12.084  0.1738 -0.2889 -0.5165
12861TIP3   OH260073   3.386   3.125  10.295  0.5313  1.0587 -0.0594
12861TIP3    H160074   3.304   3.093  10.257  1.4475  1.0080 -2.0893
12861TIP3    H260075   3.425   3.048  10.335  0.8538  0.4731 -1.4656
12862TIP3   OH260076   1.384   2.984   3.788 -0.5913  0.1825 -0.0561
12862TIP3    H160077   1.300   2.993   3.744  0.5198  2.5377 -1.7807
12862TIP3    H260078   1.363   2.937   3.870 -2.8734 -3.2072 -2.4426
12863TIP3   OH260079   1.161   6.053   3.048 -0.0950  0.1104 -0.5302
12863TIP3    H160080   1.158   5.963   3.080 -3.7018  0.8260  1.3446
12863TIP3    H260081   1.117   6.050   2.963  0.5483 -0.0289 -0.8620
12864TIP3   OH260082   0.198   5.890  13.240 -0.2874  0.4134 -0.1951
12864TIP3    H160083   0.261   5.948  13.197  0.4221 -0.0775  0.1788
12864TIP3    H260084   0.183   5.820  13.175 -0.6143  0.6416 -0.3684
12865TIP3   OH260085   3.300   2.745   0.198  0.1287 -0.6296  0.1159
12865TIP3    H160086   3.310   2.658   0.235  0.2893  0.2982  2.3304
12865TIP3    H260087   3.210   2.748   0.166 -0.0597 -1.3968  0.5811
12866TIP3   OH260088   0.395   3.729   3.864 -0.6896  0.0096  0.2284
12866TIP3    H160089   0.476   3.753   3.909 -1.5908  0.6715  1.5185
12866TIP3    H260090   0.342   3.687   3.931 -1.6011 -0.0114 -0.4999
12867TIP3   OH260091   5.102   2.592   1.727 -0.1766 -0.0692  0.2215
12867TIP3    H160092   5.077   2.603   1.819  1.8426 -1.2901  0.9575
12867TIP3    H260093   5.026   2.554   1.685 -1.5286  1.5488  1.1312
12868TIP3   OH260094   2.538   4.196   3.895 -0.3562 -0.0134 -0.1148
12868TIP3    H160095   2.501   4.215   3.809 -0.8142 -0.1040  0.0645
12868TIP3    H260096   2.632   4.211   3.884 -0.3339 -0.6249 -0.8037
12869TIP3   OH260097   4.042   3.755   0.217 -0.4768 -0.6792 -0.2115
12869TIP3    H160098   4.090   3.821   0.169 -1.5291 -0.6289 -1.2206
12869TIP3    H260099   4.077   3.759   0.306  1.1159 -0.4170 -0.8429
12870TIP3   OH260100   5.232   1.262  11.751  0.0197 -0.5560  0.5346
12870TIP3    H160101   5.174   1.228  11.683  1.4417 -0.4055 -0.7853
12870TIP3    H260102   5.175   1.278  11.826 -1.5144 -1.0567 -0.5107
12871TIP3   OH260103   4.361   4.841   1.567  0.0501  0.5042 -0.0614
12871TIP3    H160104   4.420   4.871   1.637 -1.6123 -0.0463  1.6275
12871TIP3    H260105   4.348   4.748   1.585  0.8659 -0.0130 -2.0672
12872TIP3   OH260106   5.394   0.522   5.729 -0.4796  0.3729  0.5052
12872TIP3    H160107   5.311   0.553   5.693 -0.6198 -1.7561 -1.1099
12872TIP3    H260108   5.429   0.464   5.661  0.4671 -1.7649  2.7604
12873TIP3   OH260109   5.971   3.453  13.163  0.6181 -0.2306  0.0891
12873TIP3    H160110   5.962   3.530  13.107  0.7733  0.4593  0.9958
12873TIP3    H260111   5.979   3.380  13.102  0.8189  0.5058 -0.7857
12874TIP3   OH260112   0.504   4.683  13.209  0.1810 -0.3792  0.4758
12874TIP3    H160113   0.571   4.631  13.254  1.1221 -0.4150 -0.9249
12874TIP3    H260114   0.546   4.711  13.128 -0.7746  1.4287  0.5600
12875TIP3   OH260115   4.662   3.650  12.774  0.0345  0.0067  0.0926
12875TIP3    H160116   4.640   3.662  12.867 -0.8518 -0.7685 -0.0179
12875TIP3    H260117   4.747   3.606  12.776  0.0139 -0.0198  0.5411
12876TIP3   OH260118   5.250   6.408   2.920 -0.1780 -0.0378  0.0162
12876TIP3    H160119   5.211   6.458   2.848  0.7439  1.1950  0.3540
12876TIP3    H260120   5.334   6.378   2.885  0.6887  1.3416  0.8668
12877TIP3   OH260121   6.777   2.568  13.576 -0.7203 -0.2752 -0.1646
12877TIP3    H160122   6.790   2.654  13.534 -0.0485 -0.8090 -1.0687
12877TIP3    H260123   6.763   2.508  13.503 -1.8944 -0.8211  0.5048
12878TIP3   OH260124   1.081   5.790  15.446  0.2353  0.6119  0.3829
12878TIP3    H160125   1.163   5.764  15.489  1.9831  2.3032 -1.7993
12878TIP3    H260126   1.014   5.735  15.487  2.7846 -2.5352  0.5633
12879TIP3   OH260127   5.964   1.556  11.136  0.6113  0.0405 -0.7192
12879TIP3    H160128   5.869   1.545  11.140  0.3506  2.1990 -0.5012
12879TIP3    H260129   5.997   1.471  11.105 -1.2555 -1.1921  0.5924
12880TIP3   OH260130   5.312   0.600  13.173 -0.3335  0.1294  0.0318
12880TIP3    H160131   5.288   0.645  13.254  0.2702 -2.5628  1.7785
12880TIP3    H260132   5.377   0.657  13.132 -1.6498  2.1827  0.7368
12881TIP3   OH260133   0.907   3.593  15.045  0.5912  0.1819  0.4082
12881TIP3    H160134   0.818   3.575  15.074  1.3139 -1.5271  1.6956
12881TIP3    H260135   0.940   3.658  15.107  0.4862  0.2608  0.3811
12882TIP3   OH260136   5.087   0.148  10.711  0.8130  0.1232  0.1923
12882TIP3    H160137   5.108   0.079  10.775 -0.0408  1.1948  1.6730
12882TIP3    H260138   5.167   0.201  10.706 -0.2456  2.1524  3.1768
12883TIP3   OH260139   2.975   0.894  14.660  0.2631  0.0334 -0.2616
12883TIP3    H160140   3.046   0.842  14.622  0.6163  0.9903 -0.9018
12883TIP3    H260141   2.904   0.831  14.672  0.7607 -0.6458 -0.8527
12884TIP3   OH260142   5.181   3.431  15.198  0.3258  0.7586 -0.7157
12884TIP3    H160143   5.149   3.341  15.194  0.0054  0.6999  2.1606
12884TIP3    H260144   5.103   3.485  15.213  0.8737  1.1541  0.8825
12885TIP3   OH260145   6.105   5.636   2.162 -0.0320  0.1982 -0.3823
12885TIP3    H160146   6.024   5.686   2.147 -0.2180 -0.4107 -1.4570
12885TIP3    H260147   6.169   5.677   2.104  0.3376  0.4461  0.1984
12886TIP3   OH260148   6.231   5.908  13.949 -0.1286 -0.0498  0.5177
12886TIP3    H160149   6.145   5.928  13.987  0.7162  1.6730  1.5422
12886TIP3    H260150   6.236   5.964  13.871 -0.3622 -0.9587 -0.1731
12887TIP3   OH260151   2.097   6.758  16.398 -0.0900 -0.3250  0.0827
12887TIP3    H160152   2.159   6.788  16.332 -1.2624  2.1193  0.0326
12887TIP3    H260153   2.033   6.829  16.405 -0.3550 -0.7889  3.3849
12888TIP3   OH260154   2.197   4.724  11.957 -0.5563 -0.0519  0.1231
12888TIP3    H160155   2.191   4.632  11.932 -0.4971 -0.2639  0.8702
12888TIP3    H260156   2.271   4.728  12.018  0.7781  0.8625 -1.5369
12889TIP3   OH260157   6.067   2.094   4.375  0.1236  0.0761  0.3116
12889TIP3    H160158   6.133   2.035   4.411 -0.1398 -0.0302  0.6239
12889TIP3    H260159   6.107   2.128   4.295 -0.7571 -2.5080 -1.2816
12890TIP3   OH260160   1.041   6.012  15.274  0.3852  0.2693  0.2195
12890TIP3    H160161   1.024   5.921  15.298  1.1963 -0.2633 -1.1732
12890TIP3    H260162   1.098   6.045  15.343  1.3503 -0.7569 -0.0699
12891TIP3   OH260163   0.606   2.912   0.656  0.1413 -0.6704  0.1474
12891TIP3    H160164   0.664   2.851   0.611 -1.0459 -0.8318 -1.1862
12891TIP3    H260165   0.556   2.857   0.717 -0.5737 -0.9697 -0.6967
12892TIP3   OH260166   2.306   2.174   3.090  1.2696  0.4903 -0.4113
12892TIP3    H160167   2.395   2.159   3.121  0.9049  0.7984  0.7956
12892TIP3    H260168   2.302   2.268   3.074  1.4177  0.3515 -1.2818
12893TIP3   OH260169   1.635   1.086  14.822 -0.0117 -0.4380  0.4873
12893TIP3    H160170   1.605   0.995  14.825  0.9825 -0.7854 -0.0521
12893TIP3    H260171   1.707   1.089  14.885  0.0055 -0.0476  0.4472
12894TIP3   OH260172   1.784   0.174  12.366 -0.2052  0.2887 -0.0522
12894TIP3    H160173   1.855   0.116  12.338 -0.0420  0.6450 -0.3918
12894TIP3    H260174   1.717   0.116  12.402  0.6047  0.0104  1.0170
12895TIP3   OH260175   3.480   0.567   2.065 -0.0186  0.5423 -0.2760
12895TIP3    H160176   3.476   0.600   1.975  2.1449  1.3274 -0.1301
12895TIP3    H260177   3.571   0.582   2.091  0.7987 -4.4940  0.1996
12896TIP3   OH260178   6.101   4.919   2.286  0.1692 -0.3003 -0.0766
12896TIP3    H160179   6.043   4.856   2.244  0.4073 -1.5975  1.4752
12896TIP3    H260180   6.097   4.896   2.379  0.1967  2.0293  0.5318
12897TIP3   OH260181   3.023   0.932  16.998 -0.2669 -0.4210 -0.1291
12897TIP3    H160182   3.093   0.883  16.955 -0.7425 -0.4788 -0.8464
12897TIP3    H260183   3.035   0.914  17.092  1.9260  1.2636 -0.0768
12898TIP3   OH260184   3.541   2.720   5.966  0.3518  0.1078  0.5256
12898TIP3    H160185   3.496   2.752   6.045  1.1815 -0.8634  1.4064
12898TIP3    H260186   3.471   2.694   5.907 -0.2767  0.4738  1.1028
12899TIP3   OH260187   6.752   4.455  15.468  0.1749  0.0667  0.8684
12899TIP3    H160188   6.842   4.487  15.464 -0.0302  0.6063  0.3883
12899TIP3    H260189   6.748   4.389  15.398  0.1813  0.0845  0.8518
12900TIP3   OH260190   1.456   3.833   0.279  0.0356 -0.1889  0.9127
12900TIP3    H160191   1.456   3.908   0.338 -0.4764  0.0801  0.5750
12900TIP3    H260192   1.393   3.772   0.316  0.6228 -0.5617  1.3154
12901TIP3   OH260193   3.526   4.875  11.139  0.2353 -0.2956  0.0404
12901TIP3    H160194   3.545   4.959  11.181  0.8490 -0.3032 -0.2166
12901TIP3    H260195   3.482   4.899  11.057 -0.1575 -0.2510  0.2615
12902TIP3   OH260196   3.651   3.689  16.648  0.1800  0.1685  0.0055
12902TIP3    H160197   3.724   3.748  16.628  0.1280  0.1406 -0.2663
12902TIP3    H260198   3.694   3.606  16.671  0.2924  0.6556  1.5628
12903TIP3   OH260199   3.879   2.696   1.228 -0.0186  0.5497 -0.0684
12903TIP3    H160200   3.871   2.750   1.149 -0.0125  1.7060  0.6995
12903TIP3    H260201   3.933   2.749   1.287  1.8790 -1.2909 -0.1210
12904TIP3   OH260202   6.456   0.158  13.015  0.2154 -0.1681 -0.5341
12904TIP3    H160203   6.527   0.171  12.951  0.6079 -0.9110 -0.2563
12904TIP3    H260204   6.426   0.247  13.036  1.0629  0.1509 -0.6517
12905TIP3   OH260205   2.261   2.667   4.388 -0.1563  0.4444 -0.1934
12905TIP3    H160206   2.226   2.603   4.449 -0.1275 -0.3020 -0.9502
12905TIP3    H260207   2.231   2.752   4.422 -2.0831 -0.1201 -0.4206
12906TIP3   OH260208   3.725   6.099  15.684  0.1360  0.3939  0.0272
12906TIP3    H160209   3.650   6.119  15.740 -0.0665 -1.0736  0.3143
12906TIP3    H260210   3.744   6.181  15.639 -0.7270  1.1631  1.0331
12907TIP3   OH260211   0.551   2.788  14.730 -0.1640  0.3274 -1.0414
12907TIP3    H160212   0.569   2.694  14.724  0.9210  0.4667 -0.1341
12907TIP3    H260213   0.616   2.821  14.792 -3.2611  0.9352  2.0422
12908TIP3   OH260214   0.670   1.898   0.825  0.4086 -0.2918 -0.5810
12908TIP3    H160215   0.638   1.944   0.747  0.7872 -0.2521 -0.7140
12908TIP3    H260216   0.764   1.891   0.812  0.5600  0.2331  0.1423
12909TIP3   OH260217   0.745   2.466   0.982 -0.1603 -0.1878  0.5922
12909TIP3    H160218   0.762   2.464   0.888  0.8401  0.6080  0.7559
12909TIP3    H260219   0.762   2.376   1.011 -1.5634 -0.7212 -0.1570
12910TIP3   OH260220   2.456   0.946  16.849 -0.0617  0.2647 -0.3197
12910TIP3    H160221   2.366   0.957  16.877  0.2406 -0.0457  0.8069
12910TIP3    H260222   2.470   1.015  16.784 -1.2078  0.0864 -0.7521
12911TIP3   OH260223   3.801   5.840  14.170  0.0754  0.1941  0.3579
12911TIP3    H160224   3.721   5.849  14.120 -0.4509 -1.6059  0.8226
12911TIP3    H260225   3.846   5.923  14.160 -0.8414  0.4578 -1.6544
12912TIP3   OH260226   1.283   4.747  17.060 -0.0012 -0.0152  0.1038
12912TIP3    H160227   1.209   4.750  17.000  0.9192 -0.0159 -1.0309
12912TIP3    H260228   1.252   4.794  17.138 -1.4244 -0.6017 -0.0888
12913TIP3   OH260229   6.070   0.024  16.462  0.0601  0.2743  0.5235
12913TIP3    H160230   6.066  -0.063  16.422 -0.6431  0.5177  0.0557
12913TIP3    H260231   5.999   0.025  16.526 -0.9104  1.0279 -0.5449
12914TIP3   OH260232   3.933   5.940  11.636  0.0585 -0.7720 -0.3528
12914TIP3    H160233   3.839   5.934  11.654  0.4762  0.9846  2.9165
12914TIP3    H260234   3.974   5.904  11.715  2.1226  0.0595 -1.0187
12915TIP3   OH260235   1.659   1.117  13.826 -0.0640  0.2087 -0.3655
12915TIP3    H160236   1.612   1.183  13.878 -1.1617 -2.1236  1.6818
12915TIP3    H260237   1.595   1.048  13.811  1.9760 -1.9164  0.3915
12916TIP3   OH260238   1.115   4.003  13.547  0.3557 -0.1388  0.6773
12916TIP3    H160239   1.069   4.082  13.575 -2.0954 -1.0855 -0.6089
12916TIP3    H260240   1.154   4.027  13.463  0.7803  0.1291  0.9493
12917TIP3   OH260241   6.122   4.776   4.284  0.0033  0.2287  0.1349
12917TIP3    H160242   6.205   4.762   4.239 -0.0944 -1.2949  0.4136
12917TIP3    H260243   6.071   4.830   4.224  0.2517 -0.9421 -1.1356
12918TIP3   OH260244   0.741   5.305   2.725 -0.0680  0.3136  0.2283
12918TIP3    H160245   0.701   5.386   2.757  2.3199  1.2931  0.8481
12918TIP3    H260246   0.834   5.327   2.713  0.8348 -2.6204  1.4277
12919TIP3   OH260247   1.016   5.358  16.650 -0.0004  0.1520  0.2158
12919TIP3    H160248   1.029   5.272  16.610 -0.9020  0.2012 -0.1932
12919TIP3    H260249   1.067   5.418  16.595 -2.2886  0.4203 -1.6825
12920TIP3   OH260250   4.926   1.092  15.337 -0.3689  0.1054 -0.5154
12920TIP3    H160251   4.876   1.018  15.372  0.2360 -1.0753 -2.1054
12920TIP3    H260252   4.864   1.136  15.277 -1.2536  1.8531  1.6245
12921TIP3   OH260253   0.546   0.425   4.118 -0.2114 -0.0386  0.0939
12921TIP3    H160254   0.529   0.334   4.093  0.5818  0.2561 -1.5273
12921TIP3    H260255   0.598   0.417   4.198  0.0170 -1.0136 -0.1373
12922TIP3   OH260256   3.754   3.511  14.952  0.3037  0.6503  0.3095
12922TIP3    H160257   3.698   3.453  14.901  0.6565  0.8225 -0.2851
12922TIP3    H260258   3.707   3.525  15.034 -1.2006  1.9192 -0.7360
12923TIP3   OH260259   3.437   2.583   4.135 -0.1057  0.7459  0.3129
12923TIP3    H160260   3.494   2.551   4.065  2.2095  1.0665  2.0054
12923TIP3    H260261   3.374   2.512   4.149  0.5090 -0.0557 -0.8617
12924TIP3   OH260262   1.143   2.115   3.679  0.5824  0.6990  0.2571
12924TIP3    H160263   1.166   2.027   3.649 -1.0634 -0.2704  1.7352
12924TIP3    H260264   1.163   2.115   3.773  1.2449  2.1446  0.1330
12925TIP3   OH260265   0.941   6.267  16.356  0.1383 -0.4935 -0.1699
12925TIP3    H160266   0.877   6.282  16.286 -0.3218 -0.6991  0.2016
12925TIP3    H260267   0.992   6.192  16.327 -1.3215 -1.8171  0.5900
12926TIP3   OH260268   3.355   2.790  12.353  0.2539 -0.1508 -0.0879
12926TIP3    H160269   3.448   2.776  12.373  0.5490 -0.0610 -1.3021
12926TIP3    H260270   3.345   2.755  12.264 -0.2043  2.4879 -1.1283
12927TIP3   OH260271   4.258   4.854   6.483  0.2862  0.1093  0.3788
12927TIP3    H160272   4.318   4.875   6.555  1.9154  1.1204 -1.2388
12927TIP3    H260273   4.171   4.875   6.518  0.9007 -0.7375  2.5234
12928TIP3   OH260274   1.353   0.581  15.736 -0.5957  0.5955 -0.7546
12928TIP3    H160275   1.292   0.606  15.666  0.7578  2.2967 -1.3657
12928TIP3    H260276   1.350   0.485  15.737 -2.8226  0.6431 -1.1689
12929TIP3   OH260277   3.579   4.085  15.078 -0.5349 -0.2591 -0.6010
12929TIP3    H160278   3.618   4.161  15.034  0.0093  0.9515  1.8474
12929TIP3    H260279   3.650   4.049  15.131 -1.3842 -1.1317 -0.0441
12930TIP3   OH260280   5.291   0.308  15.175  0.2496  0.3809 -1.1193
12930TIP3    H160281   5.317   0.334  15.264  0.7464  0.1378 -1.1860
12930TIP3    H260282   5.276   0.214  15.182 -0.8723  0.5705 -1.0267
12931TIP3   OH260283   1.488   1.124  13.521  0.8523 -0.0311  0.5199
12931TIP3    H160284   1.577   1.129  13.487  1.2281 -0.7890  1.4027
12931TIP3    H260285   1.437   1.179  13.461  2.2691  2.0701  1.2099
12932TIP3   OH260286   2.822   3.780  11.875  0.0022  0.2435 -0.2727
12932TIP3    H160287   2.901   3.778  11.820  0.6647 -3.8324  0.7100
12932TIP3    H260288   2.772   3.855  11.842  3.4347  1.8680 -2.0735
12933TIP3   OH260289   4.136   0.186  14.335 -0.0452 -0.6380  0.0595
12933TIP3    H160290   4.186   0.133  14.273  1.2698  1.3304 -0.6442
12933TIP3    H260291   4.203   0.236  14.382 -1.1047 -1.2088  2.2258
12934TIP3   OH260292   6.054   1.095  12.333  0.2185  0.1663 -0.0991
12934TIP3    H160293   6.036   1.170  12.276  0.4655 -1.9452 -3.0895
12934TIP3    H260294   6.147   1.103  12.354  0.5462  0.0712 -1.4453
12935TIP3   OH260295   6.122   5.809   2.885  0.2164  0.2856 -0.3451
12935TIP3    H160296   6.131   5.782   2.976 -1.9824  2.2324  0.5052
12935TIP3    H260297   6.033   5.783   2.861  1.1352 -1.1884 -2.3129
12936TIP3   OH260298   2.992   1.512   5.111  0.5220  0.0797 -0.2550
12936TIP3    H160299   3.026   1.513   5.021 -0.8180  0.3321 -0.7712
12936TIP3    H260300   3.069   1.499   5.166  1.3669  0.0288 -1.4412
12937TIP3   OH260301   4.004   1.056   0.841 -0.0870  0.6274 -0.3691
12937TIP3    H160302   3.977   1.053   0.933 -1.1884 -0.3435 -0.7249
12937TIP3    H260303   3.935   1.105   0.797 -0.1773  0.0290 -0.8976
12938TIP3   OH260304   1.684   5.189  12.728 -0.4987 -0.3974 -0.7302
12938TIP3    H160305   1.735   5.134  12.787 -2.1736 -1.5429 -0.3256
12938TIP3    H260306   1.640   5.127  12.669 -0.6460  0.6187 -1.7169
12939TIP3   OH260307   6.405   5.300  16.135  0.0533  0.0690 -0.2343
12939TIP3    H160308   6.452   5.218  16.120  0.0015  0.2673 -1.5491
12939TIP3    H260309   6.367   5.290  16.222  1.5819 -0.5442  0.3775
12940TIP3   OH260310   3.285   6.160   0.850 -0.6810  0.1473 -1.0271
12940TIP3    H160311   3.271   6.082   0.796 -0.8627 -0.9926  0.6238
12940TIP3    H260312   3.198   6.186   0.878 -0.5024  0.1421 -0.4658
12941TIP3   OH260313   1.455   6.456  16.783 -0.0968  0.0562  0.2655
12941TIP3    H160314   1.541   6.475  16.746 -1.2494  0.7587 -2.1280
12941TIP3    H260315   1.458   6.495  16.871  1.9130  0.3289  0.1004
12942TIP3   OH260316   1.047   1.046   1.608  0.1873  0.4805 -0.3008
12942TIP3    H160317   0.979   1.049   1.540 -1.5530  3.3607  1.4641
12942TIP3    H260318   1.129   1.059   1.560 -0.6585 -0.9228 -2.2271
12943TIP3   OH260319   4.596   1.875  11.984  0.7887  0.2733  0.1278
12943TIP3    H160320   4.513   1.826  11.976 -0.3575  1.7953  2.1430
12943TIP3    H260321   4.607   1.917  11.899  0.3245 -1.2216 -0.6967
12944TIP3   OH260322   6.154   5.751  13.568 -0.0545  0.1208  0.4295
12944TIP3    H160323   6.126   5.842  13.572  1.3715  0.6310 -0.6481
12944TIP3    H260324   6.091   5.704  13.621 -2.1502  1.4052 -0.8532
12945TIP3   OH260325   6.031   1.937   6.372 -0.5334 -0.0583 -0.1318
12945TIP3    H160326   5.963   1.876   6.401 -0.6080 -0.0726 -0.3400
12945TIP3    H260327   6.112   1.885   6.373 -0.1542  0.5059  2.1688
12946TIP3   OH260328   6.132   5.951   3.694 -0.0573  0.4707 -0.1051
12946TIP3    H160329   6.144   5.857   3.706  0.5548  0.6143  0.4309
12946TIP3    H260330   6.113   5.984   3.782 -0.6204  0.8038 -0.3470
12947TIP3   OH260331   4.389   4.504   6.179 -0.3455 -0.0305 -0.3082
12947TIP3    H160332   4.428   4.419   6.158 -0.2137  0.1794 -0.9277
12947TIP3    H260333   4.450   4.568   6.143  0.1160  0.3572  1.1239
12948TIP3   OH260334   3.047   0.329   6.421 -0.3663  0.2912 -0.0117
12948TIP3    H160335   3.134   0.326   6.461 -0.9080  2.4175  1.4521
12948TIP3    H260336   2.994   0.269   6.473 -0.4536  1.1517  0.9046
12949TIP3   OH260337   0.848   5.163   1.550  0.3714  0.1083 -0.1679
12949TIP3    H160338   0.861   5.071   1.528  0.7539  0.6684 -2.4124
12949TIP3    H260339   0.900   5.211   1.485 -1.7309  1.9639 -0.5403
12950TIP3   OH260340   5.456   0.363   0.409  0.5483 -0.5199  0.1146
12950TIP3    H160341   5.525   0.296   0.403  0.8616 -0.2950  1.1417
12950TIP3    H260342   5.456   0.388   0.501  3.1086  3.7211 -0.9240
12951TIP3   OH260343   2.566   5.518  17.248 -0.4752  0.3996  0.3525
12951TIP3    H160344   2.567   5.602  17.294  0.0318  0.5221  0.1136
12951TIP3    H260345   2.658   5.496  17.235 -0.5441  1.6972 -3.0395
12952TIP3   OH260346   5.331   1.811  13.351  0.0460  0.2893 -0.6481
12952TIP3    H160347   5.389   1.738  13.329 -0.1018  0.0080 -0.1144
12952TIP3    H260348   5.306   1.796  13.442 -1.1411  0.2250 -0.9709
12953TIP3   OH260349   1.855   2.211   2.247 -0.6223  0.0889 -0.8432
12953TIP3    H160350   1.824   2.270   2.178 -0.6693  0.1841 -0.7386
12953TIP3    H260351   1.793   2.221   2.318 -1.1928 -0.8234 -1.2035
12954TIP3   OH260352   0.487   0.551   1.000 -0.0678 -0.2226 -0.0290
12954TIP3    H160353   0.574   0.588   1.017  0.0982 -1.2928  1.5828
12954TIP3    H260354   0.467   0.577   0.910  2.1710 -0.4273 -0.6275
12955TIP3   OH260355   6.250   6.448   2.914 -0.3259 -0.1853  0.0812
12955TIP3    H160356   6.341   6.455   2.942  0.6334  1.2981 -3.2079
12955TIP3    H260357   6.222   6.538   2.899 -1.6291 -0.7693 -1.0759
12956TIP3   OH260358   1.404   1.447  11.082 -0.6071  0.0273  0.2378
12956TIP3    H160359   1.465   1.460  11.155 -1.5481  1.3927  0.8167
12956TIP3    H260360   1.458   1.454  11.004  0.3937 -1.2783  0.7932
12957TIP3   OH260361   6.493   3.779   6.185  0.6729 -0.9828  0.1006
12957TIP3    H160362   6.482   3.871   6.161 -1.5162 -1.0978  0.5827
12957TIP3    H260363   6.462   3.774   6.275  1.0311 -2.1524  0.1627
12958TIP3   OH260364   6.452   0.484   0.951 -0.1021  0.3346  0.1294
12958TIP3    H160365   6.472   0.559   0.895  1.1737 -0.0427  0.0627
12958TIP3    H260366   6.409   0.422   0.893  1.5802 -0.2235 -0.5700
12959TIP3   OH260367   3.750   0.863   0.822 -0.0223  0.1672 -0.4835
12959TIP3    H160368   3.835   0.877   0.864 -0.6447  1.1946  0.4777
12959TIP3    H260369   3.690   0.844   0.895 -0.8175  0.4793 -1.0502
12960TIP3   OH260370   1.079   3.721   2.912  0.3517  0.0394 -0.4366
12960TIP3    H160371   1.058   3.671   2.833 -0.1427 -0.6140  0.1059
12960TIP3    H260372   1.083   3.812   2.883 -0.8791 -0.0810 -1.0131
12961TIP3   OH260373   4.137   1.009  13.102  0.0723  0.4008 -0.1634
12961TIP3    H160374   4.225   1.025  13.070  0.3072  0.5196  0.5301
12961TIP3    H260375   4.083   1.077  13.061  0.2651  0.1997 -0.7493
12962TIP3   OH260376   0.758   5.346  14.184 -0.1177  0.0046 -0.3045
12962TIP3    H160377   0.670   5.327  14.154  0.4332 -0.2395 -1.8298
12962TIP3    H260378   0.796   5.400  14.114 -0.0785  2.7352  1.7375
12963TIP3   OH260379   2.740   0.851  10.937 -0.1890 -0.1975  0.1260
12963TIP3    H160380   2.739   0.757  10.920 -0.2579 -0.1946  0.1118
12963TIP3    H260381   2.799   0.886  10.871 -1.2037 -0.0744 -0.7335
12964TIP3   OH260382   1.624   3.787   1.304 -0.6847 -0.5234  0.3935
12964TIP3    H160383   1.604   3.880   1.314 -1.1098 -0.6147  0.3921
12964TIP3    H260384   1.613   3.771   1.210 -0.3691 -0.5184  0.3559
12965TIP3   OH260385   0.103   0.566   3.828 -0.0664  0.3657  0.1054
12965TIP3    H160386   0.066   0.546   3.914  0.3489 -0.5721  0.0748
12965TIP3    H260387   0.191   0.598   3.847 -0.6241  1.9063  0.1349
12966TIP3   OH260388   1.064   3.293  11.724  0.1686  0.2921 -0.2047
12966TIP3    H160389   1.072   3.233  11.650 -1.5471  2.1288 -1.9399
12966TIP3    H260390   1.154   3.321  11.741  0.6892 -0.8107 -1.0143
12967TIP3   OH260391   3.563   0.668  16.205  0.5831 -0.1757  0.2218
12967TIP3    H160392   3.554   0.676  16.110 -1.5686 -0.1277  0.3899
12967TIP3    H260393   3.503   0.733  16.240  2.1978  0.5785  1.6350
12968TIP3   OH260394   0.492   4.332  14.843  0.2077 -0.1946 -0.4676
12968TIP3    H160395   0.574   4.338  14.891 -0.0014  1.2307 -0.2426
12968TIP3    H260396   0.473   4.239  14.837  1.6893 -0.5154 -0.2663
12969TIP3   OH260397   0.131   2.581   4.254 -0.0918 -0.2594  0.1052
12969TIP3    H160398   0.169   2.494   4.263  0.8960  0.1809  0.2678
12969TIP3    H260399   0.207   2.639   4.245 -0.7871  0.4116 -1.4881
12970TIP3   OH260400   6.024   3.380  11.084 -0.5297  0.2156 -0.2343
12970TIP3    H160401   5.935   3.354  11.059  0.2094 -1.8035 -0.9002
12970TIP3    H260402   6.038   3.340  11.170  0.4443 -1.2054 -1.0381
12971TIP3   OH260403   0.119   5.352   6.208  0.4608 -0.8846  0.1560
12971TIP3    H160404   0.141   5.445   6.199 -0.7953 -0.4515  1.4355
12971TIP3    H260405   0.154   5.328   6.294  1.3409 -1.7661 -0.4417
12972TIP3   OH260406   3.542   2.836   1.387  0.0160 -0.2581 -0.4993
12972TIP3    H160407   3.488   2.893   1.441  2.7777  0.6758  1.4069
12972TIP3    H260408   3.579   2.895   1.321  1.1179 -0.2643  0.1033
12973TIP3   OH260409   5.882   3.139  14.861  0.1886  0.1374 -0.2052
12973TIP3    H160410   5.948   3.208  14.865  1.1794 -0.7644 -0.6415
12973TIP3    H260411   5.809   3.178  14.814 -0.0269  1.4858  1.2103
12974TIP3   OH260412   6.139   3.694   4.654 -0.0923  0.1167  0.5478
12974TIP3    H160413   6.137   3.712   4.560 -1.4167 -0.4285  0.4649
12974TIP3    H260414   6.166   3.777   4.694 -2.1998  1.1618 -0.1218
12975TIP3   OH260415   3.426   3.682  16.503 -0.4716  0.3993 -0.4140
12975TIP3    H160416   3.450   3.775  16.509  0.6152  0.0343  0.9370
12975TIP3    H260417   3.476   3.639  16.572 -2.8139 -0.8409  0.5641
12976TIP3   OH260418   1.744   1.174   3.114 -0.3440 -1.3249 -0.1555
12976TIP3    H160419   1.798   1.159   3.192 -0.9935 -1.0952  0.3440
12976TIP3    H260420   1.770   1.261   3.083 -0.3116 -1.2806 -0.0058
12977TIP3   OH260421   1.331   3.120  12.960 -0.1495 -0.0530 -0.3092
12977TIP3    H160422   1.275   3.114  12.883  0.4080 -2.1058 -0.5828
12977TIP3    H260423   1.417   3.091  12.928  0.9855  2.6792  0.1866
12978TIP3   OH260424   2.681   2.866   1.330 -0.1549 -0.0614  0.6488
12978TIP3    H160425   2.587   2.850   1.337 -0.2686  0.8388  1.1578
12978TIP3    H260426   2.721   2.800   1.388 -0.3990 -1.2642 -0.5435
12979TIP3   OH260427   4.802   1.251  12.097 -0.1481  0.5090  0.3977
12979TIP3    H160428   4.722   1.282  12.141 -0.5941  0.5674 -0.4530
12979TIP3    H260429   4.851   1.207  12.167 -0.0228  2.1365  1.3799
12980TIP3   OH260430   1.711   2.302   1.664 -0.1401  0.6352 -0.1227
12980TIP3    H160431   1.683   2.224   1.713 -0.3724 -0.8921 -2.5850
12980TIP3    H260432   1.645   2.368   1.684 -0.1751  0.0737  1.6812
12981TIP3   OH260433   1.456   1.609  16.963  0.3583  0.1000 -0.0938
12981TIP3    H160434   1.482   1.586  17.052  0.3408 -1.1436 -0.4064
12981TIP3    H260435   1.518   1.563  16.907 -2.6234 -3.1851 -0.8691
12982TIP3   OH260436   6.539   0.494   2.298 -0.1300  0.0996  0.1948
12982TIP3    H160437   6.561   0.444   2.377  0.4707  1.7972  1.1386
12982TIP3    H260438   6.471   0.443   2.255  0.4433 -1.5055  1.1470
12983TIP3   OH260439   4.367   3.658   1.381 -0.1300  0.3172  0.0628
12983TIP3    H160440   4.452   3.618   1.363  0.2132  0.7468  0.6993
12983TIP3    H260441   4.371   3.681   1.474 -1.3819 -0.7131  0.3915
12984TIP3   OH260442   1.031   3.266  12.490  0.5261 -0.0045 -0.5327
12984TIP3    H160443   0.958   3.243  12.432  1.3722  0.5006 -1.8171
12984TIP3    H260444   1.009   3.353  12.522  0.4369  0.0400 -0.7122
12985TIP3   OH260445   3.898   4.153  14.666  0.2232 -0.4757 -0.3287
12985TIP3    H160446   3.899   4.105  14.749 -0.7950 -1.5550 -0.9179
12985TIP3    H260447   3.990   4.175  14.650  0.3237  0.5174  1.5176
12986TIP3   OH260448   5.507   0.813  15.535  0.1623  0.0621 -0.7474
12986TIP3    H160449   5.426   0.801  15.486 -0.7581 -1.3388  1.0530
12986TIP3    H260450   5.510   0.907  15.554 -0.4113  0.3131 -1.8550
12987TIP3   OH260451   3.640   3.057   4.855 -0.0747 -0.5401  0.4937
12987TIP3    H160452   3.712   3.012   4.898 -0.1029  0.7742  1.9829
12987TIP3    H260453   3.629   3.012   4.771  0.9466 -2.2201  1.2467
12988TIP3   OH260454   6.240   5.172  12.447  0.0585  0.1302 -0.1960
12988TIP3    H160455   6.326   5.146  12.414  0.3672  1.1432 -0.2132
12988TIP3    H260456   6.259   5.236  12.516 -0.6290 -0.8272  0.8942
12989TIP3   OH260457   4.661   4.669   0.031  0.0078  0.1151 -0.3966
12989TIP3    H160458   4.691   4.604  -0.033  0.1022 -2.7639  2.4949
12989TIP3    H260459   4.688   4.753  -0.007  1.2043 -1.5759 -3.5015
12990TIP3   OH260460   3.922   0.233  15.550 -0.2164  0.6074 -0.2053
12990TIP3    H160461   3.972   0.153  15.536 -0.0233  0.5629  0.7110
12990TIP3    H260462   3.962   0.296  15.490 -0.3978  0.0097 -0.9574
12991TIP3   OH260463   4.512   4.622  15.405  0.3070  0.1282 -0.4035
12991TIP3    H160464   4.479   4.545  15.360 -0.1860  0.7431 -1.0989
12991TIP3    H260465   4.488   4.695  15.349  0.3725  0.8348  0.4752
12992TIP3   OH260466   6.137   6.458  13.775  0.2455 -0.2230  0.2947
12992TIP3    H160467   6.188   6.383  13.747 -0.9219 -0.8193 -0.2588
12992TIP3    H260468   6.160   6.470  13.868  0.8173 -0.9322  0.2440
12993TIP3   OH260469   1.518   1.686   2.477  0.1239 -0.2317 -0.4853
12993TIP3    H160470   1.490   1.641   2.397  0.5676  0.0808 -0.8204
12993TIP3    H260471   1.549   1.772   2.447 -0.3765  0.1624  0.1078
12994TIP3   OH260472   4.414   3.242  10.913 -0.1324 -0.0252  0.2293
12994TIP3    H160473   4.328   3.260  10.949 -0.7273  1.0742 -1.6671
12994TIP3    H260474   4.468   3.221  10.989 -0.8175  4.2657  2.0826
12995TIP3   OH260475   1.679   0.476   2.900 -0.0837 -0.1855  0.1154
12995TIP3    H160476   1.637   0.399   2.862  0.5020 -0.1719 -0.5564
12995TIP3    H260477   1.753   0.440   2.950 -0.6433 -0.1753  0.9557
12996TIP3   OH260478   5.150   4.794   0.131 -0.1859  0.4073  0.5752
12996TIP3    H160479   5.156   4.826   0.221  0.4147  2.6834 -0.2490
12996TIP3    H260480   5.228   4.830   0.087 -0.6965 -0.3115 -0.9632
12997TIP3   OH260481   3.316   0.049   2.500 -0.1606 -0.0198  0.0929
12997TIP3    H160482   3.242  -0.012   2.504 -0.5955  0.6655  4.0859
12997TIP3    H260483   3.291   0.111   2.431 -1.4063 -2.1521 -1.4458
12998TIP3   OH260484   0.063   1.515  16.908 -0.0810  0.1878  0.1846
12998TIP3    H160485   0.099   1.509  16.820 -0.1508  3.1859 -0.0873
12998TIP3    H260486   0.139   1.535  16.963 -0.5284  1.5542  0.3225
12999TIP3   OH260487   2.575   1.858  16.575  0.3467 -0.2451  0.2763
12999TIP3    H160488   2.578   1.790  16.641 -0.3561 -0.9570 -0.4174
12999TIP3    H260489   2.667   1.876  16.555  0.5667  0.0838  1.5350
13000TIP3   OH260490   3.161   3.818   4.978 -0.3102  0.2130 -0.8630
13000TIP3    H160491   3.210   3.737   4.988  1.2873  1.3276  0.8646
13000TIP3    H260492   3.197   3.859   4.899  0.9816  0.6073 -0.0905
13001TIP3   OH260493   2.053   5.197  14.979 -0.4904 -0.0353  0.9785
13001TIP3    H160494   2.042   5.268  14.916 -1.0480 -0.1673  0.9227
13001TIP3    H260495   1.966   5.156  14.985 -0.4600  0.0261  1.8884
13002TIP3   OH260496   2.698   0.494   4.388 -0.6733 -0.1175 -0.4136
13002TIP3    H160497   2.614   0.448   4.388 -0.2140 -0.9718  0.4367
13002TIP3    H260498   2.747   0.454   4.317 -0.9972  0.3955 -0.9235
13003TIP3   OH260499   3.139   0.337  14.865 -0.2313 -0.0968 -0.0636
13003TIP3    H160500   3.156   0.381  14.782  1.7616 -1.4402 -0.4266
13003TIP3    H260501   3.202   0.376  14.926 -0.9237  0.1038  0.5221
13004TIP3   OH260502   2.092   1.986  14.727 -0.1290  0.3091  0.4136
13004TIP3    H160503   2.130   1.898  14.725 -1.4633 -0.2868  0.5545
13004TIP3    H260504   2.096   2.017  14.636 -0.0974 -0.0982  0.2770
13005TIP3   OH260505   6.687   3.426   4.786  0.4518 -0.3294  0.0337
13005TIP3    H160506   6.609   3.422   4.731  0.1706 -0.3444  0.4280
13005TIP3    H260507   6.662   3.380   4.866  0.5292  0.5378  0.5659
13006TIP3   OH260508   1.151   6.534   3.155  0.5494 -0.0145  0.6595
13006TIP3    H160509   1.225   6.568   3.105  0.4641 -2.4164 -1.2547
13006TIP3    H260510   1.078   6.537   3.093 -0.3138 -0.1723  1.6619
13007TIP3   OH260511   0.006   5.558  13.750  0.2638 -0.0470  0.1540
13007TIP3    H160512  -0.081   5.525  13.772  0.1707 -0.5749 -0.9558
13007TIP3    H260513  -0.009   5.618  13.677  0.8184 -0.0743  0.0103
13008TIP3   OH260514   5.011   3.575  14.667 -0.4612 -0.6295  0.1143
13008TIP3    H160515   5.059   3.626  14.732 -0.0025 -0.5577 -0.2835
13008TIP3    H260516   4.996   3.490  14.710 -0.5162 -0.4442  0.4651
13009TIP3   OH260517   0.386   4.140   6.682  0.0602 -0.0758 -0.6957
13009TIP3    H160518   0.334   4.069   6.642  0.7870 -1.0081 -0.0039
13009TIP3    H260519   0.477   4.113   6.668  0.3364  0.6246 -0.2481
13010TIP3   OH260520   1.037   3.514   0.682 -0.2724 -0.1265 -0.4777
13010TIP3    H160521   0.955   3.563   0.667 -0.2707  0.4918  1.3918
13010TIP3    H260522   1.017   3.425   0.653 -1.6637 -0.0064  0.0428
13011TIP3   OH260523   5.971   4.989   0.314  0.1085  0.3943  0.2317
13011TIP3    H160524   5.907   5.012   0.247  1.0125 -2.5058 -1.7305
13011TIP3    H260525   6.056   4.993   0.270  0.6862 -1.9339  1.0270
13012TIP3   OH260526   2.322   3.560  15.962 -0.2887  0.1714  0.1282
13012TIP3    H160527   2.361   3.582  16.047 -1.3184  0.5269  0.5157
13012TIP3    H260528   2.228   3.557  15.979 -0.3535 -1.9622 -0.5201
13013TIP3   OH260529   5.343   1.374  15.435 -0.2683  0.2762 -0.0414
13013TIP3    H160530   5.299   1.430  15.371 -1.2385  1.2328  1.4250
13013TIP3    H260531   5.391   1.311  15.383 -1.4663  0.7134 -1.7123
13014TIP3   OH260532   5.084   3.430  12.240 -0.7561  0.3532 -0.4744
13014TIP3    H160533   5.114   3.353  12.192 -1.0889  0.7441 -1.3258
13014TIP3    H260534   5.016   3.397  12.299  1.3931 -0.5460  1.5432
13015TIP3   OH260535   2.925   0.525   4.910  0.0354  0.3839 -0.3059
13015TIP3    H160536   2.939   0.516   4.816  0.8494  0.5871 -0.2107
13015TIP3    H260537   2.866   0.600   4.919 -1.3509 -0.6402 -0.7371
13016TIP3   OH260538   3.055   5.305  15.501 -0.4601 -0.4956  0.2545
13016TIP3    H160539   2.990   5.370  15.528  0.3341 -0.0506  1.1485
13016TIP3    H260540   3.004   5.231  15.468 -1.4386 -0.3753  1.4650
13017TIP3   OH260541   6.132   5.936   2.214  0.3634 -0.1516 -0.0857
13017TIP3    H160542   6.087   5.911   2.133 -0.3295  0.4927  0.0910
13017TIP3    H260543   6.066   5.926   2.283  0.4147  1.0206  0.1507
13018TIP3   OH260544   6.170   0.977  13.582 -0.2593  0.1089 -0.2848
13018TIP3    H160545   6.165   0.964  13.487 -1.7522 -0.3937 -0.1574
13018TIP3    H260546   6.235   0.913  13.612  0.6946  0.7155 -1.0471
13019TIP3   OH260547   3.030   4.223   2.116  0.5663  0.5961  0.3213
13019TIP3    H160548   2.964   4.229   2.047 -0.0799  1.0793  0.9915
13019TIP3    H260549   3.054   4.130   2.117 -0.9666  0.1968  0.8987
13020TIP3   OH260550   2.752   1.825   0.214 -0.1921  0.0560  0.3146
13020TIP3    H160551   2.726   1.884   0.285  0.9941  0.3376  0.5230
13020TIP3    H260552   2.826   1.869   0.173  0.2321 -0.9426  0.0033
13021TIP3   OH260553   6.771   1.065  10.909 -0.2750  0.0714  0.2173
13021TIP3    H160554   6.846   1.118  10.936 -0.4413  0.5283 -0.2089
13021TIP3    H260555   6.697   1.104  10.955 -0.1244 -0.9608  1.3773
13022TIP3   OH260556   5.209   6.530   2.655  0.2350 -0.0243  0.3891
13022TIP3    H160557   5.118   6.556   2.637  0.0698  0.0913  1.3858
13022TIP3    H260558   5.260   6.610   2.643  0.5560 -0.6166 -2.6172
13023TIP3   OH260559   3.586   1.379   2.175  0.4713 -0.9345  0.2852
13023TIP3    H160560   3.504   1.329   2.176  1.3327 -2.4439 -1.7471
13023TIP3    H260561   3.558   1.470   2.177 -1.3211 -1.4162 -1.3004
13024TIP3   OH260562   0.487   1.010  15.960  0.4008  0.0368 -0.2815
13024TIP3    H160563   0.468   1.078  16.024  1.1791  0.0056 -0.0084
13024TIP3    H260564   0.536   1.055  15.891 -2.6093  0.6247 -2.1345
13025TIP3   OH260565   1.827   2.873  13.720 -0.1961  0.3734  0.0695
13025TIP3    H160566   1.915   2.837  13.717  0.1533  0.9714  2.2937
13025TIP3    H260567   1.838   2.966  13.699 -0.4995  0.1468 -1.1229
13026TIP3   OH260568   6.030   6.371   1.100 -0.3359  0.4241  0.0089
13026TIP3    H160569   6.122   6.376   1.074 -0.4598  2.6626 -0.1074
13026TIP3    H260570   6.022   6.285   1.142  1.5247 -0.2733 -0.9963
13027TIP3   OH260571   5.118   5.262   1.168  0.1001 -0.0577  0.0566
13027TIP3    H160572   5.123   5.357   1.161  0.2683 -0.0734 -0.0406
13027TIP3    H260573   5.030   5.240   1.139  0.3333 -0.0040 -0.6990
13028TIP3   OH260574   1.712   1.357  11.595 -0.0263 -0.4790 -0.2865
13028TIP3    H160575   1.794   1.372  11.547  0.2370 -1.5293 -0.1723
13028TIP3    H260576   1.693   1.442  11.636 -0.0788  0.3426 -1.9548
13029TIP3   OH260577   4.107   2.714  11.524 -0.2378 -0.3682  0.1306
13029TIP3    H160578   4.040   2.646  11.534  0.2538 -0.7465  0.9110
13029TIP3    H260579   4.189   2.669  11.546  0.3792 -0.1349 -1.6525
13030TIP3   OH260580   5.053   1.282  15.455  0.6398  0.2279  0.0691
13030TIP3    H160581   5.147   1.290  15.437  0.7740 -1.3112  0.0878
13030TIP3    H260582   5.020   1.226  15.385 -0.2329  0.5492  0.2229
13031TIP3   OH260583   0.608   5.756  14.061  0.0269  0.4498  0.2114
13031TIP3    H160584   0.522   5.738  14.023  0.4407  1.0072 -1.0306
13031TIP3    H260585   0.670   5.715  14.001  0.5625 -2.2294  2.4675
13032TIP3   OH260586   5.409   3.582   1.829 -0.0947  0.1624  0.3697
13032TIP3    H160587   5.428   3.659   1.883 -0.9645 -0.2885  1.3365
13032TIP3    H260588   5.485   3.525   1.842  0.4611  0.7589 -0.1910
13033TIP3   OH260589   6.066   5.887  16.531  0.2413  0.1824 -0.2527
13033TIP3    H160590   6.030   5.815  16.480 -0.1994  0.8604 -0.9219
13033TIP3    H260591   6.155   5.860  16.551  0.4530 -0.0586 -1.4791
13034TIP3   OH260592   2.149   2.843   0.289  0.1557  0.0453  0.0445
13034TIP3    H160593   2.129   2.751   0.302  0.5052  0.2628  2.2449
13034TIP3    H260594   2.202   2.845   0.209  0.8449 -1.7544  0.4362
13035TIP3   OH260595   4.522   3.402  11.571 -0.2114 -0.0683 -0.1262
13035TIP3    H160596   4.437   3.363  11.552  0.8863 -1.3594 -2.5774
13035TIP3    H260597   4.501   3.489  11.606 -2.5272 -0.3324 -0.7820
13036TIP3   OH260598   6.682   6.108  14.115  0.0183 -0.4841 -0.5841
13036TIP3    H160599   6.652   6.062  14.036 -1.1418 -0.1599 -0.3409
13036TIP3    H260600   6.736   6.044  14.161  0.1708 -0.8898 -1.3132
13037TIP3   OH260601   3.711   3.027  15.880 -0.3009  0.0439  0.0733
13037TIP3    H160602   3.796   3.006  15.918 -0.8894 -0.0076  1.4149
13037TIP3    H260603   3.724   3.111  15.835  0.6987 -0.4742 -0.6081
13038TIP3   OH260604   4.567   1.225  16.410 -0.2542 -0.1785  0.6180
13038TIP3    H160605   4.647   1.277  16.419  0.1978 -0.1457 -2.6770
13038TIP3    H260606   4.497   1.290  16.412  0.2436  0.5639 -2.4324
13039TIP3   OH260607   6.264   3.457  10.957  0.2805 -0.0108  0.4449
13039TIP3    H160608   6.172   3.474  10.979  0.7813  2.8182  0.4881
13039TIP3    H260609   6.266   3.452  10.862  0.1936  0.6244  0.4091
13040TIP3   OH260610   1.277   6.390  13.507  0.2120  0.3443  0.5331
13040TIP3    H160611   1.242   6.467  13.553 -2.6141  0.7392 -2.0766
13040TIP3    H260612   1.362   6.419  13.473  0.8668  1.0716  2.6980
13041TIP3   OH260613   2.462   6.582  14.381 -0.2058 -0.7925 -0.3634
13041TIP3    H160614   2.419   6.629  14.452  1.3399 -0.2012  0.1937
13041TIP3    H260615   2.446   6.490  14.400 -0.1894 -0.6180  0.5140
13042TIP3   OH260616   4.727   1.635   4.844  0.6278 -0.2430 -0.0550
13042TIP3    H160617   4.694   1.648   4.755  0.7636  0.6189  0.0180
13042TIP3    H260618   4.698   1.712   4.892  2.7327  0.5379  0.0211
13043TIP3   OH260619   5.839   6.643   3.921 -0.5514 -0.1782  0.2627
13043TIP3    H160620   5.789   6.576   3.876  0.2412 -0.6492  0.0835
13043TIP3    H260621   5.850   6.712   3.855 -0.5955 -0.2570  0.1715
13044TIP3   OH260622   5.876   2.910   5.224 -0.2837  0.4170  0.4202
13044TIP3    H160623   5.901   2.997   5.193 -0.2077 -0.0984 -1.0220
13044TIP3    H260624   5.955   2.876   5.266  0.4523  0.0997 -1.1875
13045TIP3   OH260625   4.442   2.387  14.481 -0.3320  0.2905  0.1245
13045TIP3    H160626   4.452   2.320  14.549 -3.1837 -0.4173 -0.0955
13045TIP3    H260627   4.406   2.463  14.527 -0.9373  0.2808 -0.3195
13046TIP3   OH260628   6.442   0.353   3.317 -0.5883  0.3447 -0.4050
13046TIP3    H160629   6.355   0.362   3.356 -0.2351  1.3265  0.1846
13046TIP3    H260630   6.499   0.404   3.375  0.4756 -0.7417 -0.4613
13047TIP3   OH260631   2.229   1.250  17.248  0.3393 -0.7986 -0.4305
13047TIP3    H160632   2.235   1.220  17.339  0.7925 -2.5449 -1.0256
13047TIP3    H260633   2.312   1.223  17.208 -1.0676 -2.7632 -2.1369
13048TIP3   OH260634   3.316   4.999   1.829 -0.0120  0.0696  0.0292
13048TIP3    H160635   3.265   5.029   1.905  1.7044  1.6671  0.5974
13048TIP3    H260636   3.273   4.918   1.801 -2.4156  1.0052  0.9175
13049TIP3   OH260637   0.571   6.152  13.621  0.1699  0.3012 -0.2692
13049TIP3    H160638   0.568   6.131  13.527 -2.8714  0.2369 -0.2318
13049TIP3    H260639   0.599   6.244  13.624 -1.1619  0.7668 -1.3632
13050TIP3   OH260640   0.400   0.642   2.113 -0.7307  0.7117  0.2483
13050TIP3    H160641   0.428   0.610   2.199  0.1351 -1.8140 -0.9254
13050TIP3    H260642   0.462   0.713   2.093  0.4178 -0.1286  0.7579
13051TIP3   OH260643   6.401   4.526  16.804  0.1745  0.1967  0.2899
13051TIP3    H160644   6.397   4.484  16.890  1.0450  1.9591  1.2269
13051TIP3    H260645   6.323   4.495  16.758 -0.9172  0.1330  2.1447
13052TIP3   OH260646   5.432   0.765  11.464  0.3410  0.2959 -0.2140
13052TIP3    H160647   5.511   0.710  11.466  0.4856  0.5385  0.8859
13052TIP3    H260648   5.374   0.720  11.402 -1.2719 -3.5198  3.7912
13053TIP3   OH260649   6.481   2.253  17.237 -0.2616 -0.3723 -0.6068
13053TIP3    H160650   6.435   2.267  17.155 -1.5983 -1.5599 -0.0779
13053TIP3    H260651   6.440   2.314  17.298 -0.0170 -0.2706 -0.5449
13054TIP3   OH260652   5.969   3.132   1.462 -0.4810  0.2419 -0.4090
13054TIP3    H160653   6.041   3.193   1.449 -0.3293  0.5243  1.5692
13054TIP3    H260654   5.891   3.180   1.436 -0.4372  1.5373  1.8053
13055TIP3   OH260655   2.086   3.424  15.313  0.4781 -0.0357 -0.5774
13055TIP3    H160656   2.057   3.491  15.374  0.3019 -0.0437 -0.6518
13055TIP3    H260657   2.182   3.425  15.319  0.4066 -1.1835  0.9284
13056TIP3   OH260658   5.602   6.100   3.541 -0.5696  0.2820  0.2943
13056TIP3    H160659   5.646   6.042   3.603  1.7656  1.8474  0.1702
13056TIP3    H260660   5.567   6.042   3.473 -0.9090 -1.2093  1.7312
13057TIP3   OH260661   1.603   6.472   2.497 -0.1358 -0.3369 -0.5157
13057TIP3    H160662   1.646   6.387   2.483 -0.2466 -0.3349 -0.8831
13057TIP3    H260663   1.621   6.520   2.416  0.8287  0.3757  0.1085
13058TIP3   OH260664   1.086   3.260  10.775 -0.0228 -0.3628 -0.3529
13058TIP3    H160665   1.074   3.170  10.804  0.5490 -0.8769 -1.6633
13058TIP3    H260666   1.176   3.282  10.800 -0.2950 -0.0045  0.3338
13059TIP3   OH260667   4.378   1.593   5.236  0.0404 -0.1485  0.4141
13059TIP3    H160668   4.422   1.508   5.244 -1.1051 -0.6580  1.5070
13059TIP3    H260669   4.286   1.571   5.220 -0.4086  0.8606  1.5038
13060TIP3   OH260670   3.604   5.485   3.797 -0.0726 -0.3943  0.1326
13060TIP3    H160671   3.687   5.438   3.793  0.9178  1.1608  1.7808
13060TIP3    H260672   3.626   5.576   3.777 -1.1426  0.2854  1.8549
13061TIP3   OH260673   2.569   3.462  14.805  0.3379  0.0084  0.0973
13061TIP3    H160674   2.597   3.401  14.737 -1.1967 -1.3458  0.6343
13061TIP3    H260675   2.555   3.545  14.760  0.6739 -0.5268 -0.9883
13062TIP3   OH260676   0.578   1.923   2.872  0.0419 -0.0656  0.1607
13062TIP3    H160677   0.621   1.912   2.787  0.9783 -0.0692  0.6221
13062TIP3    H260678   0.639   1.978   2.922 -0.1722 -0.6463  1.0619
13063TIP3   OH260679   1.868   2.911  15.413 -0.6313 -0.4314 -0.3160
13063TIP3    H160680   1.946   2.878  15.369 -0.9096 -1.3086 -0.1450
13063TIP3    H260681   1.817   2.833  15.435 -0.8948  0.0536  0.8130
13064TIP3   OH260682   4.860   5.033  16.176  0.3414 -0.7021  0.1121
13064TIP3    H160683   4.872   5.126  16.194  0.2404 -0.5688 -0.4861
13064TIP3    H260684   4.832   4.995  16.259 -1.5151  0.1332 -0.1117
13065TIP3   OH260685   3.413   2.115   2.431 -0.8153 -0.3483 -0.0392
13065TIP3    H160686   3.410   2.202   2.472  0.2777  0.2903 -1.2682
13065TIP3    H260687   3.389   2.055   2.501  0.7452  0.7309  1.4741
13066TIP3   OH260688   2.807   4.802  15.407 -0.2271 -0.5471 -0.4546
13066TIP3    H160689   2.758   4.801  15.490  0.2816  0.7266 -0.1274
13066TIP3    H260690   2.781   4.883  15.365  1.8533  0.3396 -0.1081
13067TIP3   OH260691   0.736   0.997   5.820  0.2484 -0.6676 -0.2091
13067TIP3    H160692   0.739   1.069   5.758  0.5314 -0.1142  0.4330
13067TIP3    H260693   0.763   1.036   5.903  2.5474 -1.9942 -0.2977
13068TIP3   OH260694   0.176   1.108   4.589  0.2895  0.0552  0.4791
13068TIP3    H160695   0.200   1.033   4.535 -1.0252  0.9642 -1.4368
13068TIP3    H260696   0.191   1.184   4.533 -0.9394  1.0380  1.4521
13069TIP3   OH260697   6.031   5.925   1.746  0.1129 -0.4229  0.2203
13069TIP3    H160698   6.041   5.831   1.729  1.8160  0.1304 -2.1442
13069TIP3    H260699   6.060   5.967   1.664 -0.7739  2.1474  1.1902
13070TIP3   OH260700   3.966   2.818  13.442  0.0917 -0.0226 -0.3820
13070TIP3    H160701   3.962   2.810  13.538  1.0639  0.1415 -0.3250
13070TIP3    H260702   3.988   2.909  13.427 -0.0433 -0.0546 -0.7678
13071TIP3   OH260703   5.340   0.417  17.230 -0.1147 -0.0611  0.6498
13071TIP3    H160704   5.367   0.480  17.296  1.0187 -0.5069  0.6091
13071TIP3    H260705   5.334   0.333  17.277 -0.3412 -0.1747  0.4202
13072TIP3   OH260706   5.855   0.007   0.482  0.1193  0.2386 -0.4124
13072TIP3    H160707   5.931  -0.036   0.519  0.2915  0.3532 -0.6333
13072TIP3    H260708   5.791   0.009   0.553  0.6242  0.8911  0.0217
13073TIP3   OH260709   1.440   3.844   4.429  0.0967 -0.0198  0.1511
13073TIP3    H160710   1.525   3.801   4.424  1.3996  2.5300 -0.4775
13073TIP3    H260711   1.402   3.813   4.511  1.3132 -1.7398  0.0769
13074TIP3   OH260712   5.380   4.591  14.187 -0.2235  0.1908  0.2176
13074TIP3    H160713   5.321   4.645  14.239 -0.4970 -1.2328  1.3933
13074TIP3    H260714   5.363   4.501  14.215  0.0136 -0.5581 -1.9219
13075TIP3   OH260715   4.084   1.847  14.827 -0.0466  0.1063  0.1384
13075TIP3    H160716   4.017   1.828  14.761  1.4357 -3.7357 -0.4174
13075TIP3    H260717   4.162   1.868  14.777  0.0776  1.1324  0.7463
13076TIP3   OH260718   5.702   1.806   3.993  0.5270 -0.2812 -0.2610
13076TIP3    H160719   5.782   1.844   4.029 -0.4090  1.2079  0.2959
13076TIP3    H260720   5.684   1.731   4.050  0.7950  0.1713  0.4273
13077TIP3   OH260721   3.849   3.271  11.866 -0.7041 -0.2255  0.0999
13077TIP3    H160722   3.793   3.280  11.944 -0.6750 -0.6808  0.1755
13077TIP3    H260723   3.916   3.208  11.893 -1.0710 -0.8717 -0.5125
13078TIP3   OH260724   4.699   2.664  15.116 -0.0143 -0.1630  0.2295
13078TIP3    H160725   4.615   2.709  15.120 -0.2955 -0.6952  0.2727
13078TIP3    H260726   4.763   2.735  15.109 -0.4875  0.2291 -0.1792
13079TIP3   OH260727   2.094   0.172   3.375  0.0197  0.5691 -0.6481
13079TIP3    H160728   2.017   0.120   3.352  0.4697  0.9845 -3.3600
13079TIP3    H260729   2.091   0.180   3.470  0.4762 -5.1911  0.0454
13080TIP3   OH260730   3.505   4.980   2.237  0.0027 -0.3859  0.1822
13080TIP3    H160731   3.525   5.004   2.146 -0.9273  0.1970  0.1221
13080TIP3    H260732   3.545   5.049   2.289  0.4596 -0.6724  0.2148
13081TIP3   OH260733   5.005   5.976   0.175  0.1506 -0.3884  0.1486
13081TIP3    H160734   5.078   6.021   0.131 -0.8162  2.9583  1.8356
13081TIP3    H260735   4.948   5.948   0.103  1.2479  0.2651 -0.9980
13082TIP3   OH260736   0.804   2.759   0.493 -0.1796 -0.0698 -0.5088
13082TIP3    H160737   0.852   2.801   0.422 -0.3408  0.2579 -0.4296
13082TIP3    H260738   0.736   2.707   0.450  0.2136 -0.4897 -0.6180
13083TIP3   OH260739   2.372   4.335  14.286  0.2312 -0.1252 -0.1255
13083TIP3    H160740   2.365   4.299  14.198 -1.8650  0.4089 -0.2042
13083TIP3    H260741   2.349   4.263  14.344  0.4665 -0.1542 -0.0681
13084TIP3   OH260742   4.484   1.001   4.976 -0.0581 -0.7900 -0.0219
13084TIP3    H160743   4.500   0.908   4.966  0.2318 -0.6515 -0.8793
13084TIP3    H260744   4.423   1.023   4.906  0.3637 -0.2169 -0.2176
13085TIP3   OH260745   3.386   4.593   1.097  0.0061 -0.5640 -0.2129
13085TIP3    H160746   3.436   4.526   1.050 -1.3552 -1.0008 -1.0550
13085TIP3    H260747   3.382   4.561   1.187  1.9336 -0.1184  0.0670
13086TIP3   OH260748   0.075   1.914  16.111  0.5417  0.6780  0.0731
13086TIP3    H160749   0.057   1.906  16.018  0.8022  0.9321  0.0044
13086TIP3    H260750   0.042   1.832  16.149  1.3506  0.1387 -0.3779
13087TIP3   OH260751   0.563   3.759   6.509  0.0494 -0.0039  0.1764
13087TIP3    H160752   0.578   3.813   6.588  0.5987  0.4959 -0.2675
13087TIP3    H260753   0.492   3.700   6.534 -1.4277  1.7671  0.2797
13088TIP3   OH260754   4.850   1.075  11.584 -0.0092 -0.2426  0.1625
13088TIP3    H160755   4.881   0.984  11.582 -1.1546 -0.6284 -0.2841
13088TIP3    H260756   4.796   1.080  11.663  0.4569  0.1942  0.4586
13089TIP3   OH260757   5.169   2.450   3.216  0.3497 -0.0643  0.5845
13089TIP3    H160758   5.090   2.465   3.268 -0.9894 -1.7788 -0.8723
13089TIP3    H260759   5.158   2.506   3.139  1.7917  1.6204  1.5736
13090TIP3   OH260760   3.060   1.757  16.103  0.4304 -0.1802 -0.5760
13090TIP3    H160761   3.027   1.684  16.051  1.7826 -0.6780 -0.7752
13090TIP3    H260762   2.982   1.799  16.139 -0.4230 -0.9959 -1.4376
13091TIP3   OH260763   6.546   6.516  10.934  0.8083 -0.1322 -0.0003
13091TIP3    H160764   6.492   6.476  11.002  0.3911  1.0263  0.3663
13091TIP3    H260765   6.549   6.451  10.865 -0.2800 -0.5938  0.3728
13092TIP3   OH260766   6.693   6.442  14.192 -0.1720 -0.6305 -0.2988
13092TIP3    H160767   6.725   6.532  14.198  1.0667 -1.0825  0.0457
13092TIP3    H260768   6.600   6.448  14.212 -0.2265  0.6643 -0.9096
13093TIP3   OH260769   0.682   2.893   1.052  0.1508 -0.7831  0.2507
13093TIP3    H160770   0.610   2.943   1.016 -0.0580 -0.5262  1.0124
13093TIP3    H260771   0.760   2.927   1.009  0.0512  0.4448  1.0190
13094TIP3   OH260772   4.128   2.457   1.837 -0.8401  0.1031  0.6763
13094TIP3    H160773   4.193   2.508   1.884  1.0563 -0.4900 -1.1942
13094TIP3    H260774   4.076   2.521   1.789 -0.9259  0.5286  1.3503
13095TIP3   OH260775   0.800   1.969  10.762 -0.1481  0.7699 -0.5048
13095TIP3    H160776   0.850   2.050  10.765 -1.2914  1.5089 -1.2121
13095TIP3    H260777   0.709   1.996  10.749 -0.7599 -0.5586  0.8112
13096TIP3   OH260778   5.344   5.831   4.907  0.3008 -0.1949  0.1475
13096TIP3    H160779   5.299   5.754   4.940  0.7288 -0.4431  0.1593
13096TIP3    H260780   5.274   5.894   4.887 -0.0396 -0.5479  0.2279
13097TIP3   OH260781   1.047   2.266  15.948  0.0371  0.1324  0.0653
13097TIP3    H160782   0.975   2.224  15.995  0.3525 -1.1497 -0.5734
13097TIP3    H260783   1.125   2.242  15.998  0.5021 -2.1901 -1.7290
13098TIP3   OH260784   3.396   1.690  12.933 -0.5173  0.1971 -0.4454
13098TIP3    H160785   3.311   1.653  12.910  0.3699 -1.4709 -1.1418
13098TIP3    H260786   3.440   1.705  12.849  0.3784 -0.2030 -0.0637
13099TIP3   OH260787   5.275   4.756  10.908 -0.4048  0.3158 -0.6401
13099TIP3    H160788   5.234   4.787  10.828 -1.0167 -1.6729 -1.1271
13099TIP3    H260789   5.255   4.662  10.911  0.8065  0.0780  1.1071
13100TIP3   OH260790   4.445   2.013  14.413 -0.6469 -0.1294 -0.1155
13100TIP3    H160791   4.511   1.964  14.365 -1.0923 -0.7840 -0.0628
13100TIP3    H260792   4.380   1.948  14.438 -0.8728  0.3571  0.5945
13101TIP3   OH260793   0.344   6.342   4.961  0.2563  0.5413  0.0343
13101TIP3    H160794   0.261   6.334   5.007 -0.0449  0.7584 -0.4708
13101TIP3    H260795   0.410   6.342   5.031 -0.0971 -0.6770  0.3721
13102TIP3   OH260796   5.863   2.228   0.178 -0.4376  0.0884 -0.1297
13102TIP3    H160797   5.867   2.304   0.119 -0.7069  0.1850 -0.0239
13102TIP3    H260798   5.796   2.171   0.140 -1.2227  0.5466  0.5463
13103TIP3   OH260799   1.012   0.200   3.000 -0.1677 -0.2480  0.2515
13103TIP3    H160800   1.013   0.113   2.961  1.7834 -0.5011  0.8544
13103TIP3    H260801   0.924   0.233   2.981 -0.7794 -2.1622 -0.3557
13104TIP3   OH260802   5.445   6.755  14.459  0.2776  0.7245  0.4302
13104TIP3    H160803   5.497   6.814  14.404 -0.1270  0.4851 -0.2086
13104TIP3    H260804   5.507   6.687  14.486  0.7665  1.4723  1.2338
13105TIP3   OH260805   2.271   4.836  15.810 -0.6811 -0.5461 -0.0337
13105TIP3    H160806   2.256   4.918  15.763  1.7129  0.2639  0.5429
13105TIP3    H260807   2.246   4.855  15.900  1.7909  0.2526  0.5443
13106TIP3   OH260808   2.182   3.748   5.060  0.3139  0.2768 -0.3000
13106TIP3    H160809   2.153   3.838   5.043 -0.2437  0.1937  0.1833
13106TIP3    H260810   2.274   3.757   5.084  0.5244  0.6162 -1.1955
13107TIP3   OH260811   0.459   1.662   0.152  0.5328 -1.0789  0.0064
13107TIP3    H160812   0.441   1.668   0.246  1.5879 -0.8066  0.2011
13107TIP3    H260813   0.469   1.569   0.135  2.1541 -1.0042  0.5216
13108TIP3   OH260814   6.715   1.353   0.017 -0.1079 -0.0633  0.5002
13108TIP3    H160815   6.689   1.261   0.020 -0.4993  0.0090 -0.5014
13108TIP3    H260816   6.810   1.351   0.023 -0.1440 -0.5085  0.9497
13109TIP3   OH260817   3.293   6.508  17.140  0.5695  0.8253 -0.6315
13109TIP3    H160818   3.234   6.550  17.077  0.4664  2.6839  0.6918
13109TIP3    H260819   3.374   6.495  17.091 -0.5016 -0.5929 -2.0806
13110TIP3   OH260820   4.381   3.441   3.542 -0.0031  0.6160  0.0768
13110TIP3    H160821   4.333   3.490   3.475  1.0893  2.4074  0.5751
13110TIP3    H260822   4.373   3.350   3.516 -0.1642  1.2416 -2.1184
13111TIP3   OH260823   0.570   2.824   3.073 -1.0024  0.4432  0.5821
13111TIP3    H160824   0.607   2.857   2.991  0.1325  0.5896  1.1396
13111TIP3    H260825   0.541   2.736   3.052 -0.5083  0.3982  0.0651
13112TIP3   OH260826   4.135   5.475  12.325 -0.4370  0.0195 -0.1567
13112TIP3    H160827   4.176   5.545  12.275 -2.5734 -0.2215 -2.3861
13112TIP3    H260828   4.174   5.395  12.292  0.5821  0.0314  0.9901
13113TIP3   OH260829   4.673   5.013  11.524 -0.2653 -0.0507 -0.7605
13113TIP3    H160830   4.761   4.985  11.547 -0.8880  0.2155  2.1360
13113TIP3    H260831   4.628   4.932  11.501  0.2953 -0.3737 -0.7303
13114TIP3   OH260832   6.766   2.152   5.503 -0.0961  0.3733 -0.6114
13114TIP3    H160833   6.763   2.074   5.559 -1.1318  0.6827 -0.2279
13114TIP3    H260834   6.726   2.221   5.556  0.6540  1.1371 -1.0186
13115TIP3   OH260835   5.959   0.061  11.183  0.5034  0.3436 -0.0400
13115TIP3    H160836   6.042   0.090  11.143  0.9684 -0.4281  0.3460
13115TIP3    H260837   5.983  -0.018  11.231 -0.0350  1.2669  1.8040
13116TIP3   OH260838   1.320   2.865   2.736 -0.0322 -0.2353  0.5726
13116TIP3    H160839   1.235   2.899   2.765  0.0022 -1.5181  2.2832
13116TIP3    H260840   1.356   2.934   2.680 -3.4234 -0.8428 -2.5129
13117TIP3   OH260841   0.157   0.106  11.760 -0.0710 -0.5844 -0.3087
13117TIP3    H160842   0.160   0.155  11.842  0.3773 -0.8419 -0.1715
13117TIP3    H260843   0.063   0.097  11.741 -0.1854 -0.7410  0.3028
13118TIP3   OH260844   6.527   0.178  14.148  0.2320  0.0033 -0.2090
13118TIP3    H160845   6.434   0.159  14.165  0.5503 -2.2165 -0.7778
13118TIP3    H260846   6.526   0.261  14.102 -1.5218 -0.2080 -0.5963
13119TIP3   OH260847   6.025   2.730  11.949  0.0790 -0.1481 -0.4203
13119TIP3    H160848   6.062   2.802  11.899  1.3175 -1.3313 -1.2674
13119TIP3    H260849   5.964   2.771  12.010 -1.0699  1.3936 -2.5423
13120TIP3   OH260850   6.617   4.133   0.105  0.3153  0.2262 -0.1859
13120TIP3    H160851   6.547   4.175   0.154 -0.7642  0.1035 -1.5849
13120TIP3    H260852   6.642   4.197   0.039  0.2036 -0.4364 -0.8914
13121TIP3   OH260853   4.021   4.886  14.518  0.3489  0.0554  0.0157
13121TIP3    H160854   3.931   4.908  14.541  0.0724 -1.2359  0.2274
13121TIP3    H260855   4.061   4.859  14.601  0.7280 -0.0180 -0.1907
13122TIP3   OH260856   0.244   4.257   0.432  0.0186  0.0357 -0.2675
13122TIP3    H160857   0.323   4.310   0.430  0.0240  0.0051 -0.8224
13122TIP3    H260858   0.179   4.308   0.384 -0.3893  0.2036  0.4583
13123TIP3   OH260859   3.704   6.255  15.303  0.0580 -0.1156 -0.2961
13123TIP3    H160860   3.719   6.228  15.212  0.6726  0.9782 -0.5270
13123TIP3    H260861   3.740   6.184  15.355  0.9162 -0.1351 -0.9040
13124TIP3   OH260862   6.801   2.925  15.584  0.5304  0.3686 -0.1086
13124TIP3    H160863   6.785   2.833  15.607  0.0605  0.4844  0.0172
13124TIP3    H260864   6.843   2.962  15.661  0.4649  0.3323 -0.0557
13125TIP3   OH260865   1.784   2.216   5.520  0.4062 -0.0402 -0.4052
13125TIP3    H160866   1.880   2.221   5.521  0.4025 -0.0963  0.9226
13125TIP3    H260867   1.756   2.307   5.522  0.4213  0.0470 -2.7560
13126TIP3   OH260868   1.406   5.875  11.824  0.1977  0.9033 -0.3489
13126TIP3    H160869   1.369   5.893  11.738  1.0631  2.5916 -0.3858
13126TIP3    H260870   1.407   5.961  11.868  1.4040  0.3672  0.6874
13127TIP3   OH260871   6.248   2.353   2.080 -0.3201  0.1256 -0.0479
13127TIP3    H160872   6.243   2.449   2.073  0.2840  0.1839  0.3185
13127TIP3    H260873   6.268   2.337   2.172 -2.7464 -0.4329  0.4440
13128TIP3   OH260874   3.267   5.293  13.476  0.4922 -0.0404  0.1170
13128TIP3    H160875   3.313   5.265  13.555  2.5500 -0.0405 -1.0467
13128TIP3    H260876   3.175   5.271  13.493  0.7628  0.7681  2.8366
13129TIP3   OH260877   4.011   4.685  17.151 -0.6984  0.1758  0.3930
13129TIP3    H160878   3.989   4.595  17.130  0.3458  0.0458 -0.2051
13129TIP3    H260879   4.027   4.727  17.066  0.0631  0.5857  0.7289
13130TIP3   OH260880   0.157   5.308  16.148  0.0405 -0.0950  0.4201
13130TIP3    H160881   0.126   5.295  16.238  1.4944 -0.0396  0.9352
13130TIP3    H260882   0.133   5.227  16.103 -0.9059 -0.0301  0.7994
13131TIP3   OH260883   3.946   6.194  11.519  0.5759 -0.4172 -0.8034
13131TIP3    H160884   4.038   6.216  11.505  1.0225 -0.7119  1.3719
13131TIP3    H260885   3.948   6.116  11.575 -0.9185  2.4926  3.5417
13132TIP3   OH260886   1.397   3.883   5.104  0.0703 -0.1741  0.0457
13132TIP3    H160887   1.311   3.925   5.106 -0.9388 -2.1454 -0.1673
13132TIP3    H260888   1.420   3.880   5.011 -0.6911 -1.6900 -0.1044
13133TIP3   OH260889   5.064   0.595   3.696 -0.2401 -0.0551  0.3110
13133TIP3    H160890   5.083   0.554   3.780  0.8746 -1.0446 -0.3982
13133TIP3    H260891   5.040   0.522   3.639 -2.6452  0.8038  0.2102
13134TIP3   OH260892   3.681   5.553  10.955 -0.5594  0.0915  0.1380
13134TIP3    H160893   3.649   5.638  10.927  2.2141  2.4476  3.6164
13134TIP3    H260894   3.713   5.511  10.875  0.4022  3.4247 -1.3010
13135TIP3   OH260895   6.141   2.963  16.132  0.2448  0.1040 -0.1439
13135TIP3    H160896   6.202   2.893  16.155 -0.4572 -0.1006  1.1390
13135TIP3    H260897   6.135   3.018  16.210  0.4052  1.3295 -0.9620
13136TIP3   OH260898   0.770   6.185   3.614  0.5693  0.1221  0.4436
13136TIP3    H160899   0.790   6.189   3.521 -0.3369  0.6486  0.2742
13136TIP3    H260900   0.810   6.264   3.651 -0.0388  0.4846  0.3227
13137TIP3   OH260901   3.393   2.524  12.614  0.1355 -0.1312 -0.2793
13137TIP3    H160902   3.306   2.530  12.654  0.1579 -0.7367 -0.1344
13137TIP3    H260903   3.428   2.613  12.620 -0.5511  0.1527 -0.5179
13138TIP3   OH260904   6.548   6.228  10.886  0.1871 -0.1203 -0.2850
13138TIP3    H160905   6.555   6.155  10.824 -0.3301  0.6461 -1.2396
13138TIP3    H260906   6.468   6.210  10.935  1.1308 -1.2725  0.8856
13139TIP3   OH260907   3.632   0.828   2.345  0.3222  0.1374  0.2166
13139TIP3    H160908   3.656   0.787   2.428 -0.8259 -2.9601 -0.8858
13139TIP3    H260909   3.537   0.816   2.339  0.5156 -0.6647 -1.9746
13140TIP3   OH260910   1.817   0.624   0.529  0.5476  0.2219  0.3525
13140TIP3    H160911   1.793   0.588   0.614  1.4340  0.3783  0.6771
13140TIP3    H260912   1.742   0.604   0.472 -0.1997  0.4226  1.2506
13141TIP3   OH260913   0.730   5.873  12.431  0.4594  0.8179 -0.2567
13141TIP3    H160914   0.707   5.838  12.517  1.0109  2.3943  0.5508
13141TIP3    H260915   0.800   5.816  12.399 -1.4143 -1.2775 -0.7714
13142TIP3   OH260916   6.454   4.387  15.545 -0.5579  0.1763  0.4084
13142TIP3    H160917   6.408   4.388  15.462 -1.7486  0.6568  1.0582
13142TIP3    H260918   6.547   4.380  15.522 -0.9760 -1.2285 -0.9043
13143TIP3   OH260919   2.912   0.969  15.372  0.0356  0.3242  0.4685
13143TIP3    H160920   2.823   1.000  15.355  0.4775  0.4274 -1.8465
13143TIP3    H260921   2.964   1.049  15.377  0.1237  0.2296  1.1105
13144TIP3   OH260922   6.605   4.952  17.211 -0.6716  0.0374  0.1430
13144TIP3    H160923   6.691   4.911  17.206 -0.7637 -0.0926 -0.5619
13144TIP3    H260924   6.613   5.019  17.279  0.5049  1.2245 -1.1165
13145TIP3   OH260925   5.289   6.708   0.566  0.2171  0.1981 -0.3139
13145TIP3    H160926   5.210   6.740   0.522 -1.2901 -0.3051  1.9335
13145TIP3    H260927   5.256   6.646   0.632  2.6072 -1.1461 -0.3369
13146TIP3   OH260928   6.770   1.323   3.768 -0.0298  0.0653  0.2650
13146TIP3    H160929   6.776   1.378   3.847  0.4140 -0.5506  0.6651
13146TIP3    H260930   6.769   1.234   3.801 -1.5547 -0.1534 -0.3499
13147TIP3   OH260931   1.120   3.321  16.626 -0.2983 -0.7011  0.0749
13147TIP3    H160932   1.166   3.405  16.619  3.1294 -2.4472  0.5125
13147TIP3    H260933   1.124   3.285  16.538  0.3370 -1.4181  0.3895
13148TIP3   OH260934   6.302   4.186  11.928  0.2027 -0.7174 -0.0744
13148TIP3    H160935   6.320   4.272  11.890 -0.5786 -0.4991  0.0508
13148TIP3    H260936   6.255   4.205  12.009  1.1320 -1.2152  0.5978
13149TIP3   OH260937   4.233   5.661  13.332  0.3478  0.2599  0.3106
13149TIP3    H160938   4.207   5.728  13.395  2.2088  2.4247 -1.1435
13149TIP3    H260939   4.160   5.658  13.270 -1.1680 -1.3769  2.1159
13150TIP3   OH260940   5.503   1.030  13.741  0.0986  0.9671  0.0513
13150TIP3    H160941   5.416   1.009  13.707 -0.0178  3.1556 -1.0998
13150TIP3    H260942   5.492   1.115  13.783  1.1745  0.1559  2.0425
13151TIP3   OH260943   5.553   3.827  12.179 -0.3856  0.0715 -0.9294
13151TIP3    H160944   5.502   3.789  12.251 -0.2448 -1.9528 -1.8760
13151TIP3    H260945   5.631   3.863  12.222 -2.3549  2.9014  0.4911
13152TIP3   OH260946   3.191   6.203  14.560 -0.4389  0.0486 -0.1297
13152TIP3    H160947   3.185   6.265  14.633 -1.8000 -0.6743  0.3830
13152TIP3    H260948   3.226   6.255  14.487  0.9731  0.7606  1.0372
13153TIP3   OH260949   3.124   4.788   1.784  0.4862  0.4822 -0.0015
13153TIP3    H160950   3.067   4.774   1.859  2.3123  1.1256  1.5648
13153TIP3    H260951   3.078   4.853   1.730 -1.7727 -1.4883 -0.5122
13154TIP3   OH260952   4.482   6.417   1.427 -0.2481  0.1096  0.4231
13154TIP3    H160953   4.494   6.420   1.522  0.0984 -1.4050  0.4387
13154TIP3    H260954   4.460   6.326   1.409  2.6706 -0.3420 -1.2739
13155TIP3   OH260955   1.914   1.934   1.655  0.0066  0.3586  0.1230
13155TIP3    H160956   1.930   1.989   1.578  1.4489 -1.4117 -0.8871
13155TIP3    H260957   1.998   1.931   1.700 -0.7407  1.0658  1.5779
13156TIP3   OH260958   1.629   5.164   3.354 -0.1107  0.3630 -0.1037
13156TIP3    H160959   1.591   5.243   3.393  0.8215  0.6052  0.3255
13156TIP3    H260960   1.634   5.184   3.261 -0.8332  0.4081 -0.1397
13157TIP3   OH260961   6.095   4.074   3.350 -0.3063 -0.2009  0.3373
13157TIP3    H160962   6.030   4.145   3.352 -0.5084 -0.4163  2.4744
13157TIP3    H260963   6.177   4.116   3.376 -0.0931 -0.4358  0.0503
13158TIP3   OH260964   1.968   0.769  13.031 -0.1631  0.0599  0.5172
13158TIP3    H160965   1.940   0.772  13.123 -1.0235 -1.1701  0.3001
13158TIP3    H260966   1.902   0.716  12.987  1.5642 -1.4474 -0.3433
13159TIP3   OH260967   5.804   5.563   3.146 -0.0583  0.1955 -0.0223
13159TIP3    H160968   5.727   5.613   3.174 -0.9448 -1.7398  1.1014
13159TIP3    H260969   5.877   5.623   3.157 -1.1206  1.2822  1.2160
13160TIP3   OH260970   5.789   2.596  12.766  0.3569  0.2347 -0.9274
13160TIP3    H160971   5.760   2.675  12.811 -0.9545  0.9193 -2.8736
13160TIP3    H260972   5.827   2.541  12.835 -1.4872  1.2629  0.9760
13161TIP3   OH260973   5.532   5.290   4.618 -0.0376  0.1653  0.8199
13161TIP3    H160974   5.625   5.310   4.622  0.3765 -1.3480 -0.5942
13161TIP3    H260975   5.491   5.369   4.583  1.0853 -0.1176 -1.2001
13162TIP3   OH260976   3.965   1.925  15.320 -0.3327  0.2248 -0.1790
13162TIP3    H160977   4.000   1.836  15.312 -1.2604 -0.0702 -1.0248
13162TIP3    H260978   3.984   1.966  15.235  2.4397  1.7139  1.0787
13163TIP3   OH260979   0.348   0.103  11.217  0.1532  0.5101  0.5944
13163TIP3    H160980   0.399   0.036  11.171 -2.0811 -0.4777 -0.5368
13163TIP3    H260981   0.375   0.185  11.177  0.8046  0.0079 -0.0269
13164TIP3   OH260982   0.119   5.161   5.677 -0.5946  0.2489  0.1397
13164TIP3    H160983   0.146   5.224   5.743  0.4326 -1.1547  1.0815
13164TIP3    H260984   0.199   5.140   5.629 -1.2512  0.9457 -1.2989
13165TIP3   OH260985   3.481   3.143   0.716  0.0363  0.6466  0.3598
13165TIP3    H160986   3.449   3.058   0.746 -1.2726  0.1469 -2.3262
13165TIP3    H260987   3.570   3.126   0.685 -0.0706  0.3572  0.2184
13166TIP3   OH260988   6.110   5.842   4.014  0.6205  0.3621 -0.1149
13166TIP3    H160989   6.143   5.920   3.969  1.2493  0.2652  0.1833
13166TIP3    H260990   6.147   5.846   4.102  1.3202 -0.6941 -0.3483
13167TIP3   OH260991   6.213   4.304   0.025  0.0471  0.4545 -0.2413
13167TIP3    H160992   6.134   4.329   0.074  0.9265 -1.8759  2.5289
13167TIP3    H260993   6.190   4.219  -0.014  0.0232  1.4070 -2.3806
13168TIP3   OH260994   1.459   4.059   2.186 -0.0492 -0.0834  0.0734
13168TIP3    H160995   1.514   4.135   2.204 -0.2465  0.2522 -0.7164
13168TIP3    H260996   1.414   4.043   2.268  0.5193  0.2222  0.4523
13169TIP3   OH260997   2.274   0.731   0.134  0.2145 -0.2281  0.0576
13169TIP3    H160998   2.282   0.758   0.225  0.6393 -0.0670 -0.0258
13169TIP3    H260999   2.249   0.639   0.138 -2.4255  0.4782  0.3596
13170TIP3   OH261000   2.856   5.655   0.557 -0.5390 -0.1640 -0.1319
13170TIP3    H161001   2.788   5.637   0.493 -1.5073 -2.2726  1.4376
13170TIP3    H261002   2.938   5.638   0.510 -1.2528 -2.1980 -0.6836
13171TIP3   OH261003   5.925   4.326  11.629  0.2990  0.3361  0.1493
13171TIP3    H161004   5.946   4.383  11.555 -0.2368  1.4292  0.8356
13171TIP3    H261005   5.967   4.366  11.704 -1.7677  0.9660  1.0149
13172TIP3   OH261006   2.145   5.740  16.050  0.2432  0.2928  0.1759
13172TIP3    H161007   2.065   5.789  16.069 -0.1834 -0.2359 -0.2633
13172TIP3    H261008   2.130   5.702  15.964  0.2563 -1.2586  0.8538
13173TIP3   OH261009   1.664   0.971   2.899  0.5756  0.1705 -0.6393
13173TIP3    H161010   1.602   0.898   2.900  2.5377 -1.5569  0.6780
13173TIP3    H261011   1.654   1.012   2.985  0.6949  0.3556 -0.7130
13174TIP3   OH261012   4.283   5.011   4.913 -0.6538  0.4594 -0.1750
13174TIP3    H161013   4.310   4.922   4.893  1.2441  0.9218  0.3167
13174TIP3    H261014   4.364   5.062   4.913 -1.6648  2.1045 -0.0163
13175TIP3   OH261015   6.625   0.829   2.810  0.5046 -0.0745 -0.1686
13175TIP3    H161016   6.663   0.774   2.742 -3.2341 -1.7497 -1.0296
13175TIP3    H261017   6.538   0.793   2.824 -0.7722  3.4982  1.7703
13176TIP3   OH261018   0.236   0.488  16.195 -0.1585  0.5151 -0.2529
13176TIP3    H161019   0.207   0.566  16.243 -1.2673 -0.5904  0.9305
13176TIP3    H261020   0.159   0.461  16.145  0.2099  0.1556 -0.6241
13177TIP3   OH261021   1.895   5.272  11.687  0.4343 -0.5313  0.8559
13177TIP3    H161022   1.965   5.300  11.746  0.5007  0.9075  0.1202
13177TIP3    H261023   1.940   5.253  11.604 -0.2382  2.1215 -0.1525
13178TIP3   OH261024   4.670   4.657   1.581  0.1504  0.1524 -0.3253
13178TIP3    H161025   4.657   4.742   1.624 -0.4684 -0.5781  0.9544
13178TIP3    H261026   4.597   4.603   1.612 -0.2229 -0.4325 -2.1990
13179TIP3   OH261027   5.364   6.602   5.261 -0.3712  0.0250  0.2156
13179TIP3    H161028   5.454   6.599   5.295 -0.0264  1.4901 -0.5147
13179TIP3    H261029   5.314   6.545   5.319  1.1912 -1.4511  0.1596
13180TIP3   OH261030   3.768   4.283   3.330 -0.7862  0.2529 -0.3069
13180TIP3    H161031   3.843   4.250   3.380 -0.4257  1.1185 -0.2721
13180TIP3    H261032   3.709   4.208   3.324  1.3744 -1.3036 -2.8756
13181TIP3   OH261033   3.347   3.551   0.749 -0.0971 -0.1718 -0.3189
13181TIP3    H161034   3.440   3.555   0.769 -0.6399 -0.5399  2.5273
13181TIP3    H261035   3.331   3.459   0.726 -0.0600 -0.4712  0.8410
13182TIP3   OH261036   2.917   5.754  14.989  0.5230  0.7679  0.1264
13182TIP3    H161037   2.982   5.806  15.036  2.7083 -1.2475 -0.5372
13182TIP3    H261038   2.920   5.787  14.899  0.8145  0.5233  0.0448
13183TIP3   OH261039   5.423   3.697   5.296  0.6625 -0.4862  0.2615
13183TIP3    H161040   5.446   3.721   5.207  0.0930 -2.2873 -0.4040
13183TIP3    H261041   5.426   3.779   5.345  0.8867  0.5368 -1.4239
13184TIP3   OH261042   3.057   1.220   5.106  0.1077  0.0512  0.0137
13184TIP3    H161043   3.078   1.219   5.199 -1.7428  2.0795  0.5002
13184TIP3    H261044   3.085   1.306   5.076 -2.0884  0.5786 -0.5992
13185TIP3   OH261045   5.027   3.438   3.126  0.0838  0.6716  0.2418
13185TIP3    H161046   5.043   3.517   3.179  1.4530  0.8250 -0.3654
13185TIP3    H261047   5.113   3.396   3.121 -0.3829 -0.1982 -0.5092
13186TIP3   OH261048   0.234   5.649  15.587 -0.0822  0.0835  0.7711
13186TIP3    H161049   0.283   5.713  15.638 -1.3252  1.0941  0.7291
13186TIP3    H261050   0.197   5.590  15.651 -0.2250  0.3406  0.9276
13187TIP3   OH261051   3.278   3.077   5.313 -0.4177  0.2575  0.4891
13187TIP3    H161052   3.355   3.046   5.361  0.7709  1.0428 -0.8667
13187TIP3    H261053   3.308   3.086   5.222 -2.7261 -1.6232 -0.5122
13188TIP3   OH261054   5.530   4.353   5.978  0.4037  0.4978  0.1475
13188TIP3    H161055   5.499   4.442   5.997 -2.7372 -0.6241  0.5204
13188TIP3    H261056   5.522   4.307   6.061 -0.6585 -0.8570 -0.6787
13189TIP3   OH261057   1.306   6.296   0.129 -0.1372  0.1625  0.1348
13189TIP3    H161058   1.391   6.340   0.128 -0.1293  0.1391 -0.6493
13189TIP3    H261059   1.305   6.243   0.049 -0.9534  0.2867  0.0531
13190TIP3   OH261060   0.950   6.368  14.163  0.7018  0.6821  0.5633
13190TIP3    H161061   0.973   6.459  14.144 -0.9201  1.1562  0.7769
13190TIP3    H261062   0.855   6.369  14.173  0.4777 -1.3245 -1.0322
13191TIP3   OH261063   2.097   6.287   0.181  0.0962  0.4502 -0.1070
13191TIP3    H161064   2.106   6.246   0.095  0.8930  0.7778 -0.1799
13191TIP3    H261065   2.172   6.346   0.188  0.7828 -0.5674  1.3565
13192TIP3   OH261066   3.879   6.722   3.400 -0.1186 -0.4611 -0.1678
13192TIP3    H161067   3.830   6.658   3.348 -2.3072  0.6894  0.4117
13192TIP3    H261068   3.847   6.807   3.369 -0.1437  0.2700  1.8160
13193TIP3   OH261069   6.384   4.105   3.034  0.2632  0.0183  0.1016
13193TIP3    H161070   6.475   4.078   3.036  0.1133 -0.6572 -1.4879
13193TIP3    H261071   6.379   4.177   3.097  2.0312  0.5016 -0.2815
13194TIP3   OH261072   5.829   0.528  10.899  0.3295  0.3521 -0.1995
13194TIP3    H161073   5.909   0.579  10.911  1.6636 -1.7841  0.3890
13194TIP3    H261074   5.783   0.570  10.827  2.8380  0.6088 -1.7013
13195TIP3   OH261075   0.526   6.795   2.111 -0.3293  0.1439  0.1655
13195TIP3    H161076   0.528   6.756   2.023 -4.8997  0.1164 -0.0575
13195TIP3    H261077   0.489   6.726   2.167 -2.2476  1.8347  1.0654
13196TIP3   OH261078   0.211   4.127   6.013  0.5278 -0.0774 -0.8788
13196TIP3    H161079   0.224   4.034   5.993  0.9284  0.0189 -1.0663
13196TIP3    H261080   0.134   4.151   5.962 -0.4656 -0.6734  0.3146
13197TIP3   OH261081   0.864   3.961  16.454 -0.0797  0.0518  0.2048
13197TIP3    H161082   0.855   3.880  16.403 -1.6893  0.4947 -0.2674
13197TIP3    H261083   0.788   4.014  16.428 -1.0589  0.2314  3.1484
13198TIP3   OH261084   4.722   5.897   4.004  0.2886  0.4781  0.1601
13198TIP3    H161085   4.802   5.927   3.962 -1.0607  0.6467 -2.3809
13198TIP3    H261086   4.726   5.801   3.999  0.8200  0.4495  1.0139
13199TIP3   OH261087   5.901   2.843   0.107  0.4708  0.0114  0.5153
13199TIP3    H161088   5.892   2.748   0.094 -1.4959  0.2427  0.0701
13199TIP3    H261089   5.925   2.877   0.021 -1.8179  0.2557 -0.0531
13200TIP3   OH261090   1.009   1.916   0.030  0.5738 -0.4235 -0.1046
13200TIP3    H161091   1.058   1.916  -0.052 -0.8016 -1.6433 -0.9518
13200TIP3    H261092   0.957   1.996   0.027  1.3522  0.0994  0.1017
13201TIP3   OH261093   1.435   0.783  14.009 -0.6414 -0.5880  0.0641
13201TIP3    H161094   1.393   0.834  13.940 -1.0434 -0.0462  0.7081
13201TIP3    H261095   1.362   0.743  14.057 -0.5539  1.8050  2.3149
13202TIP3   OH261096   3.947   5.036   3.516  0.1952  0.0324  0.1834
13202TIP3    H161097   3.922   5.091   3.591  0.1798  0.9585 -0.5011
13202TIP3    H261098   4.043   5.030   3.523  0.0359 -1.4925  1.3875
13203TIP3   OH261099   2.090   2.073   4.549  0.0459 -0.6787 -0.5997
13203TIP3    H161100   2.174   2.063   4.504  1.6631 -0.3973  2.2341
13203TIP3    H261101   2.106   2.143   4.613 -1.4794 -2.6194  1.9667
13204TIP3   OH261102   1.824   3.716  15.225  0.3990 -0.0796 -0.7089
13204TIP3    H161103   1.842   3.624  15.205  2.5573 -0.0282  0.8144
13204TIP3    H261104   1.910   3.758  15.226 -0.2186  1.2604  1.7906
13205TIP3   OH261105   4.188   4.885   2.868  0.4001  0.0421  0.6346
13205TIP3    H161106   4.127   4.869   2.796  0.9529 -1.8942  0.5517
13205TIP3    H261107   4.140   4.941   2.929 -0.6018  0.4728 -0.5334
13206TIP3   OH261108   0.546   5.021  17.171  0.1664  0.0045 -0.2515
13206TIP3    H161109   0.521   4.975  17.091  0.0490  1.3836 -1.0396
13206TIP3    H261110   0.640   5.034  17.163  0.0574  0.6867 -0.4701
13207TIP3   OH261111   2.751   4.192   0.267  0.3207  0.1699 -0.0646
13207TIP3    H161112   2.788   4.144   0.340  0.6525 -0.6433 -0.7584
13207TIP3    H261113   2.825   4.242   0.231  0.0565  0.9335  0.4357
13208TIP3   OH261114   1.114   1.822   0.267  0.5918 -0.0430  0.1539
13208TIP3    H161115   1.029   1.782   0.285 -0.3356  1.3644 -1.0247
13208TIP3    H261116   1.126   1.813   0.173  0.3831  2.3404 -0.1433
13209TIP3   OH261117   6.701   2.828   5.387  0.1155 -0.1982 -0.2145
13209TIP3    H161118   6.710   2.918   5.356  0.6738 -0.2022 -0.0641
13209TIP3    H261119   6.703   2.774   5.308 -0.6915 -0.0510 -0.3456
13210TIP3   OH261120   0.369   2.254  15.219 -0.2951  0.2009  0.1264
13210TIP3    H161121   0.341   2.323  15.279 -2.0709 -1.9607  1.8679
13210TIP3    H261122   0.405   2.186  15.275  2.0463 -0.0663 -1.6233
13211TIP3   OH261123   2.334   4.024   4.294 -0.1868 -0.0233 -0.0644
13211TIP3    H161124   2.292   4.026   4.380  2.3779 -1.4580  1.2661
13211TIP3    H261125   2.353   3.932   4.278  1.7440  0.4930 -0.9672
13212TIP3   OH261126   5.999   3.764   1.802  0.3116 -0.1327  0.0968
13212TIP3    H161127   6.074   3.707   1.786 -0.7920 -1.5214 -0.2538
13212TIP3    H261128   6.004   3.786   1.895  0.2538 -1.5272  0.4303
13213TIP3   OH261129   1.537   0.492   6.058 -0.3639  0.4871  0.3483
13213TIP3    H161130   1.468   0.486   5.992 -0.5306  1.2579  0.4430
13213TIP3    H261131   1.589   0.568   6.032  0.6213 -0.2616  0.1256
13214TIP3   OH261132   1.841   2.074  16.402 -0.0661  0.1247 -0.1130
13214TIP3    H161133   1.906   2.056  16.333  0.9681  1.6867  0.4236
13214TIP3    H261134   1.889   2.127  16.466 -1.6034  0.4415  0.7820
13215TIP3   OH261135   6.323   2.947   6.077  0.3213 -0.0869  0.0397
13215TIP3    H161136   6.297   2.999   6.154 -0.9990 -0.5095 -0.0990
13215TIP3    H261137   6.284   2.861   6.093 -0.4514 -0.0107 -1.3716
13216TIP3   OH261138   1.601   1.633   0.337 -0.2262  0.0904 -0.1337
13216TIP3    H161139   1.696   1.622   0.332 -0.4906 -2.3085 -0.2649
13216TIP3    H261140   1.587   1.725   0.314  2.1085  0.6648  0.6017
13217TIP3   OH261141   1.251   0.490  11.488  0.0736 -0.3153  0.0578
13217TIP3    H161142   1.175   0.517  11.437 -0.6302 -1.8701  0.2421
13217TIP3    H261143   1.254   0.395  11.477  0.2080 -0.6239  2.5040
13218TIP3   OH261144   5.923   4.081  17.223  0.4359 -0.3942 -0.9263
13218TIP3    H161145   5.941   4.144  17.293  1.1694 -0.5196 -1.0077
13218TIP3    H261146   6.008   4.046  17.198 -0.0216 -1.8628 -0.4795
13219TIP3   OH261147   5.933   6.136   1.317 -0.4862  0.1339  0.8615
13219TIP3    H161148   5.980   6.102   1.241  0.0147  0.2874  1.1004
13219TIP3    H261149   5.953   6.075   1.388  1.6188  1.7081  1.6651
13220TIP3   OH261150   4.522   0.775   3.198  0.4346 -0.3142  0.0831
13220TIP3    H161151   4.543   0.810   3.285  0.0212 -1.4219  0.6300
13220TIP3    H261152   4.514   0.681   3.211  0.6460 -0.5191 -1.2176
13221TIP3   OH261153   1.398   3.719  10.895 -0.0355 -0.4047 -0.0247
13221TIP3    H161154   1.451   3.640  10.882 -0.1947 -0.8022  1.6035
13221TIP3    H261155   1.316   3.686  10.933 -0.8707  0.3492 -1.1684
13222TIP3   OH261156   6.569   6.303   3.693 -0.4951  0.0117 -0.2414
13222TIP3    H161157   6.549   6.308   3.786 -0.7328 -0.9064 -0.2330
13222TIP3    H261158   6.542   6.215   3.667  4.3606 -1.6997 -0.0238
13223TIP3   OH261159   3.408   0.937  16.678 -0.4483  0.3943  0.2692
13223TIP3    H161160   3.439   1.026  16.694  0.7015  0.4312 -1.9797
13223TIP3    H261161   3.485   0.890  16.645 -1.2794 -1.1862  0.4967
13224TIP3   OH261162   4.800   2.398  13.382 -0.0004 -0.3732  0.0724
13224TIP3    H161163   4.868   2.461  13.403  0.3534 -0.8102  0.2511
13224TIP3    H261164   4.818   2.323  13.439 -0.2500 -0.7444 -0.3279
13225TIP3   OH261165   2.832   0.687  15.329 -0.4333  0.4485  0.6375
13225TIP3    H161166   2.871   0.774  15.332 -0.2374  0.4006 -0.3552
13225TIP3    H261167   2.747   0.700  15.287 -0.1507  0.0725 -0.0607
13226TIP3   OH261168   0.996   2.130  14.209 -0.6853  0.4830 -0.1245
13226TIP3    H161169   0.959   2.108  14.294  1.5776 -0.7738  0.5890
13226TIP3    H261170   1.040   2.050  14.180  1.1322  1.7843 -1.0674
13227TIP3   OH261171   5.292   5.469  15.525 -0.5143  0.6870 -0.0957
13227TIP3    H161172   5.363   5.427  15.476  0.3287  0.9151  0.9088
13227TIP3    H261173   5.280   5.554  15.483 -1.3303 -0.0136 -1.3093
13228TIP3   OH261174   3.831   1.826   4.364  0.0564 -0.5335 -0.1585
13228TIP3    H161175   3.738   1.835   4.387  0.0967 -1.1649  0.2583
13228TIP3    H261176   3.848   1.900   4.305 -1.2555 -1.6633 -1.9936
13229TIP3   OH261177   0.993   6.569  15.382  0.3690 -0.1557  0.3882
13229TIP3    H161178   1.088   6.571  15.386  0.3270  1.0004  1.0689
13229TIP3    H261179   0.972   6.594  15.292  0.6995 -0.0219  0.3485
13230TIP3   OH261180   3.334   6.444   5.637 -0.5333  0.1179 -0.4773
13230TIP3    H161181   3.379   6.384   5.697 -0.3791 -0.4417 -1.1528
13230TIP3    H261182   3.241   6.435   5.661 -0.3461  0.8914  0.5686
13231TIP3   OH261183   3.933   4.440  11.226  0.1047 -0.3990 -0.3900
13231TIP3    H161184   3.873   4.368  11.205 -1.0299 -0.1444  1.9162
13231TIP3    H261185   3.887   4.519  11.199  0.4190 -0.3660 -0.8397
13232TIP3   OH261186   0.559   4.301   5.018  0.6328  0.2258 -0.7299
13232TIP3    H161187   0.519   4.386   5.000  1.5944  0.2398 -3.0507
13232TIP3    H261188   0.493   4.252   5.067 -1.0554  1.3040 -1.8877
13233TIP3   OH261189   2.152   0.963  14.656  0.1614  0.8033 -0.2198
13233TIP3    H161190   2.197   0.887  14.619  0.7822  0.4010  1.3234
13233TIP3    H261191   2.150   0.946  14.751 -1.6758  1.6534 -0.0797
13234TIP3   OH261192   6.523   6.644  16.660  0.4797 -0.3654 -0.0567
13234TIP3    H161193   6.596   6.639  16.598  1.8144 -0.2863  1.4491
13234TIP3    H261194   6.506   6.553  16.683  0.2564 -0.3707 -0.2519
13235TIP3   OH261195   2.213   0.408   1.516  0.4486 -0.3403 -0.3297
13235TIP3    H161196   2.238   0.450   1.599  0.8440 -0.7750 -0.2298
13235TIP3    H261197   2.132   0.454   1.490  0.0315 -0.5548  0.5627
13236TIP3   OH261198   1.023   0.631   0.068 -0.6967 -0.0780  0.3139
13236TIP3    H161199   1.063   0.587   0.143  1.3365 -0.2809 -0.8592
13236TIP3    H261200   1.027   0.724   0.091  1.6524  0.0185 -0.2933
13237TIP3   OH261201   1.583   5.128   6.587  0.9023 -0.7740  0.4633
13237TIP3    H161202   1.516   5.073   6.545 -0.6248 -1.4813  3.7143
13237TIP3    H261203   1.606   5.192   6.519 -0.3612 -2.7909 -1.9688
13238TIP3   OH261204   0.223   1.684   0.830 -0.7752  0.7768 -0.1721
13238TIP3    H161205   0.240   1.648   0.743 -0.4597 -0.2744  0.3263
13238TIP3    H261206   0.145   1.738   0.819 -1.1042  0.1397 -0.9671
13239TIP3   OH261207   1.056   2.482   2.443 -0.1834  0.0207  0.1067
13239TIP3    H161208   1.149   2.471   2.425  0.3599 -3.1913  4.0591
13239TIP3    H261209   1.052   2.558   2.502 -0.3349  1.3908 -1.6357
13240TIP3   OH261210   2.742   4.298   4.496  0.4301 -0.1732  0.3260
13240TIP3    H161211   2.659   4.290   4.543  0.8098 -0.9132  0.8749
13240TIP3    H261212   2.717   4.331   4.409 -0.5258 -1.1094  0.2235
13241TIP3   OH261213   4.483   0.835  15.292  0.4053  0.0768 -0.4102
13241TIP3    H161214   4.574   0.842  15.322 -0.0152  2.2081  0.4638
13241TIP3    H261215   4.478   0.895  15.218  0.0815 -1.2289 -1.4747
13242TIP3   OH261216   0.989   1.573   0.805 -0.1101 -0.0380 -0.0514
13242TIP3    H161217   0.945   1.621   0.876  1.9332  1.1597  0.4409
13242TIP3    H261218   0.925   1.572   0.734 -1.8017 -0.3514  1.4493
13243TIP3   OH261219   6.112   1.373  10.981 -0.2552 -0.5529 -0.2383
13243TIP3    H161220   6.054   1.300  10.963 -0.4000 -0.6571  0.6160
13243TIP3    H261221   6.179   1.369  10.913 -0.7879 -0.9201 -0.7409
13244TIP3   OH261222   4.203   1.449   0.814 -0.4724  0.4061  0.3649
13244TIP3    H161223   4.140   1.443   0.742  0.4465  0.9038 -0.5026
13244TIP3    H261224   4.245   1.534   0.802  1.5742 -0.6329 -0.1185
13245TIP3   OH261225   0.233   6.665   2.034 -0.2419 -0.1053 -0.2145
13245TIP3    H161226   0.253   6.755   2.007  2.2225 -0.7518 -0.6664
13245TIP3    H261227   0.140   6.668   2.060 -0.3975  2.3872 -0.8946
13246TIP3   OH261228   2.146   4.930  14.178 -0.0865 -0.3463  0.0041
13246TIP3    H161229   2.111   4.929  14.089  0.7624  1.5159 -0.3635
13246TIP3    H261230   2.157   4.837  14.200  1.2561 -0.8007 -2.4474
13247TIP3   OH261231   6.120   3.657  14.838 -0.1908  0.0400 -0.2662
13247TIP3    H161232   6.102   3.698  14.922  0.9882 -0.8495  0.4384
13247TIP3    H261233   6.209   3.624  14.846 -0.1673 -0.3023 -1.7678
13248TIP3   OH261234   5.045   6.213   1.403 -0.1596 -0.2230 -0.2227
13248TIP3    H161235   5.001   6.284   1.357 -0.2407 -1.3737 -2.0152
13248TIP3    H261236   5.083   6.253   1.481  0.1571  1.8650 -1.4242
13249TIP3   OH261237   6.533   2.356   4.598 -0.0887 -0.1744  0.8019
13249TIP3    H161238   6.588   2.381   4.672  0.0161  0.5608  0.4797
13249TIP3    H261239   6.590   2.365   4.522 -0.1886 -0.9509  0.6281
13250TIP3   OH261240   3.072   2.605   1.901  0.4052 -0.3069  0.1099
13250TIP3    H161241   3.110   2.623   1.987  0.6730 -0.9363  0.1262
13250TIP3    H261242   3.078   2.510   1.891 -2.1291 -0.5635  0.5598
13251TIP3   OH261243   4.527   0.233  13.247 -0.2675  0.1824  0.2329
13251TIP3    H161244   4.541   0.200  13.335  0.7424  0.8893  0.3423
13251TIP3    H261245   4.604   0.286  13.228 -1.3122  1.4971 -0.3947
13252TIP3   OH261246   0.087   1.571  12.403 -0.0612  0.6609  0.4369
13252TIP3    H161247   0.075   1.652  12.353  0.7523 -0.8528 -2.3041
13252TIP3    H261248   0.153   1.593  12.468  2.3163  1.4593 -2.1471
13253TIP3   OH261249   3.818   6.531  15.247 -0.0740  0.1797 -0.0255
13253TIP3    H161250   3.813   6.438  15.224  0.8813  0.4560 -1.4560
13253TIP3    H261251   3.746   6.572  15.199  0.3200  0.3701 -0.4620
13254TIP3   OH261252   3.673   6.235  16.645  0.3092  0.0800 -0.4876
13254TIP3    H161253   3.744   6.192  16.694 -0.7815 -1.2785 -0.0603
13254TIP3    H261254   3.665   6.321  16.685  0.5627 -0.3982  0.6145
13255TIP3   OH261255   4.112   0.418   6.148 -0.1860  0.2282 -0.1472
13255TIP3    H161256   4.060   0.470   6.209 -0.2755  0.1110 -0.1229
13255TIP3    H261257   4.050   0.390   6.081 -0.1727  0.0169 -0.0728
13256TIP3   OH261258   0.224   5.304   2.550 -0.6302  0.1472 -0.0409
13256TIP3    H161259   0.191   5.372   2.607 -0.8711 -1.0812  1.3099
13256TIP3    H261260   0.303   5.272   2.593 -1.2338 -1.3054  0.0312
13257TIP3   OH261261   2.794   5.401  14.218  0.0908  0.1591  0.1947
13257TIP3    H161262   2.837   5.406  14.303 -1.0265 -0.3328  0.8017
13257TIP3    H261263   2.857   5.354  14.162  0.5333 -0.1467  0.9351
13258TIP3   OH261264   5.665   5.646   1.891  0.3879 -0.4724  0.2510
13258TIP3    H161265   5.708   5.572   1.934  1.1794 -0.3111 -0.2557
13258TIP3    H261266   5.674   5.630   1.798 -0.1277 -0.1292  0.1353
13259TIP3   OH261267   5.213   5.908  13.515  0.3878 -0.0492 -0.1616
13259TIP3    H161268   5.192   5.981  13.457 -1.0594  0.6366  1.1821
13259TIP3    H261269   5.291   5.869  13.476  0.7218  1.7094 -1.3623
13260TIP3   OH261270   4.229   5.228  12.218 -0.7120  0.5277  0.2773
13260TIP3    H161271   4.303   5.201  12.164 -0.9112  2.0687 -0.7970
13260TIP3    H261272   4.166   5.156  12.210 -0.5863  0.5749 -1.2712
13261TIP3   OH261273   4.179   1.336   0.021  0.3863 -0.3991 -0.1134
13261TIP3    H161274   4.159   1.329   0.114  0.2481  0.6258 -0.0542
13261TIP3    H261275   4.268   1.303   0.012  0.7125  0.3133  0.5221
13262TIP3   OH261276   3.391   3.059   2.014 -0.1014  0.5358 -0.8071
13262TIP3    H161277   3.318   3.002   2.039  0.6258 -0.4009 -0.7636
13262TIP3    H261278   3.408   3.036   1.922  0.2511  0.6236 -0.7629
13263TIP3   OH261279   3.938   2.998   5.614 -0.0551  0.0023 -0.5974
13263TIP3    H161280   4.014   3.042   5.575  0.7967 -1.2975 -0.4162
13263TIP3    H261281   3.971   2.960   5.695 -0.9470 -0.4300 -0.4305
13264TIP3   OH261282   0.523   4.661   4.081 -0.0826 -0.9256 -0.0916
13264TIP3    H161283   0.431   4.683   4.099  0.7277 -0.4970  3.8584
13264TIP3    H261284   0.522   4.567   4.065 -0.9170 -1.3333  2.2254
13265TIP3   OH261285   3.492   4.391   1.719 -0.2891  0.0036 -0.2144
13265TIP3    H161286   3.423   4.326   1.710 -0.8574  0.5292  0.2991
13265TIP3    H261287   3.446   4.475   1.719  0.3833  0.3760 -0.2523
13266TIP3   OH261288   3.788   3.958  16.913  0.2369 -0.4008  0.5118
13266TIP3    H161289   3.831   4.027  16.963  0.5644  1.2211 -1.8977
13266TIP3    H261290   3.853   3.933  16.847 -1.0424 -0.7502 -0.6310
13267TIP3   OH261291   3.539   0.294  13.287 -0.1108 -0.3231 -1.3404
13267TIP3    H161292   3.570   0.345  13.213 -1.0311 -0.5488 -1.8997
13267TIP3    H261293   3.494   0.219  13.247  0.7568 -1.2784 -0.5420
13268TIP3   OH261294   6.808   6.701  12.940  0.3277 -0.0316 -0.3202
13268TIP3    H161295   6.746   6.633  12.914  1.4935 -0.1705 -2.8374
13268TIP3    H261296   6.854   6.664  13.016 -1.0404 -0.8489  0.1276
13269TIP3   OH261297   5.482   1.887  16.432  0.3067 -0.3437 -0.0427
13269TIP3    H161298   5.445   1.812  16.386 -0.6982  0.9319 -1.3480
13269TIP3    H261299   5.407   1.929  16.474  0.5985  0.9325 -0.7804
13270TIP3   OH261300   1.856   0.499  14.653 -0.0830  0.1002  0.2570
13270TIP3    H161301   1.852   0.443  14.576  0.1243 -0.8097  0.9022
13270TIP3    H261302   1.766   0.503  14.684  0.1916 -1.3718  1.2666
13271TIP3   OH261303   5.421   0.605  12.112 -0.1281 -0.0492  0.4847
13271TIP3    H161304   5.334   0.569  12.100 -0.9935  2.4031 -0.8225
13271TIP3    H261305   5.456   0.615  12.023  0.6356  0.9973  0.8867
13272TIP3   OH261306   4.066   6.312  15.137  0.2128  0.6574  0.0517
13272TIP3    H161307   3.986   6.295  15.088  1.0087 -1.1875 -0.6645
13272TIP3    H261308   4.120   6.364  15.077  0.2746  0.3355 -0.1765
13273TIP3   OH261309   4.099   5.745   6.197  0.1058 -0.8778 -0.3159
13273TIP3    H161310   4.049   5.693   6.260  0.8292 -1.8683 -0.5462
13273TIP3    H261311   4.190   5.735   6.224  0.0948  2.2608  1.0799
13274TIP3   OH261312   6.491   3.976  11.959  0.2048 -0.4769 -0.1970
13274TIP3    H161313   6.445   4.059  11.952  0.8755 -0.1851 -1.2097
13274TIP3    H261314   6.456   3.936  12.039 -2.5897 -0.7433 -1.4963
13275TIP3   OH261315   2.806   5.903   1.850  0.6083  0.4801  0.3525
13275TIP3    H161316   2.780   5.818   1.814  3.0135 -0.6474  1.1702
13275TIP3    H261317   2.749   5.915   1.926  1.6069 -1.3945  1.4358
13276TIP3   OH261318   5.380   1.631   2.024 -0.4203  0.3420 -0.5474
13276TIP3    H161319   5.463   1.586   2.042 -1.0711 -1.4152 -1.7072
13276TIP3    H261320   5.354   1.668   2.108  1.0023 -0.0027  0.0717
13277TIP3   OH261321   6.588   6.745  13.841  0.1623  0.4231  0.9409
13277TIP3    H161322   6.638   6.678  13.887 -0.1920  0.8025  1.8796
13277TIP3    H261323   6.518   6.770  13.902  0.4177  1.7964  0.6990
13278TIP3   OH261324   3.481   1.195  12.721  0.6267 -0.6361  0.2024
13278TIP3    H161325   3.518   1.250  12.652 -3.6277 -1.3747 -2.8721
13278TIP3    H261326   3.543   1.122  12.730  0.9741 -0.8251 -3.2825
13279TIP3   OH261327   3.306   4.617  14.163 -0.1832 -0.1001  0.1024
13279TIP3    H161328   3.243   4.558  14.204  1.3218 -0.2914  2.1736
13279TIP3    H261329   3.266   4.704  14.173 -1.1782 -0.4579 -0.6428
13280TIP3   OH261330   3.377   3.010   3.845 -0.2074  0.0261  0.2572
13280TIP3    H161331   3.369   2.935   3.904  2.4364 -0.1654  0.4195
13280TIP3    H261332   3.401   3.083   3.901  1.8430 -0.0446 -0.5014
13281TIP3   OH261333   2.784   3.092  15.905 -0.5466  0.1683 -0.0847
13281TIP3    H161334   2.752   3.182  15.902 -0.0053  0.3495 -0.5531
13281TIP3    H261335   2.875   3.098  15.875 -0.6633 -0.6074 -0.6021
13282TIP3   OH261336   2.325   6.167  16.899  0.7792  0.0842 -0.3241
13282TIP3    H161337   2.409   6.201  16.927  1.0300 -0.6128 -0.2166
13282TIP3    H261338   2.289   6.235  16.842  0.4659  1.3109  1.3148
13283TIP3   OH261339   6.101   6.334  14.831 -0.0074  0.2880 -0.6433
13283TIP3    H161340   6.024   6.308  14.881 -0.4712  0.4995 -1.2403
13283TIP3    H261341   6.143   6.401  14.884 -0.0062 -0.1289 -0.1163
13284TIP3   OH261342   0.358   4.905   3.636  0.0084 -0.1270  0.1277
13284TIP3    H161343   0.448   4.938   3.628  0.3568 -1.2556 -0.7098
13284TIP3    H261344   0.328   4.938   3.721  1.2526  0.1588  0.4705
13285TIP3   OH261345   3.008   4.320   0.435 -0.6195  0.3702 -0.1094
13285TIP3    H161346   2.948   4.249   0.457  0.8100 -0.9183 -0.2828
13285TIP3    H261347   3.060   4.286   0.362 -0.3441  1.8361 -0.6127
13286TIP3   OH261348   1.925   0.463   5.484 -0.4035 -0.0959 -0.2592
13286TIP3    H161349   1.989   0.402   5.448 -0.7112  0.1225 -1.1794
13286TIP3    H261350   1.870   0.408   5.541  0.2244 -0.3948  0.0582
13287TIP3   OH261351   0.969   2.055  16.793  0.4208  0.0812  0.2835
13287TIP3    H161352   0.953   2.084  16.703  0.2160 -2.6619 -0.6063
13287TIP3    H261353   0.931   2.124  16.847  1.1870  2.1289 -1.7138
13288TIP3   OH261354   1.319   1.952   6.618  0.3931 -0.1676  0.7993
13288TIP3    H161355   1.409   1.983   6.605 -0.2156  0.7375 -1.4161
13288TIP3    H261356   1.264   2.019   6.579 -1.1313 -2.0284 -0.3549
13289TIP3   OH261357   4.015   3.740  13.325  0.3743  0.6218 -0.1937
13289TIP3    H161358   4.071   3.750  13.402  3.5313 -0.2228 -2.2453
13289TIP3    H261359   4.039   3.814  13.269  0.7076 -0.6748 -1.8219
13290TIP3   OH261360   1.239   4.684  12.288  0.5943 -0.7997 -0.3123
13290TIP3    H161361   1.191   4.602  12.295 -2.0291  0.3219 -3.7764
13290TIP3    H261362   1.187   4.746  12.339  1.0905 -0.6356  0.0063
13291TIP3   OH261363   6.722   6.123  14.500  0.8099  0.1337  0.6591
13291TIP3    H161364   6.703   6.175  14.422 -0.9028 -1.1139  0.2041
13291TIP3    H261365   6.806   6.082  14.481  1.1220  1.0191  0.1026
13292TIP3   OH261366   0.672   0.092  11.699 -0.6245  0.2023  0.1648
13292TIP3    H161367   0.705   0.099  11.609 -2.3172 -0.2052 -0.5082
13292TIP3    H261368   0.614   0.016  11.697 -0.3437 -0.0593  1.7164
13293TIP3   OH261369   1.175   2.795  15.310  0.1016  0.1924  0.3830
13293TIP3    H161370   1.237   2.860  15.343  0.2699 -0.3506  1.1474
13293TIP3    H261371   1.089   2.831  15.328  0.1862 -0.2908  1.8311
13294TIP3   OH261372   6.795   4.761  12.582  0.4000 -0.3141 -0.8907
13294TIP3    H161373   6.717   4.753  12.637  1.0264 -0.9651 -0.0817
13294TIP3    H261374   6.768   4.819  12.511  0.2154  2.3338  1.2693
13295TIP3   OH261375   4.548   2.169   1.648  0.5524 -0.1706 -0.3035
13295TIP3    H161376   4.586   2.151   1.734  1.7692  2.9553 -0.1018
13295TIP3    H261377   4.468   2.218   1.668  0.5170  0.0150 -0.9088
13296TIP3   OH261378   5.835   3.399   0.742 -0.7152 -0.7577  0.3214
13296TIP3    H161379   5.807   3.486   0.771  0.4868 -0.7672  1.5460
13296TIP3    H261380   5.909   3.415   0.684  0.5452 -1.0240  1.8221
13297TIP3   OH261381   0.309   6.248  13.202 -0.3566 -0.8471  0.1169
13297TIP3    H161382   0.370   6.312  13.166 -1.3398 -0.0491 -0.1617
13297TIP3    H261383   0.337   6.236  13.293 -1.3330  1.4682  0.7750
13298TIP3   OH261384   4.732   2.671   0.099  0.2418 -0.4479  0.2036
13298TIP3    H161385   4.725   2.761   0.132  2.6098  0.2965 -1.1499
13298TIP3    H261386   4.716   2.679   0.005 -2.6564 -1.9626  0.5144
13299TIP3   OH261387   6.178   6.097   2.920 -0.2895  0.0803  0.1083
13299TIP3    H161388   6.229   6.114   2.999 -1.3218  1.3500  0.5196
13299TIP3    H261389   6.136   6.013   2.936  0.4326 -0.2300  0.4087
13300TIP3   OH261390   3.983   1.738   3.686 -0.6890  0.0018  0.5198
13300TIP3    H161391   3.971   1.643   3.679 -1.3907  0.3256 -3.4021
13300TIP3    H261392   3.895   1.774   3.678 -0.0699  1.1409 -1.2535
13301TIP3   OH261393   1.660   3.532   1.799  0.5408 -0.4973  0.5310
13301TIP3    H161394   1.629   3.589   1.728  1.0943 -0.1384  0.5730
13301TIP3    H261395   1.756   3.539   1.795  0.6336 -1.8568  0.1898
13302TIP3   OH261396   0.355   5.939  16.889  0.8564 -0.6340 -0.3105
13302TIP3    H161397   0.407   5.859  16.882  1.0234 -0.3546 -2.4613
13302TIP3    H261398   0.419   6.009  16.877  0.2945 -0.2371 -0.9831
13303TIP3   OH261399   1.682   5.032   6.230  0.3202  0.1373  0.0919
13303TIP3    H161400   1.767   5.030   6.187  0.5812  3.0793  0.4128
13303TIP3    H261401   1.672   4.943   6.266  2.9078 -0.4584 -0.5490
13304TIP3   OH261402   0.271   3.517   5.490 -0.1935  0.8580  1.0481
13304TIP3    H161403   0.190   3.568   5.484 -1.3052 -0.7037  2.2497
13304TIP3    H261404   0.243   3.427   5.472  1.6644  0.5964 -0.6611
13305TIP3   OH261405   3.904   2.594   4.062 -0.6199 -0.0321 -0.7171
13305TIP3    H161406   3.964   2.554   4.125 -0.9151  0.2112 -0.2827
13305TIP3    H261407   3.962   2.638   4.000 -0.3549  0.5751 -0.0497
13306TIP3   OH261408   2.009   4.805  15.616 -0.5252  0.1254 -0.2290
13306TIP3    H161409   2.065   4.875  15.650 -0.6059  0.2582 -0.3670
13306TIP3    H261410   1.984   4.754  15.693 -0.6063  0.3517 -0.1062
13307TIP3   OH261411   0.824   5.749  17.116  0.0016 -0.5159  0.2078
13307TIP3    H161412   0.897   5.810  17.105 -0.1313 -0.3974 -0.0273
13307TIP3    H261413   0.758   5.799  17.164  0.0041 -0.5674  0.2655
13308TIP3   OH261414   4.508   2.331  11.351  0.5018  0.0457  0.2434
13308TIP3    H161415   4.552   2.316  11.268  0.4943 -0.3062  0.3005
13308TIP3    H261416   4.416   2.348  11.328  1.0107  2.6394 -0.0166
13309TIP3   OH261417   2.144   3.997  12.661  0.3366 -0.1749 -0.2514
13309TIP3    H161418   2.178   4.063  12.599 -0.2796  0.1463 -0.2440
13309TIP3    H261419   2.087   4.046  12.720  1.2127 -0.4185  0.8091
13310TIP3   OH261420   4.860   6.283   0.328 -0.4436 -0.0314  0.5234
13310TIP3    H161421   4.926   6.337   0.283 -0.2272  0.1458  1.0506
13310TIP3    H261422   4.909   6.238   0.397 -0.6133 -0.9369  0.0730
13311TIP3   OH261423   0.069   6.024  13.702 -0.4143 -0.0711 -0.7034
13311TIP3    H161424   0.066   6.058  13.612  1.8442  0.5312 -0.5938
13311TIP3    H261425   0.055   6.101  13.756 -1.5826 -0.4021 -0.5379
13312TIP3   OH261426   2.964   6.255  13.502  0.2417 -0.3707  0.0504
13312TIP3    H161427   2.995   6.165  13.495 -1.3782 -1.1585  2.3300
13312TIP3    H261428   3.015   6.293  13.573 -0.4294 -0.0824  0.3806
13313TIP3   OH261429   0.890   0.440   4.152 -0.0755 -0.0474 -0.4184
13313TIP3    H161430   0.949   0.492   4.207  0.0951  0.9639 -1.5330
13313TIP3    H261431   0.819   0.416   4.210  1.0259 -0.5791  0.7346
13314TIP3   OH261432   1.119   6.397  12.023  0.9347  0.5563 -0.3051
13314TIP3    H161433   1.123   6.492  12.018  1.4959  0.4899 -1.3876
13314TIP3    H261434   1.041   6.378  12.074  0.6584  1.5888 -0.3442
13315TIP3   OH261435   1.032   3.224   5.474 -0.3411 -0.1420 -0.1117
13315TIP3    H161436   1.050   3.293   5.410  0.7692 -0.4351 -0.1181
13315TIP3    H261437   0.966   3.168   5.432  1.1469 -0.9325 -1.4266
13316TIP3   OH261438   6.260   0.163   5.336  0.0849  0.0748 -0.0987
13316TIP3    H161439   6.231   0.227   5.271  3.4799 -0.0002 -1.8228
13316TIP3    H261440   6.220   0.081   5.309 -1.0134  0.6515 -0.2640
13317TIP3   OH261441   1.685   4.524  11.577 -0.3004  0.6736 -0.2033
13317TIP3    H161442   1.646   4.600  11.619 -0.5514  0.6834 -0.4475
13317TIP3    H261443   1.711   4.556  11.490 -1.7393  0.1159 -0.8579
13318TIP3   OH261444   2.798   3.551   2.691  0.3055  0.0118 -0.5579
13318TIP3    H161445   2.842   3.536   2.774  0.0630  1.2475 -0.1984
13318TIP3    H261446   2.786   3.646   2.687 -1.8322 -0.2621 -0.9120
13319TIP3   OH261447   3.934   5.552   1.468  0.3484 -0.2970  0.2019
13319TIP3    H161448   3.980   5.578   1.548 -1.7282  2.2091  0.6561
13319TIP3    H261449   3.941   5.629   1.411 -0.1387 -1.2350 -1.1404
13320TIP3   OH261450   1.364   1.866  15.966  0.4914 -0.7932  0.0872
13320TIP3    H161451   1.401   1.782  15.938  2.7741  0.1601  0.1287
13320TIP3    H261452   1.383   1.871  16.060 -1.4371 -1.1228  0.5060
13321TIP3   OH261453   5.854   1.923   3.289  0.5655 -0.2190  0.2427
13321TIP3    H161454   5.949   1.934   3.282  0.8799 -2.1214  1.0700
13321TIP3    H261455   5.838   1.913   3.383 -0.4830  0.3514  0.1236
13322TIP3   OH261456   1.521   2.971   4.467 -0.0425  0.0690 -0.0556
13322TIP3    H161457   1.438   3.002   4.503  0.9372  0.6654  1.7494
13322TIP3    H261458   1.545   3.037   4.402 -0.4629  0.4569  0.1802
13323TIP3   OH261459   5.531   6.384   0.705  0.5787 -0.1887  0.7390
13323TIP3    H161460   5.490   6.426   0.781  2.1722 -0.7012  1.9163
13323TIP3    H261461   5.484   6.301   0.696  0.1889  0.0021  0.9917
13324TIP3   OH261462   2.885   6.515   2.486 -0.0554  0.1028 -0.6132
13324TIP3    H161463   2.878   6.549   2.397  3.3826 -1.1467 -1.4525
13324TIP3    H261464   2.971   6.547   2.517 -0.6642 -0.4756  1.8119
13325TIP3   OH261465   6.784   5.093  12.212 -0.1099 -0.1598  0.4851
13325TIP3    H161466   6.875   5.081  12.185 -0.7465 -0.2372 -1.7560
13325TIP3    H261467   6.750   5.004  12.222 -0.2461 -0.1420  0.1984
13326TIP3   OH261468   4.653   0.790  16.586 -0.1798  0.1043 -0.1925
13326TIP3    H161469   4.635   0.865  16.643 -1.4302 -0.7164  0.5152
13326TIP3    H261470   4.658   0.828  16.498  4.8378  1.8667  0.7006
13327TIP3   OH261471   6.747   1.507  14.376  0.7912  0.2350  0.4737
13327TIP3    H161472   6.806   1.546  14.311 -0.4307 -0.2177 -0.9432
13327TIP3    H261473   6.660   1.532  14.346  0.1384 -1.2225  1.1417
13328TIP3   OH261474   5.880   1.799   4.825  0.0645 -0.6149 -0.3341
13328TIP3    H161475   5.864   1.893   4.826  2.6518 -0.1012 -2.0605
13328TIP3    H261476   5.939   1.784   4.899  0.7562 -0.6387 -0.8833
13329TIP3   OH261477   2.276   0.837   1.066  0.5173 -0.0780  0.3971
13329TIP3    H161478   2.369   0.815   1.063  0.4099 -0.5496  0.3799
13329TIP3    H261479   2.260   0.887   0.986  0.9273  0.6976  0.8045
13330TIP3   OH261480   0.503   6.394   3.586  0.3335  0.1938  0.1325
13330TIP3    H161481   0.591   6.401   3.548 -0.3416 -0.9690 -1.7150
13330TIP3    H261482   0.507   6.316   3.641  1.0267  1.3210  1.7371
13331TIP3   OH261483   5.778   0.286   6.032 -0.0803 -0.5942  0.2851
13331TIP3    H161484   5.720   0.300   6.107 -0.1536  0.4420  0.0444
13331TIP3    H261485   5.818   0.371   6.016  0.5374 -0.9996 -0.3558
13332TIP3   OH261486   4.650   1.908   2.738  0.2139  0.4907 -0.3734
13332TIP3    H161487   4.706   1.889   2.663  0.3472 -0.2941 -0.0888
13332TIP3    H261488   4.606   1.825   2.755 -0.3973  0.8802 -0.0686
13333TIP3   OH261489   5.326   0.574   0.992 -0.2533 -0.2525 -0.4327
13333TIP3    H161490   5.242   0.558   0.950  0.5012  0.2456 -2.1980
13333TIP3    H261491   5.379   0.616   0.924  1.5886 -1.0370  0.4702
13334TIP3   OH261492   0.908   3.629   1.107 -0.4405  0.4760 -0.3519
13334TIP3    H161493   0.825   3.612   1.151 -1.8088  2.7402 -1.9501
13334TIP3    H261494   0.956   3.685   1.169 -1.2585  1.4230 -0.5464
13335TIP3   OH261495   1.265   0.592   0.527  0.0733  0.2164  0.2797
13335TIP3    H161496   1.277   0.672   0.579  0.0532  0.1835  0.3345
13335TIP3    H261497   1.327   0.530   0.564 -0.8504 -0.2269  1.1192
13336TIP3   OH261498   5.454   4.771   5.310  0.6939 -0.4254  0.3546
13336TIP3    H161499   5.454   4.676   5.305 -0.4188 -0.4787  1.3006
13336TIP3    H261500   5.371   4.794   5.352  0.3953  1.0247 -0.9537
13337TIP3   OH261501   5.116   4.235  13.488 -0.3854 -0.1271  0.0456
13337TIP3    H161502   5.211   4.222  13.498 -0.2246  0.8551 -0.1906
13337TIP3    H261503   5.093   4.295  13.559 -0.8560 -0.4455  0.1641
13338TIP3   OH261504   6.453   0.883   5.918 -0.5574  0.0962 -0.6364
13338TIP3    H161505   6.505   0.961   5.899  0.2245 -0.6582 -1.6008
13338TIP3    H261506   6.511   0.826   5.968 -0.3211 -0.9220 -2.0614
13339TIP3   OH261507   6.334   6.058   4.185  0.0094  0.8016  0.1301
13339TIP3    H161508   6.260   6.063   4.246  0.9268  0.5403  1.2854
13339TIP3    H261509   6.396   5.999   4.227  0.8207  0.9027 -0.8965
13340TIP3   OH261510   4.415   0.758   1.745 -0.5995  0.0542 -0.5076
13340TIP3    H161511   4.434   0.668   1.774  0.2690  0.1779 -0.6827
13340TIP3    H261512   4.490   0.782   1.691  0.6278  2.0013  2.0067
13341TIP3   OH261513   6.730   4.861  13.863 -0.6231  0.1926  0.4536
13341TIP3    H161514   6.772   4.946  13.876 -0.3328 -0.1989  2.2870
13341TIP3    H261515   6.701   4.861  13.772  1.6871  1.2227 -0.3077
13342TIP3   OH261516   0.019   2.769  11.896  0.4051 -0.1308 -0.6568
13342TIP3    H161517  -0.074   2.785  11.913  0.5757 -0.5488  0.7443
13342TIP3    H261518   0.060   2.854  11.911  0.2644  0.0460 -1.2433
13343TIP3   OH261519   3.254   5.213  12.254 -0.0387  0.9123 -0.3819
13343TIP3    H161520   3.291   5.275  12.191  0.6618 -0.0914 -0.9786
13343TIP3    H261521   3.329   5.188  12.309 -0.1635  0.0562 -0.5992
13344TIP3   OH261522   6.618   4.555   1.890 -0.1388 -0.1653 -0.1611
13344TIP3    H161523   6.596   4.512   1.973  0.5319 -0.5821 -0.1894
13344TIP3    H261524   6.539   4.603   1.866 -0.8258 -1.1811  0.0051
13345TIP3   OH261525   6.152   2.501   0.574 -0.3527  0.3957 -0.2636
13345TIP3    H161526   6.213   2.442   0.531  1.0335  1.4775  0.1825
13345TIP3    H261527   6.199   2.584   0.581 -2.4470  1.7327 -1.3529
13346TIP3   OH261528   2.432   2.116  12.188 -0.6627  0.0982  0.3220
13346TIP3    H161529   2.424   2.114  12.092  1.1622 -2.1215  0.1735
13346TIP3    H261530   2.458   2.206  12.208 -0.3542  0.4039 -1.3562
13347TIP3   OH261531   4.288   6.530   0.720  0.0853  0.0237 -0.0482
13347TIP3    H161532   4.207   6.488   0.691 -0.0243 -0.7071  1.2668
13347TIP3    H261533   4.358   6.477   0.681 -0.0442  0.8336 -1.4358
13348TIP3   OH261534   0.022   0.069  13.833 -0.0286  0.4938 -0.4906
13348TIP3    H161535  -0.064   0.037  13.808  0.5364 -2.4792  1.0582
13348TIP3    H261536   0.006   0.132  13.903 -0.9227 -0.7880  0.4724
13349TIP3   OH261537   0.763   4.825   0.090 -0.0800 -0.2952 -0.5284
13349TIP3    H161538   0.793   4.775   0.015  0.4042  1.8306 -1.8171
13349TIP3    H261539   0.834   4.887   0.108 -0.5966 -0.1272  1.0653
13350TIP3   OH261540   6.588   0.656   0.748  0.0418  0.5891 -0.2582
13350TIP3    H161541   6.549   0.739   0.721  0.4260  0.8647  0.0312
13350TIP3    H261542   6.663   0.645   0.689  0.7430  1.0764  0.5413
13351TIP3   OH261543   6.073   4.622  16.394 -0.1226  0.1236  1.0837
13351TIP3    H161544   6.117   4.688  16.447 -0.2321 -0.0134  1.3519
13351TIP3    H261545   6.056   4.550  16.455  2.5183 -1.3522  0.1666
13352TIP3   OH261546   1.118   1.050  14.823 -0.0881  0.2835  0.0570
13352TIP3    H161547   1.145   1.112  14.755 -0.6833  0.2773 -0.1942
13352TIP3    H261548   1.111   1.103  14.902 -1.1955  0.6630 -0.2883
13353TIP3   OH261549   0.228   3.381  14.006 -0.4367 -0.0265 -0.2121
13353TIP3    H161550   0.220   3.312  13.939  1.4060  3.0575 -3.7565
13353TIP3    H261551   0.137   3.406  14.025 -0.9803 -0.4516 -2.1100
13354TIP3   OH261552   3.827   4.168  11.258  0.1034 -0.3553 -0.6497
13354TIP3    H161553   3.864   4.126  11.336  1.3610  0.5707 -0.7347
13354TIP3    H261554   3.735   4.183  11.280  0.8702  1.6245  1.4176
13355TIP3   OH261555   5.312   0.352  13.961 -0.5370 -0.1051  0.3491
13355TIP3    H161556   5.283   0.411  13.892 -0.2806 -0.1515  0.2018
13355TIP3    H261557   5.385   0.303  13.923 -1.1739 -0.9882  0.2465
13356TIP3   OH261558   3.091   2.397  14.802  0.1580  0.7118  0.0421
13356TIP3    H161559   3.155   2.423  14.736 -2.7802  0.8343 -2.9074
13356TIP3    H261560   3.042   2.478  14.821 -0.8236  0.0857  0.2338
13357TIP3   OH261561   6.809   6.544  14.526 -0.0157  0.0223  0.1417
13357TIP3    H161562   6.763   6.471  14.568  0.2888 -0.2445  0.0129
13357TIP3    H261563   6.894   6.508  14.503  0.1613  0.4449  0.1459
13358TIP3   OH261564   3.581   2.756  15.020 -0.4538 -0.1274  0.2151
13358TIP3    H161565   3.610   2.847  15.024  0.8459 -0.4776 -0.8574
13358TIP3    H261566   3.505   2.752  15.078 -0.9395  1.7941 -0.2714
13359TIP3   OH261567   6.438   3.788  16.230 -0.1323 -0.5989 -0.0218
13359TIP3    H161568   6.443   3.692  16.230  0.9498 -0.5585 -1.2984
13359TIP3    H261569   6.528   3.817  16.240 -0.3007  0.2779 -0.8673
13360TIP3   OH261570   4.411   1.718  12.868 -0.2005  0.1762 -0.7185
13360TIP3    H161571   4.486   1.669  12.835  1.7825  2.1080  0.8635
13360TIP3    H261572   4.351   1.722  12.793  0.3204 -3.0944 -1.4243
13361TIP3   OH261573   6.512   4.256  15.858 -0.3245 -0.1551  0.2333
13361TIP3    H161574   6.431   4.256  15.807  0.3773 -0.3454 -0.9247
13361TIP3    H261575   6.576   4.214  15.800  0.6169  0.0726  1.0956
13362TIP3   OH261576   2.707   2.924   2.148  0.0030 -0.3489 -0.4092
13362TIP3    H161577   2.612   2.940   2.141 -0.1956 -1.0378  0.5791
13362TIP3    H261578   2.738   2.924   2.057 -1.1758 -1.4774 -0.8367
13363TIP3   OH261579   5.411   1.787  10.620 -0.1538  0.0401 -0.1311
13363TIP3    H161580   5.474   1.799  10.691 -1.6649 -1.1646  1.4498
13363TIP3    H261581   5.428   1.699  10.588 -0.8486 -0.1828  0.1176
13364TIP3   OH261582   6.262   3.444   5.315 -0.0985  0.9486 -1.0332
13364TIP3    H161583   6.322   3.422   5.243 -0.2848  1.3190 -1.3015
13364TIP3    H261584   6.204   3.511   5.278 -0.9011  0.3427 -0.8903
13365TIP3   OH261585   0.725   4.619  10.738 -0.0254 -0.1556  0.0783
13365TIP3    H161586   0.738   4.524  10.729  1.6983  0.0966 -0.3215
13365TIP3    H261587   0.727   4.634  10.833 -1.6631 -0.6714  0.2201
13366TIP3   OH261588   2.996   3.727   1.892 -0.1096  0.2476  0.5418
13366TIP3    H161589   2.954   3.727   1.979  0.0752  4.0305  0.7335
13366TIP3    H261590   2.935   3.777   1.837  1.5574  1.1543 -0.5201
13367TIP3   OH261591   5.973   2.175   5.013  0.5847  0.1631 -0.4427
13367TIP3    H161592   5.946   2.250   4.960 -0.9341  0.1182  0.2493
13367TIP3    H261593   6.031   2.125   4.955  0.1345  0.8894 -1.5425
13368TIP3   OH261594   6.311   4.391  17.021  0.5850 -0.0814 -0.0558
13368TIP3    H161595   6.338   4.313  16.972  1.1058  0.3019 -0.3885
13368TIP3    H261596   6.304   4.362  17.112  0.7812 -0.5166 -0.1795
13369TIP3   OH261597   3.420   4.834  16.143 -0.3570  0.1245 -0.0354
13369TIP3    H161598   3.342   4.779  16.129 -0.3827  0.3249 -0.7150
13369TIP3    H261599   3.463   4.794  16.218 -0.8984 -0.2396  0.0939
13370TIP3   OH261600   2.631   6.371   1.774 -0.9269 -0.3877 -0.3936
13370TIP3    H161601   2.599   6.383   1.864 -0.9809  2.2754 -0.7359
13370TIP3    H261602   2.595   6.287   1.747 -0.9471 -1.2110  2.0626
13371TIP3   OH261603   5.758   5.416   3.660  0.6837 -0.1858 -0.0872
13371TIP3    H161604   5.698   5.346   3.687 -1.8235  1.4555 -1.1456
13371TIP3    H261605   5.763   5.408   3.565  1.1391  0.4542 -0.1189
13372TIP3   OH261606   3.416   0.387   2.463  0.3154  0.3529  0.0654
13372TIP3    H161607   3.328   0.352   2.475  0.7055 -0.1397  1.5815
13372TIP3    H261608   3.447   0.346   2.383 -1.3189  1.5682 -1.2408
13373TIP3   OH261609   0.160   1.416   1.274 -0.4998 -0.6059 -0.3289
13373TIP3    H161610   0.075   1.378   1.250 -0.5824 -1.3748  1.1186
13373TIP3    H261611   0.174   1.388   1.365  0.8898  0.2607 -0.2616
13374TIP3   OH261612   5.750   4.765   0.158 -0.5892  0.0613  0.5236
13374TIP3    H161613   5.823   4.736   0.212 -0.1073  0.0697 -0.1182
13374TIP3    H261614   5.781   4.845   0.116 -0.6571 -0.3809 -0.3939
13375TIP3   OH261615   0.993   3.433  12.088 -0.3264  0.0857  0.9049
13375TIP3    H161616   1.087   3.441  12.070 -0.3668 -0.1797  0.5799
13375TIP3    H261617   0.955   3.514  12.054 -0.4532 -0.5757 -0.5425
13376TIP3   OH261618   4.171   4.257  14.658  0.1310 -0.6533 -0.4991
13376TIP3    H161619   4.231   4.316  14.611  0.0820 -0.8166 -0.7662
13376TIP3    H261620   4.157   4.300  14.742 -0.9849  0.4183 -1.2133
13377TIP3   OH261621   4.054   5.634  13.715 -0.2761  0.0303  0.1163
13377TIP3    H161622   4.076   5.542  13.730 -0.7633  0.0663  1.1350
13377TIP3    H261623   4.015   5.636  13.628  1.2777 -0.4510 -0.6132
13378TIP3   OH261624   3.227   2.622  16.034  0.2565  0.2563 -0.3805
13378TIP3    H161625   3.283   2.696  16.058  1.0062 -1.0817  2.1251
13378TIP3    H261626   3.289   2.554  16.007 -0.3049 -0.2612 -0.3524
13379TIP3   OH261627   3.140   3.564  13.273  0.1101  0.3024  0.0292
13379TIP3    H161628   3.225   3.536  13.306  0.3039 -0.0122 -0.7186
13379TIP3    H261629   3.134   3.657  13.295  0.5451  0.2680  0.2848
13380TIP3   OH261630   5.551   0.245   2.862  0.1903  0.1668 -0.3751
13380TIP3    H161631   5.578   0.300   2.936 -2.3672  0.3294  0.4734
13380TIP3    H261632   5.597   0.282   2.787 -0.8122  2.9575  0.3253
13381TIP3   OH261633   3.178   1.598  12.564  0.8348  0.2473  0.4003
13381TIP3    H161634   3.154   1.603  12.471  0.2031  1.6902  0.6289
13381TIP3    H261635   3.194   1.505  12.579  1.9764  0.1188 -1.4077
13382TIP3   OH261636   2.256   6.643  16.869  0.2643 -0.7368  0.0065
13382TIP3    H161637   2.228   6.645  16.778  0.3992 -0.2282 -0.0278
13382TIP3    H261638   2.344   6.606  16.867  0.4294 -0.3338 -0.1118
13383TIP3   OH261639   4.137   6.155   3.903 -0.5812  0.7089 -0.2947
13383TIP3    H161640   4.152   6.236   3.952 -2.4774 -0.4926  2.3837
13383TIP3    H261641   4.137   6.087   3.970  3.1488 -1.8460 -2.7158
13384TIP3   OH261642   0.233   3.642  12.641  0.2680 -0.1343  0.4715
13384TIP3    H161643   0.240   3.582  12.715  0.3914 -1.2324 -0.4278
13384TIP3    H261644   0.318   3.635  12.597  0.2360  0.6019  0.2872
13385TIP3   OH261645   5.641   1.092   1.436 -0.0275  0.5917  0.0023
13385TIP3    H161646   5.549   1.066   1.442 -0.5496  2.1832 -0.7470
13385TIP3    H261647   5.680   1.028   1.377 -0.5212 -0.4259  0.7665
13386TIP3   OH261648   2.293   1.448   4.414  0.2256  0.2735  0.1210
13386TIP3    H161649   2.209   1.424   4.376  0.6892 -0.4540 -0.4778
13386TIP3    H261650   2.354   1.383   4.379  0.6356 -0.5695  2.2907
13387TIP3   OH261651   1.897   6.649   6.660 -0.2579 -0.1456  0.0478
13387TIP3    H161652   1.871   6.587   6.592 -0.7252  0.5713 -0.4196
13387TIP3    H261653   1.819   6.658   6.715  0.3272 -1.2462  1.0775
13388TIP3   OH261654   0.957   6.593  11.269 -0.2070  0.1230  0.2887
13388TIP3    H161655   0.926   6.537  11.197 -0.4218  0.5728  0.0282
13388TIP3    H261656   0.997   6.532  11.331 -0.7889 -0.3623  0.1917
13389TIP3   OH261657   5.955   2.988   5.926  0.4871 -0.0471  0.2607
13389TIP3    H161658   5.861   2.992   5.911  0.3789 -0.6711  0.7300
13389TIP3    H261659   5.964   2.961   6.018  1.1251  2.5448  1.0066
13390TIP3   OH261660   4.839   5.703   2.838 -0.3056  0.3010  0.1548
13390TIP3    H161661   4.773   5.720   2.906 -1.3483  0.3487 -0.8471
13390TIP3    H261662   4.903   5.647   2.881 -0.6700  0.7536  1.3369
13391TIP3   OH261663   3.876   1.308  10.903  0.3612 -0.2732 -0.5872
13391TIP3    H161664   3.806   1.332  10.842 -1.2187 -0.7943  0.9810
13391TIP3    H261665   3.850   1.222  10.936  1.0157  0.1569  1.0683
13392TIP3   OH261666   1.442   3.200   4.311  0.0588 -0.0340  0.1426
13392TIP3    H161667   1.466   3.234   4.225 -1.6324  1.0181  0.0653
13392TIP3    H261668   1.506   3.238   4.371 -0.8370  2.0484 -0.1714
13393TIP3   OH261669   6.193   0.596   2.194  0.5530  0.0437 -0.6163
13393TIP3    H161670   6.155   0.571   2.109 -2.3407  1.4167  0.2033
13393TIP3    H261671   6.144   0.545   2.258  1.5319  0.3166  0.3652
13394TIP3   OH261672   3.299   2.725  14.463 -0.0057  0.3037  0.1705
13394TIP3    H161673   3.340   2.654  14.512  1.5168  0.0695 -1.3858
13394TIP3    H261674   3.330   2.805  14.506  2.0490  0.1232 -0.9232
13395TIP3   OH261675   1.402   3.771  15.509  0.2325  0.0545  0.0205
13395TIP3    H161676   1.493   3.791  15.485  0.6630 -0.7124  0.9308
13395TIP3    H261677   1.411   3.701  15.575 -1.0086  0.1766  0.3143
13396TIP3   OH261678   6.019   3.850   1.176  0.3412 -0.1193 -0.3106
13396TIP3    H161679   6.013   3.838   1.081  1.1833  0.8959 -0.5018
13396TIP3    H261680   6.074   3.928   1.187 -2.3087  1.6353  0.9679
13397TIP3   OH261681   6.151   6.293  12.222  0.0523 -0.3229  0.3508
13397TIP3    H161682   6.152   6.282  12.127 -0.9021 -1.2443  0.4376
13397TIP3    H261683   6.233   6.251  12.252  0.7391  0.6627 -0.1255
13398TIP3   OH261684   1.230   2.752  14.427 -0.1673 -0.7061 -0.1924
13398TIP3    H161685   1.275   2.738  14.510  0.1324  0.5741 -0.1195
13398TIP3    H261686   1.174   2.675  14.416  1.2071 -1.7916  0.2608
13399TIP3   OH261687   0.914   3.409   2.105  0.0377  0.1544  0.0636
13399TIP3    H161688   0.951   3.361   2.030  0.1160  2.0041 -1.0977
13399TIP3    H261689   0.901   3.498   2.073 -3.9571 -0.0298  0.9476
13400TIP3   OH261690   6.021   5.224   6.401  0.6996  0.0392 -0.0808
13400TIP3    H161691   5.969   5.266   6.469  1.2339  1.5959 -0.6074
13400TIP3    H261692   6.034   5.135   6.433  0.9581  0.7388  1.8659
13401TIP3   OH261693   2.583   2.803   5.296  0.4832  0.3045  0.3545
13401TIP3    H161694   2.610   2.857   5.221 -1.4032 -0.7614 -1.1314
13401TIP3    H261695   2.653   2.738   5.305  1.0195  0.8094 -0.0884
13402TIP3   OH261696   0.506   1.090  13.070 -0.2596 -0.5262  0.2944
13402TIP3    H161697   0.577   1.154  13.059  0.4414 -1.4260 -0.4666
13402TIP3    H261698   0.455   1.096  12.990  0.2022 -1.3997 -0.0690
13403TIP3   OH261699   5.557   3.358  14.380  0.0591 -0.2886 -0.1378
13403TIP3    H161700   5.495   3.406  14.325 -1.7707 -2.7037 -0.2687
13403TIP3    H261701   5.572   3.276  14.334  1.1075 -0.9376  1.3208
13404TIP3   OH261702   3.003   3.636  16.304 -0.1199 -0.3865  0.6042
13404TIP3    H161703   3.043   3.691  16.236 -0.7685  1.0014  1.3260
13404TIP3    H261704   3.059   3.647  16.380 -0.3183 -0.6354  0.7837
13405TIP3   OH261705   6.534   0.227  15.610  0.2589  0.6319  0.0303
13405TIP3    H161706   6.528   0.322  15.618 -1.0777  0.6355 -0.8583
13405TIP3    H261707   6.628   0.208  15.614  0.5563  2.0303 -0.2703
13406TIP3   OH261708   5.149   1.727  14.568  0.1503  0.4318  0.3384
13406TIP3    H161709   5.074   1.698  14.516 -0.3679 -1.6249  2.1996
13406TIP3    H261710   5.201   1.648  14.582  2.3040  1.6838 -0.2602
13407TIP3   OH261711   1.516   5.175   6.003  0.3587 -0.1667 -0.4968
13407TIP3    H161712   1.551   5.253   6.045 -1.2903  0.6001 -0.5170
13407TIP3    H261713   1.590   5.137   5.957  0.9876  1.8436 -1.1584
13408TIP3   OH261714   2.411   5.595  12.291 -0.6065 -0.0428 -0.2229
13408TIP3    H161715   2.391   5.688  12.307 -0.2290  0.1545 -0.8651
13408TIP3    H261716   2.482   5.575  12.352 -1.6222 -0.2929  0.8934
13409TIP3   OH261717   3.840   3.621   4.255  0.1943 -0.2302 -0.0142
13409TIP3    H161718   3.878   3.600   4.170 -2.1857 -0.0894 -1.1485
13409TIP3    H261719   3.797   3.539   4.282 -1.3237  0.4932 -0.2005
13410TIP3   OH261720   1.699   1.170  16.581  0.1853 -0.1702  0.0589
13410TIP3    H161721   1.758   1.226  16.631 -0.9063 -1.0305  2.3680
13410TIP3    H261722   1.625   1.155  16.639 -0.6311 -2.0734 -1.4213
13411TIP3   OH261723   5.980   3.354  15.849  0.5620  0.3063 -0.1392
13411TIP3    H161724   6.040   3.387  15.916 -0.3562 -1.5955  1.7033
13411TIP3    H261725   5.911   3.310  15.899 -0.8577 -0.0209 -2.3187
13412TIP3   OH261726   2.120   2.520   2.946 -0.5203 -0.6289  0.3551
13412TIP3    H161727   2.066   2.575   2.889  1.1279  0.5908 -0.0809
13412TIP3    H261728   2.192   2.492   2.889  1.6691  1.3946  2.0691
13413TIP3   OH261729   4.138   5.585   2.040  0.3101 -0.6246 -0.9589
13413TIP3    H161730   4.156   5.671   2.000 -0.0623  0.2978  0.7976
13413TIP3    H261731   4.214   5.568   2.095 -0.6439 -0.3418  0.4677
13414TIP3   OH261732   4.019   5.010  12.800  0.0902  0.0980  0.2719
13414TIP3    H161733   4.078   5.045  12.867  1.3668  0.8283 -1.2306
13414TIP3    H261734   3.967   5.086  12.773  1.2972  0.3613 -1.3507
13415TIP3   OH261735   2.845   4.078  11.498  0.4504  0.5619 -0.0628
13415TIP3    H161736   2.905   4.149  11.521  0.8402 -0.2586  1.4616
13415TIP3    H261737   2.893   4.025  11.434  1.0742  0.3113  0.6146
13416TIP3   OH261738   2.215   3.029   0.057  0.1732 -0.2625  0.5237
13416TIP3    H161739   2.223   3.092  -0.014  0.9099  1.2569  1.9215
13416TIP3    H261740   2.137   2.977   0.035  0.7640 -0.2454 -1.6934
13417TIP3   OH261741   5.064   0.897   0.393 -0.5124  0.3492 -0.0428
13417TIP3    H161742   5.105   0.860   0.315 -0.1527 -0.1607  0.3840
13417TIP3    H261743   5.032   0.983   0.365 -0.6730  0.0347 -0.8357
13418TIP3   OH261744   0.638   5.754   0.117  0.3009 -0.3974  0.3628
13418TIP3    H161745   0.674   5.760   0.206 -1.9515  0.1705  1.2903
13418TIP3    H261746   0.660   5.665   0.089  0.9409 -0.6306  1.5435
13419TIP3   OH261747   5.471   4.200  15.990  0.3908 -0.0114 -0.0940
13419TIP3    H161748   5.515   4.251  15.922  1.3643 -0.1393  0.4335
13419TIP3    H261749   5.542   4.160  16.040 -0.3193 -0.1219  0.8434
13420TIP3   OH261750   2.476   1.413  16.719  0.4227 -0.6729 -0.0237
13420TIP3    H161751   2.450   1.386  16.631  1.5416 -0.2826 -0.4780
13420TIP3    H261752   2.395   1.409  16.770 -0.8439  1.7762 -1.7166
13421TIP3   OH261753   0.707   0.343   0.265  0.3860  0.3812  0.3732
13421TIP3    H161754   0.764   0.398   0.319  0.5636  1.2774 -0.6966
13421TIP3    H261755   0.713   0.382   0.178  0.5688 -1.3849 -0.4296
13422TIP3   OH261756   1.334   6.418  15.242 -0.0335  0.0539  0.2872
13422TIP3    H161757   1.311   6.468  15.320 -1.9972 -0.6329  0.1936
13422TIP3    H261758   1.307   6.474  15.169 -0.4349 -0.3126  0.1520
13423TIP3   OH261759   1.575   6.710   0.290 -0.0127 -0.2664  0.2142
13423TIP3    H161760   1.616   6.656   0.357  0.5684  0.7981  0.7344
13423TIP3    H261761   1.557   6.650   0.218  1.0434 -1.0515  0.5978
13424TIP3   OH261762   3.501   4.008  16.846 -0.1103  0.0232 -0.7479
13424TIP3    H161763   3.493   4.100  16.870  1.4991 -0.2737  1.0698
13424TIP3    H261764   3.592   3.986  16.867 -0.2177 -1.7586 -2.0130
13425TIP3   OH261765   0.212   0.860   4.452  0.5745  0.3385  0.4314
13425TIP3    H161766   0.144   0.820   4.397  0.9519 -0.8716  0.8343
13425TIP3    H261767   0.288   0.867   4.394  1.0604 -1.2033  0.8717
13426TIP3   OH261768   1.157   3.091   3.665  0.4643  0.0323 -0.7622
13426TIP3    H161769   1.096   3.122   3.732  2.3353 -0.7198  1.3478
13426TIP3    H261770   1.107   3.027   3.614 -0.7078 -0.0440  0.4730
13427TIP3   OH261771   3.317   3.995  15.128 -0.3333  0.4276  0.6116
13427TIP3    H161772   3.341   3.925  15.188 -0.2660  0.4527  0.6140
13427TIP3    H261773   3.388   3.999  15.065 -0.2300  0.6412  0.7411
13428TIP3   OH261774   5.644   2.573  12.009  0.3371  0.0394 -0.2912
13428TIP3    H161775   5.571   2.569  11.947 -2.3201 -2.8564  2.8143
13428TIP3    H261776   5.716   2.529  11.965 -0.5435  0.7428 -2.4826
13429TIP3   OH261777   5.209   2.736   5.559  0.2111 -0.0309 -0.6886
13429TIP3    H161778   5.236   2.720   5.469  0.4501 -0.0925 -0.6077
13429TIP3    H261779   5.140   2.672   5.575  0.6661 -0.5066 -0.6009
13430TIP3   OH261780   4.036   5.266  15.368  0.3969  0.4845 -0.6898
13430TIP3    H161781   4.066   5.299  15.284  2.5220 -0.2569 -0.2618
13430TIP3    H261782   4.072   5.177  15.373  1.2237  0.9075  1.4605
13431TIP3   OH261783   1.135   3.841  16.250 -0.3442  0.4031  0.1009
13431TIP3    H161784   1.144   3.876  16.339 -0.1980  1.7649 -0.4399
13431TIP3    H261785   1.225   3.836  16.217 -0.2964 -1.2612  0.4600
13432TIP3   OH261786   1.501   1.093   3.454 -0.2114 -0.6404  0.6959
13432TIP3    H161787   1.433   1.147   3.415  0.7435  0.0769  0.0282
13432TIP3    H261788   1.478   1.004   3.427 -0.1471 -0.2647 -0.6163
13433TIP3   OH261789   4.611   0.763   3.779 -0.1758 -0.3413  0.5411
13433TIP3    H161790   4.672   0.758   3.853  0.3190 -0.4039  0.1346
13433TIP3    H261791   4.572   0.850   3.785 -1.4436 -0.9981  1.9006
13434TIP3   OH261792   6.559   2.222   2.660 -0.1034 -0.3686  0.3367
13434TIP3    H161793   6.543   2.296   2.719 -1.4103 -0.2796 -0.1123
13434TIP3    H261794   6.525   2.252   2.576  1.1126 -0.7662 -0.2972
13435TIP3   OH261795   1.787   5.513   3.542 -0.3940  0.2629 -0.2831
13435TIP3    H161796   1.747   5.554   3.619  0.1001  1.8915 -0.8971
13435TIP3    H261797   1.713   5.476   3.494 -0.7655 -0.2079  0.6317
13436TIP3   OH261798   5.594   5.671   5.427 -0.6904  0.0942  0.6018
13436TIP3    H161799   5.606   5.764   5.444 -2.9581  0.4747  0.2880
13436TIP3    H261800   5.653   5.628   5.489  0.2490  1.7287  0.8767
13437TIP3   OH261801   4.243   4.993   2.117 -0.3975 -0.3298 -0.1376
13437TIP3    H161802   4.333   4.968   2.096  0.3496  1.3832  0.8912
13437TIP3    H261803   4.203   5.012   2.033  0.9442  1.2415 -0.4512
13438TIP3   OH261804   0.459   6.747  11.046 -0.1599  0.2302 -0.5468
13438TIP3    H161805   0.375   6.740  10.999 -0.6050  3.3408 -0.3303
13438TIP3    H261806   0.525   6.728  10.980 -0.9524  0.3127 -1.3798
13439TIP3   OH261807   1.530   2.772  16.835  0.1459 -0.1245 -0.3183
13439TIP3    H161808   1.487   2.776  16.750  0.6899  1.5278 -0.5384
13439TIP3    H261809   1.555   2.862  16.854 -0.5033 -0.3631  1.8926
13440TIP3   OH261810   0.453   4.361  12.530  0.8415 -0.2656 -0.8037
13440TIP3    H161811   0.518   4.335  12.596  0.1890 -0.9814 -0.4339
13440TIP3    H261812   0.463   4.295  12.460  0.0636 -0.7652 -0.4473
13441TIP3   OH261813   5.290   6.746   1.696  0.9153  0.2932  0.0727
13441TIP3    H161814   5.251   6.783   1.617  2.1617  0.2503 -0.5850
13441TIP3    H261815   5.360   6.690   1.663  1.7729  0.6656  1.2431
13442TIP3   OH261816   2.014   0.055  15.082  0.2317  0.1645  0.5227
13442TIP3    H161817   2.046   0.100  15.004  0.0416 -0.2613  0.1940
13442TIP3    H261818   2.071   0.085  15.153  1.5265 -0.7860 -0.0973
13443TIP3   OH261819   0.900   0.069  11.551  0.2458  0.2087  0.5814
13443TIP3    H161820   0.967   0.056  11.484 -1.1916 -1.2798 -0.5868
13443TIP3    H261821   0.901  -0.012  11.602  0.4169  0.8132  1.5750
13444TIP3   OH261822   6.094   5.168  15.651  0.0498  0.7155  0.1382
13444TIP3    H161823   6.043   5.186  15.573 -0.6186  1.8826  0.8336
13444TIP3    H261824   6.184   5.157  15.619 -0.6425 -1.7369 -1.1303
13445TIP3   OH261825   1.590   1.976  11.805 -0.3341  0.2880 -0.1129
13445TIP3    H161826   1.647   1.993  11.880 -0.6294  1.0961 -0.0604
13445TIP3    H261827   1.538   1.901  11.832  0.8079 -0.5572 -0.2214
13446TIP3   OH261828   0.481   0.556   1.282 -0.8622 -0.3853  0.5066
13446TIP3    H161829   0.441   0.636   1.316 -2.4272  0.9808 -4.0766
13446TIP3    H261830   0.471   0.564   1.187  2.3677 -4.2881 -0.2756
13447TIP3   OH261831   5.884   5.694   3.680  0.0656  0.1471 -0.1837
13447TIP3    H161832   5.870   5.600   3.694 -0.6052  0.3712  0.6968
13447TIP3    H261833   5.940   5.699   3.602  1.0534 -1.0234  0.4360
13448TIP3   OH261834   1.116   2.783   3.847 -0.0670  0.4102 -0.5899
13448TIP3    H161835   1.137   2.695   3.818  0.3001  0.5096 -0.6298
13448TIP3    H261836   1.095   2.830   3.766 -0.2457  0.3628 -0.5700
13449TIP3   OH261837   3.250   5.337   2.949 -0.7044 -0.1442  0.0779
13449TIP3    H161838   3.168   5.386   2.940  0.1103  0.8727 -2.2271
13449TIP3    H261839   3.295   5.350   2.866  1.6256 -1.0312  1.1519
13450TIP3   OH261840   2.416   4.321  12.542 -0.4293  0.5561  0.6487
13450TIP3    H161841   2.449   4.233  12.559  1.4739  1.0758 -0.2126
13450TIP3    H261842   2.403   4.359  12.629  1.3098  0.3512  1.0042
13451TIP3   OH261843   0.828   0.740   0.317  0.1754  1.1254  0.1868
13451TIP3    H161844   0.871   0.810   0.268 -0.8075  0.1848 -2.0491
13451TIP3    H261845   0.735   0.758   0.310 -0.0319  0.3095  0.7031
13452TIP3   OH261846   0.855   6.231  15.547  0.5029  0.9488 -0.1786
13452TIP3    H161847   0.799   6.308  15.543  0.3108  0.8399  0.3465
13452TIP3    H261848   0.890   6.222  15.458  2.2985  2.9523  0.2793
13453TIP3   OH261849   3.381   4.060   0.258  0.3873 -0.2818 -0.3605
13453TIP3    H161850   3.342   4.124   0.317 -0.7901 -0.7344 -0.6275
13453TIP3    H261851   3.329   3.980   0.271  0.3644 -0.5034 -1.6944
13454TIP3   OH261852   0.786   4.288   5.583  0.1572  0.0570  0.2837
13454TIP3    H161853   0.745   4.227   5.644  1.1903  1.1500  2.1258
13454TIP3    H261854   0.847   4.235   5.532 -0.5198 -0.8159  0.3837
13455TIP3   OH261855   4.978   0.298  14.323  0.5126  0.3903  0.5458
13455TIP3    H161856   4.928   0.219  14.340  0.1175  0.7187  0.9358
13455TIP3    H261857   4.939   0.364  14.381  2.5303  0.1923  2.1661
13456TIP3   OH261858   3.221   1.827  12.118 -0.0123  0.0216 -0.0303
13456TIP3    H161859   3.304   1.848  12.076 -0.5411 -0.7854 -1.4886
13456TIP3    H261860   3.165   1.796  12.048 -0.7992 -1.6756  1.3025
13457TIP3   OH261861   5.032   3.382  11.914  0.2377 -0.0217  0.3906
13457TIP3    H161862   5.045   3.321  11.986 -0.4339 -0.1100  0.4352
13457TIP3    H261863   5.054   3.333  11.836 -1.0946 -0.5825  0.3506
13458TIP3   OH261864   4.920   1.839   5.119 -0.2738  0.2580  0.2117
13458TIP3    H161865   4.968   1.773   5.069 -1.5494  0.4334 -1.2947
13458TIP3    H261866   4.985   1.877   5.178  0.6756 -1.6977  0.4439
13459TIP3   OH261867   1.575   3.275  12.145 -0.2895  0.5421 -0.0089
13459TIP3    H161868   1.592   3.185  12.119  0.0771  0.4179  0.6500
13459TIP3    H261869   1.555   3.270  12.239  0.6980  1.2519  0.2543
13460TIP3   OH261870   2.609   4.512  14.998  0.2137  0.1177 -0.6333
13460TIP3    H161871   2.604   4.442  15.063  1.8341 -0.3102 -0.9367
13460TIP3    H261872   2.518   4.537  14.983 -0.3110 -1.1013  0.3624
13461TIP3   OH261873   2.159   2.992  13.590 -0.0599 -0.0980 -0.5688
13461TIP3    H161874   2.214   2.919  13.618  0.7358  0.3374 -0.9911
13461TIP3    H261875   2.164   2.991  13.495  1.8445  1.9504 -0.5069
13462TIP3   OH261876   5.344   4.079  14.410  0.0476  0.3694 -0.7243
13462TIP3    H161877   5.278   4.124  14.358 -0.3911  0.4834 -0.0744
13462TIP3    H261878   5.302   3.998  14.438  1.0654 -0.7816 -2.4555
13463TIP3   OH261879   6.136   0.374  11.207  0.2202 -0.1352 -0.0004
13463TIP3    H161880   6.145   0.291  11.160 -0.0139  0.1556 -0.5742
13463TIP3    H261881   6.147   0.441  11.139  0.7548  0.3073  0.5221
13464TIP3   OH261882   5.598   0.877  16.340 -0.6824  0.5845 -0.4811
13464TIP3    H161883   5.512   0.873  16.382 -0.4952  1.7091  0.0423
13464TIP3    H261884   5.648   0.938  16.394  1.2885 -2.0148  0.6895
13465TIP3   OH261885   1.336   2.107   4.638 -0.3581  0.1963 -0.1403
13465TIP3    H161886   1.307   2.175   4.578 -0.5895 -0.5809 -0.9098
13465TIP3    H261887   1.420   2.139   4.672 -0.3467  0.7431 -0.6863
13466TIP3   OH261888   5.039   1.281  15.866 -0.3082  0.1052  0.0645
13466TIP3    H161889   5.055   1.352  15.928  0.5384  0.2145 -0.2685
13466TIP3    H261890   5.111   1.288  15.803 -0.0687 -1.1966  0.1751
13467TIP3   OH261891   4.541   5.031   2.218  0.4838  0.3757  0.6365
13467TIP3    H161892   4.636   5.027   2.211  0.3609  0.3370 -1.1948
13467TIP3    H261893   4.520   5.123   2.202  0.1787  0.2777  0.4594
13468TIP3   OH261894   0.996   6.746  15.618 -0.4405 -0.5683 -0.0862
13468TIP3    H161895   0.916   6.797  15.617 -0.1875 -0.1571  0.5671
13468TIP3    H261896   0.983   6.679  15.551 -0.9440  0.0801 -0.6375
13469TIP3   OH261897   3.157   2.181  13.446  0.6732 -0.4046 -0.8009
13469TIP3    H161898   3.112   2.199  13.529  1.8756  1.2589 -0.4846
13469TIP3    H261899   3.086   2.174  13.382 -0.1556  0.2673  0.0199
13470TIP3   OH261900   3.655   0.984   5.320 -0.5275 -0.1763 -0.2735
13470TIP3    H161901   3.668   0.986   5.225  0.9377 -1.6105 -0.1288
13470TIP3    H261902   3.716   1.050   5.353 -1.2747  0.5573 -0.3355
13471TIP3   OH261903   4.279   2.125   3.857 -0.3722 -0.0890  0.0901
13471TIP3    H161904   4.357   2.178   3.871 -1.3440  1.2889  0.3929
13471TIP3    H261905   4.293   2.085   3.771  0.9597 -0.3831  0.4339
13472TIP3   OH261906   4.306   3.592   0.147  0.5862  0.5455 -0.0544
13472TIP3    H161907   4.245   3.532   0.105  2.1721 -1.0188 -0.1688
13472TIP3    H261908   4.253   3.637   0.213 -0.6770 -0.8456 -0.0908
13473TIP3   OH261909   3.044   4.149   3.873 -0.2535 -0.0623  0.0102
13473TIP3    H161910   3.099   4.204   3.928 -1.0447 -0.5504  1.3004
13473TIP3    H261911   3.007   4.084   3.933  0.3318 -1.7390 -1.3981
13474TIP3   OH261912   1.232   5.606  12.507  0.6308  0.9937  0.6523
13474TIP3    H161913   1.184   5.627  12.427 -2.0665  1.7063  2.3701
13474TIP3    H261914   1.315   5.569  12.477 -0.2702  1.3538 -2.4448
13475TIP3   OH261915   1.403   0.901  12.351 -0.1695  0.6374 -0.3518
13475TIP3    H161916   1.414   0.877  12.259 -0.4859  0.1930 -0.2747
13475TIP3    H261917   1.327   0.851  12.380  0.8219 -0.3435  0.5600
13476TIP3   OH261918   6.142   2.320   5.863 -0.4459  0.6369  0.6327
13476TIP3    H161919   6.059   2.317   5.910  0.0877  1.1542  1.6333
13476TIP3    H261920   6.189   2.242   5.892 -0.0909  0.9871  1.0066
13477TIP3   OH261921   4.736   3.099   3.113 -0.7006 -0.6204 -0.2757
13477TIP3    H161922   4.802   3.054   3.060 -0.8683 -1.6418  0.3714
13477TIP3    H261923   4.786   3.159   3.168 -0.3241 -1.2907  0.1176
13478TIP3   OH261924   6.497   1.382  17.115 -0.2372  0.3056  0.7796
13478TIP3    H161925   6.559   1.352  17.183  0.2396 -1.6274 -0.4686
13478TIP3    H261926   6.447   1.304  17.093 -2.3484  1.6012  0.9284
13479TIP3   OH261927   6.134   2.110   4.110 -0.0586  0.4144  1.1183
13479TIP3    H161928   6.191   2.080   4.039 -2.2557 -0.3650 -0.3914
13479TIP3    H261929   6.159   2.202   4.124 -0.2411  0.9025 -1.4159
13480TIP3   OH261930   0.964   6.313   0.497  0.6211 -0.0265  0.3682
13480TIP3    H161931   0.894   6.346   0.440  0.9774  1.4738  0.7646
13480TIP3    H261932   0.979   6.384   0.559  2.1711 -0.5176  0.5722
13481TIP3   OH261933   2.120   5.008  11.044  0.2220  0.1177 -0.0591
13481TIP3    H161934   2.098   4.915  11.046  0.2368  0.0127 -2.5100
13481TIP3    H261935   2.210   5.013  11.075 -0.3004 -0.4914  1.5714
13482TIP3   OH261936   1.841   0.280  12.788  0.0824  0.5463  0.0639
13482TIP3    H161937   1.931   0.287  12.755 -0.3595  1.8750 -0.9153
13482TIP3    H261938   1.787   0.309  12.714 -1.2025 -1.0340  0.3615
13483TIP3   OH261939   4.283   0.397   1.815 -0.3040 -0.4759  0.5328
13483TIP3    H161940   4.350   0.437   1.870  1.0069  0.0115 -1.3718
13483TIP3    H261941   4.210   0.458   1.818  0.2400  0.1701  0.7262
13484TIP3   OH261942   4.221   4.380  12.532 -0.0876  0.0600 -0.6458
13484TIP3    H161943   4.297   4.435  12.514 -0.2458  0.3533 -0.4274
13484TIP3    H261944   4.151   4.417  12.478  0.4034 -1.3717 -2.3081
13485TIP3   OH261945   6.327   3.672  11.986 -0.2591  0.3323 -0.1629
13485TIP3    H161946   6.316   3.747  11.927 -0.5465  0.6314  0.2662
13485TIP3    H261947   6.281   3.698  12.066 -1.2411 -0.7148 -0.3726
13486TIP3   OH261948   2.138   5.531  11.759  0.2830  0.0384  0.7905
13486TIP3    H161949   2.100   5.444  11.774  0.5236 -0.0821  0.6972
13486TIP3    H261950   2.225   5.513  11.722  0.0938  0.3233  0.2027
13487TIP3   OH261951   4.989   5.641   4.222 -0.3493  0.3876  0.6871
13487TIP3    H161952   4.956   5.602   4.141  2.9418 -2.3066  0.5423
13487TIP3    H261953   4.916   5.634   4.283 -2.0634  0.2336 -1.3231
13488TIP3   OH261954   1.000   6.351   1.341 -0.0226 -0.6522 -0.3753
13488TIP3    H161955   0.993   6.423   1.278  0.8616  0.6438  0.9626
13488TIP3    H261956   0.916   6.306   1.337 -1.2061  1.4811 -0.0363
13489TIP3   OH261957   6.342   5.063   2.611 -0.0492 -0.0957  0.3456
13489TIP3    H161958   6.337   4.983   2.663 -0.7402  0.3712  1.0128
13489TIP3    H261959   6.424   5.055   2.562  0.2941 -0.8274  1.0300
13490TIP3   OH261960   5.872   2.520  11.818  0.5554  0.1330 -0.3398
13490TIP3    H161961   5.937   2.580  11.855 -0.8977  1.6799 -0.2627
13490TIP3    H261962   5.877   2.534  11.724  1.1642 -0.6290 -0.4285
13491TIP3   OH261963   2.568   5.441   3.401 -0.1520  0.8618  0.5373
13491TIP3    H161964   2.526   5.497   3.336  0.3383 -0.7136 -1.1971
13491TIP3    H261965   2.513   5.449   3.479 -2.2698  0.7612 -0.9141
13492TIP3   OH261966   2.698   6.369   3.628  0.5181 -0.5644  0.1049
13492TIP3    H161967   2.671   6.299   3.687  1.1234 -0.4451  0.5248
13492TIP3    H261968   2.630   6.371   3.560 -0.5658 -0.2293  1.1828
13493TIP3   OH261969   0.933   0.687  14.812  0.3381 -0.6777  0.0815
13493TIP3    H161970   0.871   0.625  14.772  0.3333 -0.9404  0.4976
13493TIP3    H261971   0.883   0.733  14.879  0.3041 -0.1160 -0.3230
13494TIP3   OH261972   5.568   0.444   4.676 -0.0536  0.5015 -0.3545
13494TIP3    H161973   5.633   0.494   4.627  0.5939  1.3012  1.2871
13494TIP3    H261974   5.614   0.417   4.756 -1.2629 -0.2844  0.0870
13495TIP3   OH261975   6.301   4.311   5.373  0.1808  0.0173 -0.2475
13495TIP3    H161976   6.299   4.407   5.376 -0.6396 -0.0250  1.0119
13495TIP3    H261977   6.280   4.284   5.463 -1.5698 -1.3710 -1.0514
13496TIP3   OH261978   5.750   1.589  13.022 -0.3135  0.5992  0.0643
13496TIP3    H161979   5.805   1.514  13.047 -1.2890 -0.1413  0.0247
13496TIP3    H261980   5.785   1.662  13.072  1.2550  0.3303 -0.6103
13497TIP3   OH261981   3.610   0.827  16.541 -0.4562 -0.1899  0.1256
13497TIP3    H161982   3.537   0.827  16.479 -0.3263  0.5256 -0.0343
13497TIP3    H261983   3.667   0.898  16.511  1.1642 -1.8304 -0.7413
13498TIP3   OH261984   2.788   4.998   2.955 -0.1411 -0.3433 -0.2550
13498TIP3    H161985   2.825   5.064   2.897 -0.1802 -1.0461 -1.0739
13498TIP3    H261986   2.846   4.923   2.947 -0.4638 -0.6416  0.1842
13499TIP3   OH261987   4.000   0.110  13.541  0.6428 -0.5923 -0.9493
13499TIP3    H161988   3.921   0.121  13.487  2.0026  0.7514 -2.7461
13499TIP3    H261989   3.970   0.126  13.630 -1.7401 -3.1681 -1.2250
13500TIP3   OH261990   3.111   5.680  16.440 -0.1133  0.2584  0.2825
13500TIP3    H161991   3.053   5.681  16.363 -1.8243  0.6329  1.5313
13500TIP3    H261992   3.165   5.602  16.428 -1.8926 -0.9534 -0.2269
13501TIP3   OH261993   4.550   2.156   0.527 -0.2640 -0.6083  0.2867
13501TIP3    H161994   4.564   2.092   0.597  0.7657 -0.9446 -0.2155
13501TIP3    H261995   4.629   2.150   0.474 -0.7233  0.1779 -0.4847
13502TIP3   OH261996   3.861   1.497   3.088 -0.4389  0.9077  0.3940
13502TIP3    H161997   3.844   1.591   3.094 -0.6530  0.8294  1.0354
13502TIP3    H261998   3.922   1.489   3.014  0.7797  1.7069  1.2840
13503TIP3   OH261999   5.937   4.795  12.258 -0.2734  0.1517  0.1177
13503TIP3    H162000   5.903   4.770  12.344 -1.6134 -0.5504 -0.6022
13503TIP3    H262001   5.979   4.880  12.273 -0.4476  0.0192  1.4722
13504TIP3   OH262002   2.432   6.347   5.243 -0.1723  0.5332 -0.1981
13504TIP3    H162003   2.480   6.298   5.310 -0.3484  1.3157  0.5012
13504TIP3    H262004   2.491   6.350   5.168  0.0546 -0.2801 -0.0561
13505TIP3   OH262005   2.373   0.769   5.276  0.2339 -0.6674  0.0001
13505TIP3    H162006   2.316   0.803   5.207 -0.9851 -1.1829  0.7380
13505TIP3    H262007   2.360   0.830   5.349  1.1727 -0.3860 -0.0568
13506TIP3   OH262008   4.314   2.849  16.917 -0.3437  0.0703  0.6958
13506TIP3    H162009   4.376   2.866  16.846 -0.1173 -0.6899  0.7029
13506TIP3    H262010   4.305   2.933  16.962  0.5787  0.2289  0.6107
13507TIP3   OH262011   1.441   4.106  13.958 -0.2224  0.3690  0.1733
13507TIP3    H162012   1.506   4.079  13.894 -1.9311 -0.5085 -1.2330
13507TIP3    H262013   1.416   4.024  14.002  3.0513  1.3132  4.0763
13508TIP3   OH262014   0.701   4.394   2.223  0.9602 -0.2280 -0.5017
13508TIP3    H162015   0.738   4.474   2.185  0.2434  0.2492 -0.2061
13508TIP3    H262016   0.742   4.386   2.309  1.8386 -0.7669 -0.9640
13509TIP3   OH262017   5.221   1.294  14.549  0.0005 -0.3689 -0.1671
13509TIP3    H162018   5.304   1.339  14.533  0.8990 -1.9616 -0.1037
13509TIP3    H262019   5.203   1.310  14.642  0.5395 -0.4944 -0.0387
13510TIP3   OH262020   6.792   1.336  11.736 -0.1962 -0.0916  0.2969
13510TIP3    H162021   6.794   1.425  11.700  2.0710 -1.5872 -3.4839
13510TIP3    H262022   6.720   1.293  11.690  0.2249 -0.9036  0.3880
13511TIP3   OH262023   2.421   4.693  15.630 -0.4779 -0.6285 -0.1922
13511TIP3    H162024   2.376   4.609  15.640 -2.0443 -0.0030 -1.6840
13511TIP3    H262025   2.384   4.749  15.699 -1.2885 -0.4162 -0.7921
13512TIP3   OH262026   3.919   1.682  16.317 -0.4840 -0.1799 -0.1647
13512TIP3    H162027   3.860   1.655  16.387 -0.1163 -0.6484 -0.0267
13512TIP3    H262028   3.968   1.755  16.354 -0.6713 -0.0749 -0.1214
13513TIP3   OH262029   2.723   2.022  12.790  0.3924 -0.2712  0.0119
13513TIP3    H162030   2.707   2.068  12.872  2.6827 -0.5783  0.6668
13513TIP3    H262031   2.641   1.976  12.772 -0.5814  0.8617  1.4268
13514TIP3   OH262032   4.331   2.108  11.805 -0.1793  0.2529  0.0169
13514TIP3    H162033   4.273   2.100  11.729 -0.1940  0.7411 -0.0292
13514TIP3    H262034   4.319   2.027  11.854  0.2278 -0.2825 -0.7829
13515TIP3   OH262035   6.733   2.113  14.873  0.0183  0.2630 -0.1460
13515TIP3    H162036   6.766   2.024  14.861  1.1161  0.6941 -0.3490
13515TIP3    H262037   6.765   2.140  14.959  2.3075  1.5710 -1.3518
13516TIP3   OH262038   3.994   4.174   2.232  0.1205  0.5910 -0.4374
13516TIP3    H162039   4.069   4.116   2.244 -1.3609 -1.3833 -0.4567
13516TIP3    H262040   3.942   4.132   2.164 -0.9544  1.9842 -0.4999
13517TIP3   OH262041   3.538   4.050   3.223 -0.3568 -0.1827 -0.4110
13517TIP3    H162042   3.536   3.954   3.230  0.0275 -0.0737  1.5314
13517TIP3    H262043   3.476   4.080   3.290  0.3207  0.9496 -0.2886
13518TIP3   OH262044   6.804   1.644   0.234 -0.1802 -0.3266 -0.5450
13518TIP3    H162045   6.829   1.735   0.244 -1.0519 -0.2737  1.2707
13518TIP3    H262046   6.791   1.632   0.139 -2.1503  1.9624 -0.5905
13519TIP3   OH262047   2.686   6.166  11.570 -0.7446 -0.4676  0.7071
13519TIP3    H162048   2.618   6.161  11.502  1.0092 -2.4133 -0.9662
13519TIP3    H262049   2.738   6.243  11.546  0.0185 -1.2928 -0.3235
13520TIP3   OH262050   5.322   1.136   0.541 -0.0453  0.2963  0.1381
13520TIP3    H162051   5.273   1.208   0.503 -0.4860  0.0956  0.3226
13520TIP3    H262052   5.341   1.164   0.631 -2.3890 -0.8482  1.0248
13521TIP3   OH262053   3.624   5.315   0.644  0.4432  0.1766 -0.3238
13521TIP3    H162054   3.613   5.248   0.578 -1.4324 -0.9954  1.1339
13521TIP3    H262055   3.691   5.280   0.703 -1.0170 -0.7352  0.8111
13522TIP3   OH262056   1.551   5.409   3.465  0.1272  0.2729  0.5171
13522TIP3    H162057   1.477   5.409   3.525 -0.3808 -0.5995 -0.1022
13522TIP3    H262058   1.533   5.480   3.403 -1.4242 -1.4994 -1.1178
13523TIP3   OH262059   3.756   0.142   3.327 -0.8002 -0.3434 -0.2168
13523TIP3    H162060   3.839   0.190   3.325 -0.0449 -1.6089  0.4829
13523TIP3    H262061   3.711   0.169   3.247  0.9678 -0.8526 -1.4210
13524TIP3   OH262062   6.554   4.702  16.668 -0.1105  0.4079 -0.6114
13524TIP3    H162063   6.564   4.667  16.580 -0.8090  1.2263 -1.0271
13524TIP3    H262064   6.518   4.629  16.719  0.5017 -0.1282 -0.9517
13525TIP3   OH262065   2.676   1.618  10.678  1.0110  0.9374 -0.0471
13525TIP3    H162066   2.766   1.614  10.710  1.5595 -1.1791 -1.7229
13525TIP3    H262067   2.676   1.692  10.617  1.7924  0.5352 -0.5439
13526TIP3   OH262068   2.758   5.357   6.308 -0.4563  0.2264 -0.0831
13526TIP3    H162069   2.799   5.402   6.233 -1.3599  2.0894  0.5044
13526TIP3    H262070   2.831   5.334   6.365  0.1360 -0.2022 -0.9893
13527TIP3   OH262071   4.156   2.947  15.673 -0.0542  0.0358 -0.1619
13527TIP3    H162072   4.086   2.967  15.735 -0.8327 -1.3878 -0.5624
13527TIP3    H262073   4.164   2.851  15.676  1.3046  0.1238 -0.7365
13528TIP3   OH262074   2.601   1.040  10.232 -0.0755  0.1381  0.1713
13528TIP3    H162075   2.622   0.948  10.249 -1.5779 -0.5441 -1.5135
13528TIP3    H262076   2.510   1.039  10.202  0.3534  2.0132 -1.2656
13529TIP3   OH262077   2.544   3.649  15.090 -0.0103  0.4616 -0.3180
13529TIP3    H162078   2.588   3.624  15.008  0.2530  1.2638 -0.4319
13529TIP3    H262079   2.451   3.646  15.069 -0.0716 -2.0749  0.1661
13530TIP3   OH262080   3.864   2.331   3.780 -0.1844  0.2557  0.2270
13530TIP3    H162081   3.830   2.276   3.709 -0.9217  0.0923  0.6973
13530TIP3    H262082   3.820   2.298   3.858  0.9747  0.1226  0.8349
13531TIP3   OH262083   1.432   6.358   3.814  0.5547  0.0544  0.7255
13531TIP3    H162084   1.506   6.407   3.849  0.6765 -0.3405  1.0122
13531TIP3    H262085   1.389   6.420   3.754  0.9519  0.3725  0.7686
13532TIP3   OH262086   3.990   2.997  15.423  0.1101 -0.5846  0.4040
13532TIP3    H162087   4.057   3.003  15.491  1.0581 -0.1513 -0.5451
13532TIP3    H262088   3.984   2.904  15.403  0.2502 -0.6484  0.6593
13533TIP3   OH262089   5.283   5.669  15.324  0.6456 -0.0366  0.8185
13533TIP3    H162090   5.264   5.762  15.338 -1.0730 -0.1419 -0.6562
13533TIP3    H262091   5.360   5.668  15.267 -0.4700  0.5146 -0.7211
13534TIP3   OH262092   5.169   6.000  15.871 -0.7131 -0.3096  0.1287
13534TIP3    H162093   5.239   5.934  15.875 -0.6964 -0.4043 -1.3296
13534TIP3    H262094   5.170   6.041  15.957  1.2497 -0.2260  0.1031
13535TIP3   OH262095   1.597   4.894  12.445  0.6318 -0.0445  0.1522
13535TIP3    H162096   1.677   4.910  12.496  0.2058  2.4388  0.1086
13535TIP3    H262097   1.614   4.937  12.361  0.0467 -1.3152 -0.6296
13536TIP3   OH262098   0.464   4.694   3.514  0.1340 -0.2170 -0.1465
13536TIP3    H162099   0.406   4.754   3.562  0.4888  0.3028 -0.3640
13536TIP3    H262100   0.448   4.609   3.554 -1.3423 -0.2227 -0.6866
13537TIP3   OH262101   5.374   0.041   5.098 -0.1161 -0.8020  0.5517
13537TIP3    H162102   5.450   0.000   5.057  1.6940  2.1277  0.8317
13537TIP3    H262103   5.406   0.069   5.184 -1.2145  1.2255  0.3433
13538TIP3   OH262104   1.549   1.003   2.562  0.0977  0.0816  0.3189
13538TIP3    H162105   1.553   0.977   2.470 -0.9611  1.5900 -0.1644
13538TIP3    H262106   1.474   0.955   2.597 -0.2498  0.4525  0.0848
13539TIP3   OH262107   3.087   6.718  17.007 -0.1582 -0.3424 -0.5445
13539TIP3    H162108   3.067   6.696  16.916  0.4053  0.4904 -0.8766
13539TIP3    H262109   3.008   6.762  17.040 -0.4230 -0.7958 -0.5778
13540TIP3   OH262110   3.241   5.750   3.748  0.1142  0.7959  0.5726
13540TIP3    H162111   3.306   5.803   3.703 -1.2079  2.1023  0.1846
13540TIP3    H262112   3.283   5.727   3.831  0.9478  1.9027  0.4681
13541TIP3   OH262113   1.027   6.443   2.920 -0.4595  0.4620  0.2750
13541TIP3    H162114   1.115   6.411   2.937  0.0662  1.9649  0.4039
13541TIP3    H262115   0.972   6.365   2.924  0.5381 -0.1481  2.4041
13542TIP3   OH262116   2.595   0.796  11.843 -0.3037 -0.1862  0.0880
13542TIP3    H162117   2.557   0.778  11.757 -2.4292  4.3521 -0.0720
13542TIP3    H262118   2.526   0.771  11.906 -0.6337  0.9348  0.1869
13543TIP3   OH262119   5.127   1.803  16.088 -0.4450 -0.1054 -0.6212
13543TIP3    H162120   5.033   1.817  16.077 -0.3355  0.8235 -0.4166
13543TIP3    H262121   5.133   1.735  16.155 -0.9620  0.1424 -0.3198
13544TIP3   OH262122   3.409   0.181  14.065  0.2614 -0.0779  0.2690
13544TIP3    H162123   3.459   0.110  14.103  1.8271  0.7976 -0.1155
13544TIP3    H262124   3.430   0.178  13.972 -0.9771 -0.1487 -0.0244
13545TIP3   OH262125   4.595   4.242  12.060 -0.6125 -0.3759 -0.4879
13545TIP3    H162126   4.680   4.258  12.101 -0.9834 -0.6105  0.3682
13545TIP3    H262127   4.549   4.185  12.121 -0.8425 -1.4199 -1.6291
13546TIP3   OH262128   2.796   0.832  15.866  0.0153 -0.2760  0.2224
13546TIP3    H162129   2.769   0.846  15.776 -1.2977  0.4457  0.7176
13546TIP3    H262130   2.891   0.828  15.862  0.0206  0.8030 -1.0461
13547TIP3   OH262131   0.220   5.927  15.271  0.3651  0.2205 -0.0884
13547TIP3    H162132   0.161   5.926  15.346  0.0092 -0.3491 -0.3668
13547TIP3    H262133   0.288   5.989  15.294  1.1244 -1.1212  1.3611
13548TIP3   OH262134   5.883   4.043  13.928 -0.6515  0.5416  0.0963
13548TIP3    H162135   5.804   4.034  13.875  0.6823 -0.2163 -1.8143
13548TIP3    H262136   5.876   4.130  13.968 -1.8407  0.9782 -1.0286
13549TIP3   OH262137   5.630   1.741   0.286 -0.5935 -0.0890  0.3145
13549TIP3    H162138   5.706   1.735   0.343 -0.3558  0.5297  0.0654
13549TIP3    H262139   5.667   1.757   0.199 -1.0173  0.4867  0.2401
13550TIP3   OH262140   5.601   1.494  13.715 -0.5421 -0.6373 -0.3055
13550TIP3    H162141   5.674   1.437  13.739 -0.2931 -0.4010 -0.5020
13550TIP3    H262142   5.624   1.528  13.628 -0.6345 -0.1519 -0.1456
13551TIP3   OH262143   0.196   5.551  12.096  0.2879  0.2807 -0.1789
13551TIP3    H162144   0.127   5.617  12.099  1.4083  1.4999 -0.8124
13551TIP3    H262145   0.272   5.594  12.135  0.4136 -1.4224  1.5410
13552TIP3   OH262146   6.192   4.019   5.477 -0.3200  0.8016  0.3628
13552TIP3    H162147   6.248   3.942   5.481 -2.1588 -0.5409  0.4597
13552TIP3    H262148   6.237   4.084   5.531  0.4203 -0.7225  1.6177
13553TIP3   OH262149   4.430   3.384   2.250  0.5845 -0.0935 -0.0900
13553TIP3    H162150   4.417   3.422   2.163  1.2329 -0.9597 -0.5844
13553TIP3    H262151   4.494   3.442   2.292 -1.0147  1.2963  0.4628
13554TIP3   OH262152   5.879   0.888  10.883  0.7891  0.1834 -0.1900
13554TIP3    H162153   5.845   0.845  10.804  0.5766 -1.7345  0.9170
13554TIP3    H262154   5.945   0.828  10.917  2.2114  1.8725  0.0773
13555TIP3   OH262155   0.106   0.197   5.102  0.0063  0.3784 -0.0965
13555TIP3    H162156   0.097   0.109   5.138  0.1208  0.3324 -0.1773
13555TIP3    H262157   0.136   0.250   5.175  1.4429  0.0326 -0.4184
13556TIP3   OH262158   0.249   2.301   4.254  0.1485  0.1964 -0.0060
13556TIP3    H162159   0.338   2.278   4.282  1.0440  3.6569  0.2178
13556TIP3    H262160   0.252   2.295   4.159  1.1881  2.0870 -0.1159
13557TIP3   OH262161   5.511   6.442   4.595 -0.3383  0.0755  0.1678
13557TIP3    H162162   5.435   6.461   4.650  0.1228  0.5545  0.6474
13557TIP3    H262163   5.476   6.395   4.520 -0.8087 -1.8944  1.5807
13558TIP3   OH262164   2.369   4.287  11.724 -0.3520  0.4476 -0.4764
13558TIP3    H162165   2.304   4.355  11.738 -1.2314 -0.8591  2.0838
13558TIP3    H262166   2.411   4.275  11.810  1.3026 -0.6961 -1.4035
13559TIP3   OH262167   3.707   4.440  12.843 -0.8814  0.0453  0.5318
13559TIP3    H162168   3.636   4.428  12.906 -1.4012 -0.7593 -0.2115
13559TIP3    H262169   3.763   4.507  12.884 -1.7831  0.3182  1.3495
13560TIP3   OH262170   4.652   1.412  13.421  0.0119  0.0384 -0.0243
13560TIP3    H162171   4.682   1.353  13.491  0.3904  1.2273  0.8216
13560TIP3    H262172   4.723   1.413  13.358  0.2528  0.0486  0.2470
13561TIP3   OH262173   0.260   1.491   0.306  0.0105  0.4073 -0.5300
13561TIP3    H162174   0.199   1.436   0.356  0.8512 -2.7127 -2.7851
13561TIP3    H262175   0.205   1.544   0.250 -0.7518  0.2439  0.0542
13562TIP3   OH262176   3.922   0.192  12.645 -0.5655  0.1196 -0.5874
13562TIP3    H162177   3.898   0.283  12.664 -0.1755  0.7644 -3.0444
13562TIP3    H262178   4.012   0.184  12.677 -0.2674  0.8788 -1.2233
13563TIP3   OH262179   0.383   0.328  11.059 -0.3110 -0.2193 -0.0327
13563TIP3    H162180   0.449   0.322  10.990 -1.4517 -2.6377 -0.9651
13563TIP3    H262181   0.371   0.422  11.073  1.9195  0.2715 -1.1760
13564TIP3   OH262182   0.664   3.622   2.020  0.1899 -0.7643 -0.0766
13564TIP3    H162183   0.748   3.665   2.003  0.5988 -1.0194  1.2951
13564TIP3    H262184   0.673   3.584   2.107 -0.7976 -2.1444 -0.5671
13565TIP3   OH262185   3.262   5.137  14.820 -0.1199  0.6594  0.3277
13565TIP3    H162186   3.346   5.095  14.834  0.7034  1.9301 -0.6352
13565TIP3    H262187   3.277   5.229  14.841 -0.8571  1.1685 -1.2903
13566TIP3   OH262188   4.687   3.339  14.265  0.2720 -0.2084  0.0781
13566TIP3    H162189   4.599   3.332  14.302  0.3488  1.6058  0.6286
13566TIP3    H262190   4.730   3.257  14.291 -0.7477 -0.4137  1.1697
13567TIP3   OH262191   4.484   5.842  12.149 -0.8714 -0.5780  0.8942
13567TIP3    H162192   4.451   5.874  12.232 -0.4808  0.0988  0.7915
13567TIP3    H262193   4.567   5.800  12.170 -0.6271 -0.1448  0.8097
13568TIP3   OH262194   6.473   4.809   0.677  0.1352 -0.5778 -0.7488
13568TIP3    H162195   6.439   4.802   0.766  1.2962 -1.7316 -0.3806
13568TIP3    H262196   6.563   4.839   0.687 -0.3890  1.3863 -1.6649
13569TIP3   OH262197   4.988   1.155  13.999 -0.0537  0.2635  0.3246
13569TIP3    H162198   5.025   1.146  14.087  1.7946 -0.8564 -0.5350
13569TIP3    H262199   4.991   1.248  13.981  0.1581  0.4325  1.1840
13570TIP3   OH262200   5.252   3.093  11.133 -0.2836  0.5434  0.7964
13570TIP3    H162201   5.182   3.044  11.091 -0.3613  0.5339  0.9376
13570TIP3    H262202   5.330   3.038  11.123 -0.3034  0.5375  0.6717
13571TIP3   OH262203   3.427   5.411  14.732  0.1163  0.7085  0.3079
13571TIP3    H162204   3.512   5.438  14.697 -0.2100  2.8909  1.1095
13571TIP3    H262205   3.364   5.438  14.666 -0.1042  0.7725  0.5405
13572TIP3   OH262206   0.043   3.096   5.462 -0.8669  0.0470 -0.2181
13572TIP3    H162207  -0.047   3.102   5.494 -0.6625 -0.5660  0.5096
13572TIP3    H262208   0.039   3.034   5.389 -0.8968 -0.6594  0.3766
13573TIP3   OH262209   6.534   1.224  12.413 -0.1891  0.2443  0.1289
13573TIP3    H162210   6.564   1.227  12.504  1.8995 -0.7540 -0.4990
13573TIP3    H262211   6.554   1.311  12.378  0.1513  0.2252  0.2741
13574TIP3   OH262212   0.638   1.072   4.682 -0.5857  0.0367 -0.1101
13574TIP3    H162213   0.608   1.131   4.613  1.6424  1.7393  0.3407
13574TIP3    H262214   0.729   1.055   4.661 -0.4997 -1.1771  1.2212
13575TIP3   OH262215   3.175   5.600  13.679  0.5041 -0.0262 -0.0169
13575TIP3    H162216   3.101   5.542  13.661  0.8960 -0.1171 -1.3368
13575TIP3    H262217   3.134   5.680  13.712 -0.0822 -0.6929  0.9375
13576TIP3   OH262218   0.919   1.268  13.678 -0.1158 -0.2562 -0.3973
13576TIP3    H162219   0.977   1.343  13.670  0.1162 -0.5943 -2.0350
13576TIP3    H262220   0.844   1.288  13.622 -1.1068 -0.2825  0.8827
13577TIP3   OH262221   0.760   6.346   0.305  0.2607 -0.6668  0.2359
13577TIP3    H162222   0.703   6.327   0.231  0.4554 -0.7920  0.1204
13577TIP3    H262223   0.702   6.389   0.369  0.2647  0.1602 -0.3038
13578TIP3   OH262224   5.179   6.336   1.603 -0.2158  0.6075  0.1883
13578TIP3    H162225   5.153   6.409   1.659  0.3622  1.5848 -0.8186
13578TIP3    H262226   5.267   6.313   1.634 -1.2948 -1.2538  2.1000
13579TIP3   OH262227   3.933   3.528  12.483  0.3924  0.0242 -0.3864
13579TIP3    H162228   3.980   3.611  12.480 -0.5663  0.5614 -1.2709
13579TIP3    H262229   3.897   3.523  12.571 -1.0549  1.4292 -0.8845
13580TIP3   OH262230   5.925   5.017  14.355 -0.0854 -0.1455 -0.0687
13580TIP3    H162231   5.953   5.103  14.387  0.5241 -0.0730 -0.7661
13580TIP3    H262232   5.844   4.998  14.402 -0.2581  0.8513  0.0380
13581TIP3   OH262233   0.636   3.081  14.953  0.1712 -0.3390  0.4315
13581TIP3    H162234   0.697   3.017  14.916  1.4169  0.4647  1.0410
13581TIP3    H262235   0.665   3.165  14.918  0.1199  0.1842  1.6188
13582TIP3   OH262236   4.918   6.431  15.622 -0.2014  0.0717  0.0076
13582TIP3    H162237   4.948   6.448  15.711  0.3143 -2.5509  0.3889
13582TIP3    H262238   4.984   6.374  15.584 -1.2787 -0.2441 -1.4747
13583TIP3   OH262239   5.817   2.414  10.620 -0.3932  0.0522 -0.1659
13583TIP3    H162240   5.786   2.494  10.661  0.2411  0.1040  0.2106
13583TIP3    H262241   5.906   2.401  10.654  0.5389  0.6361 -2.2518
13584TIP3   OH262242   0.740   1.115  14.867 -0.1320 -0.4983  0.5728
13584TIP3    H162243   0.791   1.195  14.853 -1.7036  0.6971  1.4423
13584TIP3    H262244   0.729   1.079  14.779  0.1846  0.5248  0.0986
13585TIP3   OH262245   4.352   0.922   1.364 -0.7381  0.3082  0.4686
13585TIP3    H162246   4.359   0.950   1.455  0.5851 -0.7221  0.7137
13585TIP3    H262247   4.403   0.987   1.315 -0.2007  0.0344  0.6576
13586TIP3   OH262248   2.267   0.384  15.410 -0.0857 -0.1827 -0.0805
13586TIP3    H162249   2.205   0.453  15.432 -0.7210 -0.8136  0.1218
13586TIP3    H262250   2.240   0.352  15.324 -0.1076 -0.5252  0.0501
13587TIP3   OH262251   2.129   6.080  11.880 -0.1290 -0.1731 -0.5228
13587TIP3    H162252   2.156   6.130  11.957  0.8300  0.4018 -1.2153
13587TIP3    H262253   2.204   6.024  11.861  0.2612  0.8399 -1.9867
13588TIP3   OH262254   3.729   0.423   5.943  0.5647 -0.1966  0.5433
13588TIP3    H162255   3.694   0.343   5.984  0.0620 -0.2927 -0.0673
13588TIP3    H262256   3.705   0.493   6.004 -1.8390 -0.0773 -0.4533
13589TIP3   OH262257   2.220   3.450   3.678 -0.3089  0.5949  0.3515
13589TIP3    H162258   2.300   3.502   3.678  0.4524 -0.5673 -0.0408
13589TIP3    H262259   2.242   3.373   3.730 -1.5964  0.9023  1.3798
13590TIP3   OH262260   4.692   6.636   0.981  0.0402 -0.0767 -0.6972
13590TIP3    H162261   4.710   6.714   1.032  0.0140 -0.1410 -0.5901
13590TIP3    H262262   4.596   6.635   0.971 -0.1436 -1.1446  0.9695
13591TIP3   OH262263   5.514   3.579  11.984  0.1701 -0.3023  0.1862
13591TIP3    H162264   5.593   3.617  12.021  0.8239 -0.9804 -0.4819
13591TIP3    H262265   5.445   3.598  12.048  0.6180  1.3683  0.1828
13592TIP3   OH262266   6.804   4.774   4.492  0.2572 -0.0020 -0.0388
13592TIP3    H162267   6.881   4.826   4.468  0.4582  0.6046  1.8621
13592TIP3    H262268   6.730   4.831   4.473  0.3291 -0.1098 -0.6673
13593TIP3   OH262269   3.257   1.338  16.384  0.1078 -0.1082  0.0312
13593TIP3    H162270   3.194   1.353  16.313 -0.3601  2.3576  0.8994
13593TIP3    H262271   3.204   1.302  16.455  0.3540 -1.4500 -0.4657
13594TIP3   OH262272   1.480   2.544  13.312  0.0632 -0.5135  0.3258
13594TIP3    H162273   1.442   2.467  13.269  0.6029 -1.4165  1.4210
13594TIP3    H262274   1.427   2.556  13.390 -0.9208  1.1307 -0.5666
13595TIP3   OH262275   1.374   0.940   2.017  0.0666 -0.3867 -0.5650
13595TIP3    H162276   1.370   0.847   2.039 -2.3481 -0.2530 -0.3998
13595TIP3    H262277   1.325   0.947   1.935  0.4730  0.7111 -0.7201
13596TIP3   OH262278   3.642   4.441  17.028 -0.4602 -0.5909  0.6138
13596TIP3    H162279   3.634   4.510  16.962  1.1383 -1.6832 -0.7732
13596TIP3    H262280   3.678   4.486  17.105  0.9334  0.0726 -0.3966
13597TIP3   OH262281   0.526   6.074  16.361  0.2356 -0.5023  0.7430
13597TIP3    H162282   0.578   6.134  16.308  0.5273 -1.9643 -0.6916
13597TIP3    H262283   0.439   6.075  16.319  0.3480 -1.3558  0.4905
13598TIP3   OH262284   0.212   3.313   2.569  0.7091  0.5648  0.4883
13598TIP3    H162285   0.283   3.276   2.622 -0.6134 -0.6173  1.4502
13598TIP3    H262286   0.145   3.337   2.632 -0.7256 -0.4867 -0.6074
13599TIP3   OH262287   1.112   3.722  12.821  0.1151  0.0738 -0.0822
13599TIP3    H162288   1.105   3.628  12.804  2.4226 -0.2818  0.7035
13599TIP3    H262289   1.206   3.739  12.821 -0.2178  2.1102  1.2139
13600TIP3   OH262290   3.547   2.922   6.264  0.0332 -0.0552  0.2485
13600TIP3    H162291   3.464   2.893   6.224 -0.0800  1.4457 -0.6144
13600TIP3    H262292   3.572   2.849   6.320 -0.5808 -1.5954 -1.4070
13601TIP3   OH262293   6.697   4.894   0.824 -0.3200 -0.5321  0.3586
13601TIP3    H162294   6.656   4.906   0.909 -0.5079  0.5019  0.1307
13601TIP3    H262295   6.789   4.877   0.843 -0.4494 -0.7607  0.7836
13602TIP3   OH262296   2.068   0.140  11.228  0.3055  0.7923  0.1061
13602TIP3    H162297   1.980   0.115  11.201 -0.1909  1.0851  1.4155
13602TIP3    H262298   2.126   0.091  11.170 -0.7041 -0.3637  0.0600
13603TIP3   OH262299   3.733   1.212   1.996  0.9096  0.2002 -0.4293
13603TIP3    H162300   3.672   1.276   2.034 -0.1369 -0.9059 -0.2407
13603TIP3    H262301   3.804   1.266   1.960  0.4091  1.4352  0.3779
13604TIP3   OH262302   5.450   4.962   1.809 -0.6470 -0.2687  0.4137
13604TIP3    H162303   5.454   4.869   1.831 -1.2216  0.1297  2.2512
13604TIP3    H262304   5.473   4.965   1.716  0.2999 -2.1528  0.5509
13605TIP3   OH262305   2.790   6.492  14.006  0.1826  0.2086  0.8481
13605TIP3    H162306   2.767   6.569  13.953 -1.4079 -0.8263 -0.0070
13605TIP3    H262307   2.728   6.496  14.080  0.1125 -0.2327  0.8121
13606TIP3   OH262308   5.176   3.021   1.442 -0.2266  0.4856 -0.0685
13606TIP3    H162309   5.208   2.951   1.499  2.7416  0.5425 -1.5919
13606TIP3    H262310   5.080   3.013   1.445  0.0008 -1.9131  1.8710
13607TIP3   OH262311   6.182   4.053   2.587 -0.1101  0.1424 -0.0342
13607TIP3    H162312   6.092   4.066   2.556 -0.8608  0.2318  2.1232
13607TIP3    H262313   6.199   3.960   2.570 -1.0669 -0.1773  0.7125
13608TIP3   OH262314   6.464   6.421   1.896 -0.3208 -0.2523  0.2375
13608TIP3    H162315   6.402   6.449   1.829 -0.9607  0.4211  1.0916
13608TIP3    H262316   6.506   6.502   1.925  2.3818 -0.9264 -1.7091
13609TIP3   OH262317   5.718   0.444   4.958 -0.7589 -0.3788 -0.3612
13609TIP3    H162318   5.683   0.359   4.987 -1.6250  0.5430  1.4157
13609TIP3    H262319   5.644   0.504   4.967 -0.3703  0.4395 -2.3376
13610TIP3   OH262320   4.858   6.324   5.871  0.3406  0.4488 -0.0672
13610TIP3    H162321   4.876   6.349   5.961  0.2398 -0.6019  0.2436
13610TIP3    H262322   4.939   6.347   5.823 -0.0437  2.1249  0.0491
13611TIP3   OH262323   3.855   5.364   4.973 -0.4171  0.7274  0.2629
13611TIP3    H162324   3.923   5.310   4.933 -0.1234  1.7935 -0.7043
13611TIP3    H262325   3.886   5.380   5.062 -0.0476  0.1010  0.2501
13612TIP3   OH262326   4.659   0.919   4.050 -0.1878 -0.6917  0.2247
13612TIP3    H162327   4.697   0.839   4.086  1.6747  0.3638  0.6182
13612TIP3    H262328   4.663   0.982   4.122 -1.6891 -0.2308 -0.0716
13613TIP3   OH262329   1.382   4.940  11.507 -0.7551  0.4698 -0.2054
13613TIP3    H162330   1.344   4.988  11.433 -2.0425 -3.1174 -2.0429
13613TIP3    H262331   1.365   4.995  11.583  0.1175  4.0349 -2.4919
13614TIP3   OH262332   6.268   0.005  13.295 -0.2899  0.4776  0.4850
13614TIP3    H162333   6.183  -0.014  13.335 -1.5534 -1.3867 -2.9113
13614TIP3    H262334   6.252   0.083  13.241  0.2135  0.2399 -0.0040
13615TIP3   OH262335   5.869   5.706   3.947 -0.5280 -0.3215  0.1431
13615TIP3    H162336   5.953   5.727   3.988 -0.8928 -0.0021  0.7255
13615TIP3    H262337   5.888   5.708   3.853  0.4939 -1.7914  0.2843
13616TIP3   OH262338   2.304   5.377   6.271  0.6443  0.0276 -0.5610
13616TIP3    H162339   2.375   5.387   6.335  1.9028  1.1178 -2.0651
13616TIP3    H262340   2.329   5.301   6.218  1.1079  0.8519 -1.5625
13617TIP3   OH262341   3.127   3.606  11.596 -0.0927  0.2121  0.4310
13617TIP3    H162342   3.220   3.601  11.620 -0.1526  1.6816  1.0023
13617TIP3    H262343   3.087   3.656  11.667 -1.5087 -1.2228  0.6691
13618TIP3   OH262344   6.819   5.369  16.716  0.3313 -0.1890  0.6950
13618TIP3    H162345   6.820   5.273  16.705  0.0533 -0.2956  1.5805
13618TIP3    H262346   6.748   5.385  16.778 -0.1306  0.6635 -0.0505
13619TIP3   OH262347   6.454   4.252   1.400  0.0424  0.0356 -0.5731
13619TIP3    H162348   6.530   4.302   1.370 -1.4431  2.3181 -0.7124
13619TIP3    H262349   6.383   4.281   1.344 -1.0701 -1.5681 -0.0066
13620TIP3   OH262350   3.506   0.257   0.769 -0.6348 -0.1843  0.1147
13620TIP3    H162351   3.453   0.177   0.777 -0.9405 -0.0403 -0.4347
13620TIP3    H262352   3.507   0.275   0.675  0.3439 -0.1545  0.1263
13621TIP3   OH262353   2.978   3.726  11.157  0.2613  0.0654  0.3220
13621TIP3    H162354   3.001   3.695  11.070  0.4296  0.3768  0.2545
13621TIP3    H262355   2.971   3.647  11.210 -0.8401 -0.2037 -0.2116
13622TIP3   OH262356   3.417   0.383   4.321  0.2932 -0.4520  0.1343
13622TIP3    H162357   3.329   0.355   4.346  0.3749  0.4313  1.4941
13622TIP3    H262358   3.473   0.351   4.393  0.5719  1.9936  1.0383
13623TIP3   OH262359   2.799   3.019  12.499  0.3058 -0.2471 -0.3614
13623TIP3    H162360   2.780   2.932  12.464  0.8340 -1.0538  1.2704
13623TIP3    H262361   2.795   3.008  12.594  0.5336  1.4817 -0.1232
13624TIP3   OH262362   3.752   5.369   0.051  0.1736 -0.0964  0.0662
13624TIP3    H162363   3.839   5.334   0.032 -0.2671 -0.1151 -2.1211
13624TIP3    H262364   3.720   5.319   0.126  0.3172 -3.0877 -1.8126
13625TIP3   OH262365   5.971   0.208  14.448 -0.0920  0.7890  0.5135
13625TIP3    H162366   5.939   0.261  14.521 -0.2683 -1.0178  1.7760
13625TIP3    H262367   5.925   0.125  14.456  1.8089 -0.3660 -0.0977
13626TIP3   OH262368   5.929   6.814  16.683 -0.4327 -0.0616 -0.0496
13626TIP3    H162369   5.956   6.739  16.736  0.4474  0.7198  0.6282
13626TIP3    H262370   5.912   6.884  16.746 -2.0712  0.0674 -0.6260
13627TIP3   OH262371   1.602   6.079  14.363  0.2313 -0.2338  0.2211
13627TIP3    H162372   1.508   6.091  14.353  0.1288 -1.1709 -0.0718
13627TIP3    H262373   1.625   6.124  14.444 -0.4851 -0.0648  0.3262
13628TIP3   OH262374   2.105   3.767   2.441 -0.3153  0.5432 -0.6388
13628TIP3    H162375   2.096   3.747   2.534 -0.1376  0.0349 -0.7287
13628TIP3    H262376   2.040   3.835   2.424 -0.4727  0.5053 -0.1828
13629TIP3   OH262377   5.799   2.979   3.839  0.3770 -0.4926  1.0349
13629TIP3    H162378   5.786   2.983   3.934 -2.1428  0.9354  0.6456
13629TIP3    H262379   5.786   2.887   3.817 -1.2859 -0.4345  1.7644
13630TIP3   OH262380   4.747   2.885   4.681  0.1623  0.2369 -0.1190
13630TIP3    H162381   4.723   2.797   4.653 -0.5961  0.1661  0.7162
13630TIP3    H262382   4.704   2.943   4.618 -2.5022  0.1214  1.4934
13631TIP3   OH262383   1.010   0.560   0.986  0.5536  0.2385  0.1046
13631TIP3    H162384   0.957   0.621   1.036  0.4040  0.8146 -0.7402
13631TIP3    H262385   0.951   0.487   0.967 -0.3622  1.4692 -1.9580
13632TIP3   OH262386   0.360   1.953  14.421  0.5288 -0.0357 -0.1922
13632TIP3    H162387   0.300   1.899  14.369  1.4722  0.0621 -1.4102
13632TIP3    H262388   0.304   2.018  14.463 -0.0702  0.8352 -2.3067
13633TIP3   OH262389   4.997   2.042   4.413  0.1892 -0.0772 -0.2407
13633TIP3    H162390   5.000   1.960   4.464 -1.6868  0.5730  0.9499
13633TIP3    H262391   4.955   2.105   4.471  3.0107  2.2046 -0.5504
13634TIP3   OH262392   4.561   5.519   0.976 -0.0249  0.3064 -0.3296
13634TIP3    H162393   4.608   5.490   0.898 -0.1495  1.7002 -0.9406
13634TIP3    H262394   4.564   5.615   0.972  0.4062  0.4070  1.6405
13635TIP3   OH262395   4.896   2.299   4.975 -0.2966 -0.6445  0.0802
13635TIP3    H162396   4.914   2.349   5.055 -0.4848 -2.3161  1.1815
13635TIP3    H262397   4.980   2.298   4.928 -0.5385  1.5354 -0.4399
13636TIP3   OH262398   1.148   0.502   0.294  0.0469 -0.0654 -0.0516
13636TIP3    H162399   1.188   0.527   0.377  0.2923 -0.0379 -0.1787
13636TIP3    H262400   1.219   0.460   0.245  0.4478  1.7497 -1.0671
13637TIP3   OH262401   3.140   1.956  12.897 -0.0057  0.1301 -0.1053
13637TIP3    H162402   3.076   1.940  12.827 -0.4868 -1.1764  0.6104
13637TIP3    H262403   3.104   1.910  12.972 -0.1155  2.5642  1.3752
13638TIP3   OH262404   1.406   3.957  12.503 -0.5930  0.1360 -0.1928
13638TIP3    H162405   1.423   3.917  12.417  0.0267 -1.4528  0.6562
13638TIP3    H262406   1.372   4.044  12.482 -1.1034 -0.4874 -2.0729
13639TIP3   OH262407   5.293   2.282  14.616 -0.3590 -0.6024 -1.1536
13639TIP3    H162408   5.228   2.340  14.576 -1.1302 -1.5405 -1.2817
13639TIP3    H262409   5.370   2.292  14.561  0.4522  2.3594  0.3751
13640TIP3   OH262410   0.832   4.951  13.697 -0.1820  0.3312 -0.0470
13640TIP3    H162411   0.883   4.940  13.777  0.6640 -0.2204 -0.6620
13640TIP3    H262412   0.860   5.036  13.662 -0.1615  0.3230 -0.0502
13641TIP3   OH262413   6.512   5.755   5.736 -0.4421 -0.5685  0.1925
13641TIP3    H162414   6.558   5.796   5.809  0.3855 -0.0834 -0.6062
13641TIP3    H262415   6.508   5.662   5.760  0.6779 -0.5634  0.3969
13642TIP3   OH262416   4.167   5.697   5.843  0.4520 -0.4029 -0.2248
13642TIP3    H162417   4.217   5.751   5.903  0.1254  0.3700 -0.6375
13642TIP3    H262418   4.165   5.610   5.883  0.6130 -0.0005  0.6499
13643TIP3   OH262419   2.800   6.244   5.219 -0.3098  0.4451 -0.0065
13643TIP3    H162420   2.795   6.229   5.124 -1.0967  0.5018  0.0160
13643TIP3    H262421   2.732   6.187   5.255  0.1644  0.2287  0.5504
13644TIP3   OH262422   6.717   3.832  16.311  0.6205 -0.3453 -0.1719
13644TIP3    H162423   6.720   3.768  16.382  0.9486  0.6931  0.7637
13644TIP3    H262424   6.760   3.789  16.237  2.2419 -0.6338  0.9246
13645TIP3   OH262425   3.425   2.342   0.395 -0.3819 -0.1030  0.1447
13645TIP3    H162426   3.388   2.419   0.438 -0.1837 -1.1716  2.3414
13645TIP3    H262427   3.508   2.328   0.441  0.1557 -0.9016 -1.0635
13646TIP3   OH262428   2.407   5.918  11.282  0.0531 -0.3782  0.0004
13646TIP3    H162429   2.374   6.001  11.249  1.5619  0.1601 -0.2256
13646TIP3    H262430   2.394   5.856  11.210 -0.8358 -0.2838  0.0750
13647TIP3   OH262431   5.941   6.149   2.312  0.3886  0.2553 -0.1183
13647TIP3    H162432   5.966   6.081   2.374  1.2192 -0.8284 -1.5950
13647TIP3    H262433   6.025   6.178   2.275 -0.1694  0.0262 -1.5920
13648TIP3   OH262434   6.524   2.600  12.209 -0.5289 -0.3067 -0.0890
13648TIP3    H162435   6.556   2.527  12.156 -0.0558 -0.3779  0.2886
13648TIP3    H262436   6.604   2.647  12.234 -0.4531 -1.8516  2.8922
13649TIP3   OH262437   3.873   3.658  14.487 -0.1379 -0.0619 -0.1034
13649TIP3    H162438   3.826   3.729  14.444 -0.9991 -0.9563 -0.6747
13649TIP3    H262439   3.951   3.644  14.434  0.4935  1.0502  0.5231
13650TIP3   OH262440   5.811   4.938   0.705  0.1986  0.5610 -0.9917
13650TIP3    H162441   5.855   5.023   0.704  0.4256  0.4324 -2.6204
13650TIP3    H262442   5.719   4.958   0.688  0.1223  0.5373 -0.6231
13651TIP3   OH262443   2.423   0.757  11.482  0.0564  0.3527 -0.0644
13651TIP3    H162444   2.435   0.676  11.531 -1.4965  0.8193  1.1134
13651TIP3    H262445   2.392   0.820  11.546 -0.5625  1.3746 -1.3478
13652TIP3   OH262446   5.899   1.962   5.335  0.0976  0.1823  0.7999
13652TIP3    H162447   5.951   1.899   5.385 -0.3738  0.4487  1.6381
13652TIP3    H262448   5.816   1.916   5.318  0.0257  0.3190  0.7850
13653TIP3   OH262449   2.867   2.171   5.557 -0.0435  0.3261 -0.1094
13653TIP3    H162450   2.915   2.107   5.505 -1.2624 -0.6528 -0.0537
13653TIP3    H262451   2.935   2.226   5.596  1.0016 -0.7326 -0.4120
13654TIP3   OH262452   6.334   0.528   3.585 -0.3044  0.5286 -0.3307
13654TIP3    H162453   6.264   0.486   3.534 -0.6701 -0.0083  0.5848
13654TIP3    H262454   6.314   0.621   3.581  0.5135  0.6385 -2.3955
13655TIP3   OH262455   4.113   4.700  16.766 -0.3098  0.3138  0.0041
13655TIP3    H162456   4.190   4.754  16.782  0.2072 -0.1939 -0.6996
13655TIP3    H262457   4.048   4.731  16.828 -0.4364  2.5765 -1.1859
13656TIP3   OH262458   3.146   5.370  14.557  0.0703 -0.3598 -0.3869
13656TIP3    H162459   3.109   5.437  14.615  0.3808 -1.1285  0.7040
13656TIP3    H262460   3.085   5.296  14.564 -0.0198 -0.3669 -1.2301
13657TIP3   OH262461   3.936   3.295   0.882 -0.1503 -0.1460  0.0623
13657TIP3    H162462   3.908   3.243   0.957  0.1541  1.0905  1.0419
13657TIP3    H262463   4.006   3.243   0.842  0.2201 -0.4455  1.0854
13658TIP3   OH262464   4.322   5.761  14.168  0.1877  0.0336 -0.0145
13658TIP3    H162465   4.411   5.764  14.204  0.9556  0.2261 -1.8519
13658TIP3    H262466   4.335   5.757  14.073 -1.7633 -1.4188 -0.2369
13659TIP3   OH262467   1.481   4.548  13.785  0.1020  0.1578 -0.1477
13659TIP3    H162468   1.437   4.631  13.767  0.8551  0.1277 -2.2872
13659TIP3    H262469   1.454   4.526  13.874  0.4230  3.0201  0.7194
13660TIP3   OH262470   3.642   1.679  11.613  0.3601  0.0629  0.0445
13660TIP3    H162471   3.619   1.588  11.599  0.8091 -0.0381 -0.0441
13660TIP3    H262472   3.663   1.684  11.707 -3.1947  0.8594  0.8683
13661TIP3   OH262473   4.785   0.111  10.288  0.0730 -0.1065  0.3524
13661TIP3    H162474   4.735   0.156  10.356 -2.4775 -0.6322 -1.0789
13661TIP3    H262475   4.718   0.066  10.236  2.0050 -0.2474 -2.0885
13662TIP3   OH262476   0.351   2.895  15.017 -0.3040 -0.3152 -0.8495
13662TIP3    H162477   0.424   2.864  15.070 -1.4928  0.6640  1.4265
13662TIP3    H262478   0.382   2.978  14.980  0.2638 -0.6265 -1.0664
13663TIP3   OH262479   5.569   1.283  11.410  0.5737  0.2468  0.5649
13663TIP3    H162480   5.600   1.373  11.418 -0.9174  0.8477 -0.2289
13663TIP3    H262481   5.519   1.268  11.491  1.8287 -0.2880  1.2545
13664TIP3   OH262482   5.624   6.556  14.557 -0.0580  0.3588  0.2738
13664TIP3    H162483   5.714   6.571  14.585  0.2314  0.4551 -0.6907
13664TIP3    H262484   5.577   6.533  14.637  1.0035 -0.5584  0.6380
13665TIP3   OH262485   3.217   6.602  11.066  0.2364  0.5200 -0.7100
13665TIP3    H162486   3.251   6.583  10.978  0.8942  3.1457 -1.0536
13665TIP3    H262487   3.128   6.635  11.051 -0.2580 -0.5908 -0.2583
13666TIP3   OH262488   0.756   2.073  13.118  0.7170 -0.3472 -0.1038
13666TIP3    H162489   0.717   1.986  13.118  0.4993 -0.2505  0.2931
13666TIP3    H262490   0.790   2.084  13.029  0.7795 -0.8500 -0.1451
13667TIP3   OH262491   6.008   1.225   5.797  0.0643  0.2930 -0.0845
13667TIP3    H162492   6.073   1.174   5.749  3.5166  2.4767  2.0013
13667TIP3    H262493   5.955   1.268   5.730 -0.5395 -3.0637 -1.8351
13668TIP3   OH262494   1.468   5.732   4.721 -0.0830  0.5917  0.8909
13668TIP3    H162495   1.423   5.652   4.693  0.6207  1.0432 -1.6009
13668TIP3    H262496   1.549   5.734   4.670 -0.3557  3.1868  0.4805
13669TIP3   OH262497   1.413   6.405   1.258  0.0668 -0.2123 -0.7461
13669TIP3    H162498   1.362   6.385   1.336 -0.4409 -0.5178 -1.1502
13669TIP3    H262499   1.493   6.445   1.291  0.4877 -1.6470  0.0123
13670TIP3   OH262500   4.558   6.045  14.758 -0.2604 -0.4808  0.3878
13670TIP3    H162501   4.544   5.981  14.688 -1.3226 -0.7362  0.8304
13670TIP3    H262502   4.511   6.123  14.728  0.9545  0.0784 -0.1086
13671TIP3   OH262503   3.520   3.643   4.037 -0.4821 -0.1780  0.1619
13671TIP3    H162504   3.488   3.730   4.013 -1.3606  0.1258  2.2836
13671TIP3    H262505   3.528   3.646   4.133 -1.9723 -2.9044  0.4120
13672TIP3   OH262506   6.553   3.472   5.634  0.4101 -0.4005 -1.0010
13672TIP3    H162507   6.580   3.506   5.549  1.0920 -1.5992 -1.2640
13672TIP3    H262508   6.592   3.532   5.697  0.1300  0.3340 -1.5138
13673TIP3   OH262509   6.534   6.085   1.021  0.0306 -1.3755  0.0270
13673TIP3    H162510   6.622   6.047   1.024  0.0491 -1.3004  0.5909
13673TIP3    H262511   6.526   6.134   1.103 -0.1393 -0.4896 -0.5054
13674TIP3   OH262512   1.486   0.320   6.638  0.3030 -0.2092 -0.3398
13674TIP3    H162513   1.560   0.267   6.669  0.0908 -0.6305 -0.5418
13674TIP3    H262514   1.425   0.321   6.711 -0.8990 -2.5202 -1.2659
13675TIP3   OH262515   0.099   3.832   2.151  0.2174 -0.4768 -0.1164
13675TIP3    H162516   0.018   3.872   2.118 -0.8124 -1.6854  0.8977
13675TIP3    H262517   0.103   3.747   2.107  1.5223  0.0124 -0.9842
13676TIP3   OH262518   1.098   2.268  14.794 -0.2209  0.1355 -0.2130
13676TIP3    H162519   1.038   2.219  14.851  1.0365 -0.1543  0.8788
13676TIP3    H262520   1.063   2.357  14.793 -0.5383  0.0268  0.6284
13677TIP3   OH262521   0.369   6.606   2.828  0.2327 -0.1170 -0.2815
13677TIP3    H162522   0.394   6.631   2.918 -0.5222  0.9649 -0.3673
13677TIP3    H262523   0.396   6.515   2.821 -0.2440 -0.3900  1.2532
13678TIP3   OH262524   6.386   4.330  12.654  0.0220 -0.7353 -0.0222
13678TIP3    H162525   6.373   4.423  12.668 -1.7474 -0.7229 -1.5343
13678TIP3    H262526   6.313   4.288  12.699  0.8148 -1.4044  0.6677
13679TIP3   OH262527   5.225   4.210   5.330  0.4377  0.2115 -0.3277
13679TIP3    H162528   5.226   4.124   5.371  0.1759  0.8647  1.1057
13679TIP3    H262529   5.315   4.242   5.340  0.2415  0.5971  0.2593
13680TIP3   OH262530   0.716   2.050  15.693  0.1301  0.0067  0.0007
13680TIP3    H162531   0.685   2.080  15.778  0.6457 -0.3007  0.3026
13680TIP3    H262532   0.745   1.960  15.709 -0.3095 -0.2461 -0.6306
13681TIP3   OH262533   5.509   4.649  13.494  0.7258  0.6662  0.3817
13681TIP3    H162534   5.518   4.724  13.552  1.0578 -0.0392  1.2482
13681TIP3    H262535   5.425   4.664  13.449  0.3400  1.0761  1.2273
13682TIP3   OH262536   4.330   2.977  10.653 -0.4449  0.4963  0.1376
13682TIP3    H162537   4.347   2.885  10.676  1.6455  0.5457 -1.1033
13682TIP3    H262538   4.354   3.026  10.731  2.7711  0.3182 -0.6520
13683TIP3   OH262539   4.765   4.291  14.973 -0.7155  0.2376  0.8216
13683TIP3    H162540   4.841   4.296  14.916 -1.8431  2.5204 -0.5462
13683TIP3    H262541   4.705   4.232  14.927 -1.2152  1.2849  0.1067
13684TIP3   OH262542   6.662   1.777  13.042 -0.6052 -0.3382  0.2731
13684TIP3    H162543   6.582   1.742  13.080  0.3545 -0.3392  2.4074
13684TIP3    H262544   6.696   1.838  13.108  1.3618 -0.6498 -0.3919
13685TIP3   OH262545   2.550   4.271   1.212  0.1859 -0.0426 -0.2350
13685TIP3    H162546   2.518   4.360   1.231  0.4923  0.0655 -0.2344
13685TIP3    H262547   2.643   4.274   1.233  0.3732 -0.1300 -1.0720
13686TIP3   OH262548   4.099   4.539  14.537 -0.1532 -0.6676  0.0922
13686TIP3    H162549   4.034   4.561  14.471 -0.8238 -1.8128  0.3501
13686TIP3    H262550   4.048   4.505  14.611  0.7122 -1.2434  0.4369
13687TIP3   OH262551   3.506   1.136   1.190  0.0957  1.1336  0.2255
13687TIP3    H162552   3.587   1.117   1.237 -1.7148 -0.1349  2.9570
13687TIP3    H262553   3.487   1.227   1.211  0.1163  1.0387  0.6501
13688TIP3   OH262554   5.505   0.543   5.101  0.1235 -0.3869 -0.5274
13688TIP3    H162555   5.572   0.526   5.167  0.8338  0.8856 -0.9111
13688TIP3    H262556   5.423   0.550   5.151  0.8310  1.8022  0.3766
13689TIP3   OH262557   0.998   2.189   6.968 -0.3277 -0.3746 -0.0403
13689TIP3    H162558   1.071   2.131   6.990 -0.7259 -1.2597 -1.0043
13689TIP3    H262559   0.920   2.139   6.990 -0.6599  0.3879  0.5446
13690TIP3   OH262560   1.960   2.899   2.904 -0.1016  0.4165 -0.3579
13690TIP3    H162561   1.888   2.900   2.967  0.3351  0.9308  0.1529
13690TIP3    H262562   1.950   2.818   2.855 -0.7205  0.2388  0.0695
13691TIP3   OH262563   2.302   4.647   4.555  0.7656  0.6687  0.1416
13691TIP3    H162564   2.368   4.680   4.615 -0.9990 -1.3818  3.4070
13691TIP3    H262565   2.219   4.674   4.594 -0.5085 -2.6617 -0.0363
13692TIP3   OH262566   3.117   6.671   4.722  0.2403 -0.0834 -0.1336
13692TIP3    H162567   3.114   6.655   4.628  2.0508 -1.1236 -0.0163
13692TIP3    H262568   3.174   6.604   4.757  1.0492  1.4040  1.4845
13693TIP3   OH262569   4.375   5.409   1.179 -0.7077  0.0385 -0.3224
13693TIP3    H162570   4.366   5.480   1.243  2.4602 -0.4382  0.7370
13693TIP3    H262571   4.417   5.450   1.104 -1.8032 -0.0409 -0.9863
13694TIP3   OH262572   3.826   0.004   1.358 -0.3352  0.2655 -0.1419
13694TIP3    H162573   3.747   0.052   1.383 -0.0143  0.2190  0.9733
13694TIP3    H262574   3.889   0.072   1.334 -0.4944  0.3235 -0.4051
13695TIP3   OH262575   0.137   2.391   4.511 -0.2457  0.3489 -0.4544
13695TIP3    H162576   0.197   2.345   4.453  1.0205  0.7965  0.4653
13695TIP3    H262577   0.184   2.470   4.536 -0.7782  0.2075  1.0965
13696TIP3   OH262578   2.802   6.309  15.777  0.4846  0.4863  0.0086
13696TIP3    H162579   2.838   6.385  15.822 -0.4665  0.0831  1.5019
13696TIP3    H262580   2.833   6.234  15.829  0.7419 -0.0935 -0.9719
13697TIP3   OH262581   4.240   1.503  10.917  0.2806 -0.7235 -0.9308
13697TIP3    H162582   4.220   1.544  10.833 -1.6945  0.6392  0.1684
13697TIP3    H262583   4.325   1.541  10.942  0.4213 -0.4171 -1.8535
13698TIP3   OH262584   0.301   4.704   1.826  0.3434  0.1726 -0.6318
13698TIP3    H162585   0.246   4.763   1.878  0.6902  1.8828 -2.1425
13698TIP3    H262586   0.383   4.697   1.875 -1.1291 -2.3283  1.5924
13699TIP3   OH262587   5.315   1.704   3.552 -0.2315 -0.2743  0.0582
13699TIP3    H162588   5.266   1.783   3.574 -1.3003 -1.2219  1.1092
13699TIP3    H262589   5.327   1.709   3.457 -1.9807  0.1914 -0.1490
13700TIP3   OH262590   5.495   0.315  12.017 -0.0214  0.5820  0.1072
13700TIP3    H162591   5.579   0.334  11.976 -0.8921  2.1641 -0.9710
13700TIP3    H262592   5.517   0.261  12.093  2.0187  1.6410  0.2804
13701TIP3   OH262593   4.886   4.640  10.757 -0.6357 -0.5387 -0.2744
13701TIP3    H162594   4.952   4.656  10.689  0.9066 -1.7124  0.9057
13701TIP3    H262595   4.802   4.658  10.714  0.3767 -0.2435 -2.1775
13702TIP3   OH262596   4.890   5.647  12.759 -0.5974  0.4042  0.0163
13702TIP3    H162597   4.822   5.631  12.825 -0.2891  0.5046  0.3554
13702TIP3    H262598   4.972   5.642  12.807 -0.3415 -0.0731 -0.4647
13703TIP3   OH262599   6.801   2.561  15.007  0.5426 -0.3932 -0.0412
13703TIP3    H162600   6.709   2.587  15.016  0.3472 -0.4010 -1.8723
13703TIP3    H262601   6.831   2.548  15.097 -0.4336  2.3913  0.7340
13704TIP3   OH262602   6.577   4.783  13.643 -0.1752 -0.2630 -0.6077
13704TIP3    H162603   6.576   4.721  13.570 -2.4976 -2.2040  0.9898
13704TIP3    H262604   6.490   4.823  13.642 -0.1132 -0.0423  0.8503
13705TIP3   OH262605   4.320   4.106  13.995 -0.2649 -0.4555 -0.1807
13705TIP3    H162606   4.279   4.094  13.909 -1.6733 -3.0846  0.7937
13705TIP3    H262607   4.374   4.027  14.007  1.8073  0.9882  0.3662
13706TIP3   OH262608   0.692   3.487  16.524  0.3528  0.0983  0.7903
13706TIP3    H162609   0.700   3.544  16.448 -1.1001 -1.1682 -0.3604
13706TIP3    H262610   0.703   3.398  16.489  0.6994 -0.4496  2.2310
13707TIP3   OH262611   2.505   6.523  16.857  0.0248 -0.2677  0.0791
13707TIP3    H162612   2.570   6.495  16.921  0.8784  0.4244 -0.4774
13707TIP3    H262613   2.516   6.462  16.783 -0.2658 -0.4305  0.1675
13708TIP3   OH262614   0.699   2.723  16.810  0.3409 -0.1812  0.0049
13708TIP3    H162615   0.625   2.743  16.753  1.1221  1.2532 -0.5467
13708TIP3    H262616   0.756   2.800  16.803  1.6663 -1.0715  0.7578
13709TIP3   OH262617   3.109   4.388  13.711 -0.2346  0.3291 -0.0802
13709TIP3    H162618   3.176   4.424  13.653 -0.4690  1.3277  0.2636
13709TIP3    H262619   3.132   4.295  13.719  1.1114  0.6643  0.0516
13710TIP3   OH262620   0.205   2.622  16.147 -0.1575 -0.5296 -0.0379
13710TIP3    H162621   0.130   2.681  16.156 -0.0110 -0.2909 -0.3685
13710TIP3    H262622   0.208   2.574  16.230 -1.0664 -1.0093 -0.2680
13711TIP3   OH262623   4.988   6.377   0.781  0.0330 -0.1358 -0.5274
13711TIP3    H162624   5.066   6.427   0.803 -0.3152 -0.1248  0.7188
13711TIP3    H262625   4.934   6.379   0.860 -0.8542 -0.8508 -1.0922
13712TIP3   OH262626   6.493   3.791   0.167  0.3022 -0.0607  0.5727
13712TIP3    H162627   6.588   3.783   0.154  0.2632  0.1203  0.1500
13712TIP3    H262628   6.455   3.766   0.083 -0.0765 -1.0820  1.0418
13713TIP3   OH262629   0.105   5.085   4.384 -0.3367  0.1163  0.5070
13713TIP3    H162630   0.093   5.037   4.466 -1.0056  1.1548  1.0339
13713TIP3    H262631   0.167   5.155   4.407  0.5638 -0.4215 -0.2295
13714TIP3   OH262632   2.243   3.523   2.027 -0.0074  0.0534  0.4348
13714TIP3    H162633   2.190   3.508   2.105  0.0222 -0.7526  0.3027
13714TIP3    H262634   2.333   3.529   2.059 -0.0934  0.6642  0.5697
13715TIP3   OH262635   5.938   4.788  12.560  0.3709  0.2358  0.0619
13715TIP3    H162636   5.897   4.869  12.529 -1.0256  0.6020  2.7700
13715TIP3    H262637   6.021   4.815  12.597 -0.2761  0.4950  1.3339
13716TIP3   OH262638   5.470   0.617   5.403 -0.0840  0.5343  0.4787
13716TIP3    H162639   5.488   0.673   5.327  0.4779 -0.8843 -0.4517
13716TIP3    H262640   5.549   0.626   5.457  0.6737 -0.5338 -0.4180
13717TIP3   OH262641   6.450   0.580  16.687  0.0181  0.9347 -0.0620
13717TIP3    H162642   6.519   0.640  16.716 -1.0269  2.1854 -0.1273
13717TIP3    H262643   6.371   0.613  16.729 -0.3629 -1.1628  0.9176
13718TIP3   OH262644   5.030   1.452  14.016  0.8544 -0.7435 -0.5001
13718TIP3    H162645   5.082   1.486  14.089  1.2082  0.4864 -1.3054
13718TIP3    H262646   4.947   1.498  14.021  0.6224 -1.1588 -0.4737
13719TIP3   OH262647   1.022   3.916  13.199  0.2369  0.2231  0.4353
13719TIP3    H162648   0.990   3.919  13.289 -1.9530  0.5347 -0.3327
13719TIP3    H262649   0.948   3.946  13.146  0.2939 -3.1667 -1.7450
13720TIP3   OH262650   3.776   3.656  15.228 -0.2116  0.3876 -0.0003
13720TIP3    H162651   3.698   3.600  15.222 -0.5001  0.5602  1.9959
13720TIP3    H262652   3.806   3.647  15.318  0.5985  2.3462 -0.0503
13721TIP3   OH262653   2.577   3.854   3.064 -0.4068 -0.1779 -0.8377
13721TIP3    H162654   2.528   3.935   3.077  1.3215  0.7651  0.0884
13721TIP3    H262655   2.511   3.785   3.065 -1.5112  0.7862  3.1983
13722TIP3   OH262656   3.956   5.843  12.336 -0.2963  0.5627  0.1262
13722TIP3    H162657   4.015   5.786  12.385 -1.1669  0.2423  0.8130
13722TIP3    H262658   3.996   5.930  12.340  0.3938  0.2430  0.1346
13723TIP3   OH262659   2.252   5.870   4.234  0.5468  0.1204  0.2197
13723TIP3    H162660   2.332   5.918   4.215  0.4845 -0.4275 -1.5799
13723TIP3    H262661   2.266   5.784   4.195  0.0379 -0.8131  2.0388
13724TIP3   OH262662   3.788   3.417  12.086  0.3305 -0.4620  1.0105
13724TIP3    H162663   3.832   3.372  12.158 -0.1225 -0.7213  1.1286
13724TIP3    H262664   3.831   3.502  12.081  0.7655 -0.6714  1.1990
13725TIP3   OH262665   5.527   5.385  13.059  0.6639  0.2241  0.0516
13725TIP3    H162666   5.453   5.407  13.116 -1.4780  0.9560 -2.9271
13725TIP3    H262667   5.588   5.459  13.070  0.2964  0.3533  1.3680
13726TIP3   OH262668   0.330   3.455  14.492 -0.3804 -1.0888 -0.3131
13726TIP3    H162669   0.337   3.511  14.414  0.5730 -1.1271 -0.2565
13726TIP3    H262670   0.321   3.517  14.565  2.0638 -0.9358 -0.0938
13727TIP3   OH262671   6.677   1.168  12.147  0.0368 -0.0009  0.1984
13727TIP3    H162672   6.605   1.196  12.204 -0.3695 -1.6734  0.5412
13727TIP3    H262673   6.717   1.095  12.194  0.8040 -0.2672 -0.8615
13728TIP3   OH262674   5.149   5.523   0.423  0.3327 -0.2397  0.4570
13728TIP3    H162675   5.131   5.442   0.376  0.0593 -0.0273  0.1991
13728TIP3    H262676   5.175   5.585   0.355 -0.2026  0.1064  0.5716
13729TIP3   OH262677   2.206   0.670  12.886 -0.0258 -0.2505  0.0404
13729TIP3    H162678   2.118   0.673  12.923 -0.5316  0.7341 -1.2093
13729TIP3    H262679   2.260   0.721  12.947  0.0434 -2.2317  1.6951
13730TIP3   OH262680   3.964   6.466   0.241  0.0406  0.3687  1.0559
13730TIP3    H162681   3.869   6.466   0.253 -0.0158  2.3682  0.8684
13730TIP3    H262682   3.999   6.492   0.326  0.3331  1.1076  0.7152
13731TIP3   OH262683   5.972   4.513  11.439 -0.0446 -0.4257  0.1832
13731TIP3    H162684   5.914   4.566  11.493  0.5857 -0.3259  0.7669
13731TIP3    H262685   5.920   4.492  11.361  0.2231  2.3626 -0.8126
13732TIP3   OH262686   4.062   6.224  14.540 -0.0897  0.0355  0.0989
13732TIP3    H162687   4.098   6.182  14.618 -0.7565  0.2139  0.5071
13732TIP3    H262688   3.979   6.178  14.524 -0.8590  1.2394  0.5911
13733TIP3   OH262689   0.489   3.731  12.775 -0.0966 -0.2585  0.5069
13733TIP3    H162690   0.485   3.816  12.732 -1.6275 -0.4322  0.2732
13733TIP3    H262691   0.560   3.740  12.839  1.2013  0.4892 -0.9815
13734TIP3   OH262692   0.151   2.286   3.484 -0.7010 -0.1555  0.4833
13734TIP3    H162693   0.060   2.264   3.468  0.0949 -3.2461 -0.1581
13734TIP3    H262694   0.194   2.202   3.500  2.2277  1.1189 -0.2698
13735TIP3   OH262695   6.779   3.492  11.167 -0.0651 -0.3864 -0.2676
13735TIP3    H162696   6.791   3.447  11.083  1.4718  0.1103 -0.3351
13735TIP3    H262697   6.717   3.563  11.148 -3.3424 -3.0243  0.0670
13736TIP3   OH262698   4.945   0.746  12.549 -0.3566 -0.0821 -0.6426
13736TIP3    H162699   4.945   0.798  12.629  1.4905  1.6823 -1.7570
13736TIP3    H262700   5.009   0.677  12.564  0.0800  0.3238 -0.6598
13737TIP3   OH262701   1.951   6.379  16.479  0.1496  0.1137  0.0812
13737TIP3    H162702   1.913   6.302  16.522 -0.1298 -0.5511 -1.3157
13737TIP3    H262703   1.995   6.427  16.549 -0.0214 -1.1121  1.0423
13738TIP3   OH262704   0.762   5.610   5.125 -0.0107 -0.3149 -0.0398
13738TIP3    H162705   0.699   5.676   5.098 -1.5133 -1.6733  0.0924
13738TIP3    H262706   0.828   5.610   5.056 -1.0823 -0.1198 -1.0818
13739TIP3   OH262707   3.263   0.162  11.855 -0.0334 -0.4972 -0.0918
13739TIP3    H162708   3.210   0.088  11.824 -0.7943  0.2882 -0.6856
13739TIP3    H262709   3.203   0.236  11.853  0.2669 -0.1621  2.0495
13740TIP3   OH262710   0.443   0.994  11.768  0.1113 -0.3357 -0.0197
13740TIP3    H162711   0.453   0.993  11.673 -0.2995 -1.4061 -0.0658
13740TIP3    H262712   0.399   1.076  11.788 -0.7965 -0.6193 -0.8650
13741TIP3   OH262713   0.908   4.225  14.455  0.2069  0.4124 -0.5914
13741TIP3    H162714   0.947   4.229  14.368 -0.8411  2.0361 -1.0074
13741TIP3    H262715   0.859   4.142  14.456  0.2214  0.3867 -1.5380
13742TIP3   OH262716   6.423   1.253  14.142 -0.0078 -0.0470  0.6267
13742TIP3    H162717   6.487   1.247  14.071 -0.5769  0.9160  0.0189
13742TIP3    H262718   6.404   1.161  14.163  0.9470 -0.3424  0.2539
13743TIP3   OH262719   0.538   2.675   2.636  0.0452  0.1563 -0.0708
13743TIP3    H162720   0.584   2.595   2.662 -0.2561 -0.2259 -0.6957
13743TIP3    H262721   0.497   2.706   2.717  1.0962  0.3009  0.4093
13744TIP3   OH262722   3.696   1.269  13.001  0.9256 -0.2772  0.1150
13744TIP3    H162723   3.633   1.301  13.066 -0.4332 -0.3772 -1.1418
13744TIP3    H262724   3.677   1.175  12.995 -0.2386  0.0637 -1.8141
13745TIP3   OH262725   2.745   2.938  12.780  0.3599  0.1626 -0.0929
13745TIP3    H162726   2.785   2.869  12.833  0.3308  2.0179  2.4190
13745TIP3    H262727   2.658   2.951  12.819 -0.0701  0.8406 -1.2490
13746TIP3   OH262728   1.713   1.734   2.893  0.2483 -0.2105 -0.6827
13746TIP3    H162729   1.782   1.777   2.944  1.0402 -0.0851 -1.8283
13746TIP3    H262730   1.759   1.700   2.816 -1.1488  0.6961 -1.9220
13747TIP3   OH262731   4.876   0.198   0.263  0.7109 -0.0273  0.3019
13747TIP3    H162732   4.891   0.258   0.190  0.9543  0.4380  0.7293
13747TIP3    H262733   4.783   0.176   0.258  0.5252  0.7190  0.3879
13748TIP3   OH262734   0.725   1.979   4.548 -0.0030  0.0190 -0.0283
13748TIP3    H162735   0.819   1.967   4.533  0.1735  2.0008 -0.6374
13748TIP3    H262736   0.688   1.892   4.533  1.6734 -0.6909 -0.2410
13749TIP3   OH262737   3.787   2.371   0.491  0.1037  0.0820 -0.3652
13749TIP3    H162738   3.800   2.300   0.429 -0.4750 -0.2405 -0.1253
13749TIP3    H262739   3.825   2.339   0.573 -0.0160  0.1111 -0.2977
13750TIP3   OH262740   6.626   5.094   2.548 -0.5815 -0.3620  0.0783
13750TIP3    H162741   6.703   5.129   2.504 -0.9390 -0.5599 -0.7015
13750TIP3    H262742   6.609   5.156   2.619  0.0709 -0.1208  0.0308
13751TIP3   OH262743   4.497   5.752   3.271 -0.0406  0.1969  0.5286
13751TIP3    H162744   4.423   5.742   3.211 -1.1500 -0.8017  2.0183
13751TIP3    H262745   4.511   5.846   3.277 -1.4366  0.4228  0.4785
13752TIP3   OH262746   6.245   6.172   3.559 -0.3491  0.0061 -0.9286
13752TIP3    H162747   6.217   6.108   3.625  0.6233 -0.7596 -1.2479
13752TIP3    H262748   6.324   6.133   3.520  0.9174  1.9295 -0.3365
13753TIP3   OH262749   2.316   5.438  12.895 -0.1089  0.2698 -0.1592
13753TIP3    H162750   2.358   5.364  12.938 -1.4136 -0.5328 -0.2483
13753TIP3    H262751   2.236   5.402  12.856 -1.1870  1.8650  0.4973
13754TIP3   OH262752   3.377   4.922   3.488  0.0238  0.0451  0.3023
13754TIP3    H162753   3.387   4.828   3.470 -1.1351 -0.0127 -0.0815
13754TIP3    H262754   3.313   4.926   3.558 -0.0124  0.5626  0.2362
13755TIP3   OH262755   6.705   3.825   2.734  0.4273 -0.3006  0.8255
13755TIP3    H162756   6.797   3.847   2.720  0.0357  0.6066 -0.4561
13755TIP3    H262757   6.669   3.816   2.646 -0.4523 -1.8037  1.3187
13756TIP3   OH262758   5.251   0.540  13.763 -0.4482 -0.1671  0.5016
13756TIP3    H162759   5.203   0.620  13.741  0.0252  0.1038  0.4499
13756TIP3    H262760   5.230   0.479  13.693  0.6803  0.5337 -0.4617
13757TIP3   OH262761   0.227   4.049   0.242 -0.2062 -0.0270  0.2270
13757TIP3    H162762   0.224   4.118   0.309  0.0710  1.7752 -1.5769
13757TIP3    H262763   0.319   4.025   0.237 -0.4805 -1.4229  1.7398
13758TIP3   OH262764   1.234   2.174   0.674  0.1531 -0.1718  0.4606
13758TIP3    H162765   1.233   2.083   0.705  1.0857 -0.9764 -1.7175
13758TIP3    H262766   1.250   2.226   0.752 -1.1796 -1.8327  1.8741
13759TIP3   OH262767   6.748   5.168   5.332  0.5420 -0.0244 -0.0607
13759TIP3    H162768   6.759   5.202   5.421 -1.6851 -0.7724  0.5339
13759TIP3    H262769   6.742   5.073   5.343  0.1446 -0.1136 -0.9994
13760TIP3   OH262770   3.603   5.941  14.017 -0.0089 -0.5680  0.4982
13760TIP3    H162771   3.515   5.915  13.988 -0.1996 -0.0490  0.6202
13760TIP3    H262772   3.637   5.994  13.945 -0.6776  1.1460  1.4390
13761TIP3   OH262773   0.757   6.457  13.413  0.1676 -0.2020  0.4310
13761TIP3    H162774   0.780   6.501  13.331 -1.6362  1.7133  0.8956
13761TIP3    H262775   0.815   6.381  13.417  2.1957  1.1994 -1.2567
13762TIP3   OH262776   3.488   6.337  11.027 -0.3668 -0.6992 -0.2081
13762TIP3    H162777   3.432   6.312  10.954  0.3358 -0.5320 -0.8039
13762TIP3    H262778   3.576   6.314  10.999  0.0752  0.6787  0.0088
13763TIP3   OH262779   5.174   1.228   4.645 -0.2387 -0.1817  0.2957
13763TIP3    H162780   5.106   1.217   4.579  0.9439  0.7751 -1.1399
13763TIP3    H262781   5.135   1.285   4.711 -1.8973 -2.2602  1.1390
13764TIP3   OH262782   1.236   3.382   5.282  0.1331 -0.3498 -0.8065
13764TIP3    H162783   1.277   3.306   5.324 -0.5645 -0.5112 -0.4066
13764TIP3    H262784   1.227   3.357   5.190  2.0206  0.1502 -1.1627
13765TIP3   OH262785   4.114   3.765   4.593 -0.4822 -0.0074  0.5202
13765TIP3    H162786   4.187   3.728   4.543 -0.3021 -0.8427  1.4048
13765TIP3    H262787   4.036   3.723   4.556 -0.5153  0.7938 -0.3426
13766TIP3   OH262788   2.656   5.816   3.288 -0.3244  0.2614  0.1710
13766TIP3    H162789   2.731   5.761   3.265 -0.6055  0.6277 -1.6612
13766TIP3    H262790   2.622   5.847   3.204 -0.0228  3.4543  1.1832
13767TIP3   OH262791   2.371   3.386   5.838  0.5762  0.5225 -0.0094
13767TIP3    H162792   2.328   3.302   5.824  1.3989  0.1214 -0.1477
13767TIP3    H262793   2.456   3.378   5.793  0.4729  1.5792 -0.4138
13768TIP3   OH262794   6.177   2.499  11.837 -0.6066 -0.5245 -0.1933
13768TIP3    H162795   6.154   2.565  11.902 -1.4527 -2.4761  1.5284
13768TIP3    H262796   6.238   2.544  11.778 -1.8680  2.0523  0.3845
13769TIP3   OH262797   3.859   1.598   1.367 -0.2682  0.4274 -0.0235
13769TIP3    H162798   3.795   1.657   1.407  0.7973  0.0722  2.3244
13769TIP3    H262799   3.940   1.649   1.367 -0.2784  0.4581 -1.8921
13770TIP3   OH262800   1.494   3.399  13.975  0.5408  0.6219 -0.3062
13770TIP3    H162801   1.497   3.309  13.943 -2.0160  0.6405 -0.6919
13770TIP3    H262802   1.573   3.409  14.028  0.7913 -1.8883 -0.1720
13771TIP3   OH262803   6.160   5.926  15.865 -0.5412 -0.1816  0.2267
13771TIP3    H162804   6.211   5.950  15.942  2.2942 -0.6878 -1.4612
13771TIP3    H262805   6.172   5.831  15.857  0.8267  0.1470 -1.9688
13772TIP3   OH262806   6.048   4.722   4.878  0.2262  0.1118  0.2124
13772TIP3    H162807   6.019   4.701   4.789 -0.3976 -3.3528  1.1465
13772TIP3    H262808   6.143   4.710   4.876  0.1685 -0.3379  0.0928
13773TIP3   OH262809   3.990   5.875   0.400  0.3533 -0.0995  0.2750
13773TIP3    H162810   3.896   5.893   0.406  0.4659  0.8109 -0.6084
13773TIP3    H262811   4.003   5.799   0.456 -0.9457 -0.3558  0.2425
13774TIP3   OH262812   3.847   3.625   0.057 -0.5162  0.4879 -0.1960
13774TIP3    H162813   3.816   3.686  -0.011 -0.0999  0.8377 -0.0704
13774TIP3    H262814   3.911   3.675   0.107  0.7871 -0.4629 -0.8859
13775TIP3   OH262815   4.664   3.659  15.351  0.2932  0.2510  0.6667
13775TIP3    H162816   4.702   3.729  15.299 -0.0325 -0.1592 -0.1270
13775TIP3    H262817   4.614   3.607  15.289 -1.4907  0.7268  1.6499
13776TIP3   OH262818   2.761   4.821  12.592 -0.4687  0.6889  0.3899
13776TIP3    H162819   2.826   4.890  12.575 -0.2958  0.3680 -0.2459
13776TIP3    H262820   2.722   4.803  12.507 -1.2194  0.7000  0.7270
13777TIP3   OH262821   3.799   3.787  12.262 -0.0980  0.1979 -0.3847
13777TIP3    H162822   3.718   3.768  12.309  0.2136 -0.3729 -0.0671
13777TIP3    H262823   3.792   3.739  12.180  0.2954 -0.5457  0.0207
13778TIP3   OH262824   1.668   3.815   0.092  0.2753 -0.2017  0.2620
13778TIP3    H162825   1.711   3.897   0.114  0.8884 -0.2101 -0.8782
13778TIP3    H262826   1.597   3.807   0.156  0.8610  0.6899  1.0304
13779TIP3   OH262827   3.826   3.643  15.565  0.8727 -0.2308  0.1081
13779TIP3    H162828   3.890   3.674  15.501  0.5891 -0.9251 -0.5339
13779TIP3    H262829   3.854   3.681  15.648  0.7895  1.3365 -0.5638
13780TIP3   OH262830   4.573   0.873   2.245  0.1206  0.0972  0.2435
13780TIP3    H162831   4.519   0.950   2.228 -0.1177 -0.2525 -0.5726
13780TIP3    H262832   4.532   0.803   2.195  0.9235 -0.3332  0.1878
13781TIP3   OH262833   4.543   5.303   5.688  0.5579  0.2895  0.3628
13781TIP3    H162834   4.545   5.292   5.593 -2.4042  1.4039  0.0957
13781TIP3    H262835   4.467   5.360   5.703  1.2852  0.5289  3.3620
13782TIP3   OH262836   0.307   6.625  16.197  0.5217 -0.2893  0.6202
13782TIP3    H162837   0.312   6.616  16.292 -0.4986 -0.4293  0.6602
13782TIP3    H262838   0.251   6.553  16.169  1.4660 -0.7342 -0.1735
13783TIP3   OH262839   0.264   6.007   1.137  0.3126  0.1038  0.1355
13783TIP3    H162840   0.290   6.044   1.221  1.1535  0.5464 -0.3125
13783TIP3    H262841   0.237   5.917   1.158  0.8172  0.1068  0.8314
13784TIP3   OH262842   6.668   4.822   5.939 -0.1314 -0.0190 -0.4634
13784TIP3    H162843   6.701   4.783   6.020 -0.2784  3.1151  1.1725
13784TIP3    H262844   6.588   4.773   5.920 -0.8384  0.0715  2.0496
13785TIP3   OH262845   4.582   4.223  14.692  0.3970  0.1643  0.8672
13785TIP3    H162846   4.505   4.235  14.637 -0.2275 -0.2793  1.6442
13785TIP3    H262847   4.648   4.188  14.633 -0.1453  0.0865  0.3036
13786TIP3   OH262848   1.248   1.468   4.778  0.4722 -0.7375  0.7810
13786TIP3    H162849   1.286   1.552   4.752 -1.4392 -0.1421 -0.1573
13786TIP3    H262850   1.177   1.491   4.838 -0.8079 -1.6186 -0.3785
13787TIP3   OH262851   4.585   0.869   2.662  0.5722 -0.2087  0.4888
13787TIP3    H162852   4.646   0.835   2.595 -1.1022  1.4903 -1.9992
13787TIP3    H262853   4.619   0.956   2.682  0.7743 -0.5173  1.4886
13788TIP3   OH262854   6.244   2.898   4.676 -0.5761 -0.1976 -0.1499
13788TIP3    H162855   6.219   2.930   4.763 -2.6481 -2.6290  0.2163
13788TIP3    H262856   6.194   2.953   4.616 -1.8766 -0.8085  0.3544
13789TIP3   OH262857   3.429   5.174   3.129 -0.4311 -0.0206  0.4896
13789TIP3    H162858   3.487   5.250   3.122 -0.9120  0.4328  1.3720
13789TIP3    H262859   3.362   5.189   3.062  0.5881 -0.6684 -0.7062
13790TIP3   OH262860   1.505   0.732   5.397 -0.2446 -0.6254  0.3020
13790TIP3    H162861   1.562   0.798   5.436 -0.2870 -0.5638  0.2591
13790TIP3    H262862   1.532   0.729   5.305  0.3755 -1.3113  0.5000
13791TIP3   OH262863   3.508   6.157  15.866  0.1099 -0.0525 -0.5076
13791TIP3    H162864   3.482   6.235  15.818 -0.1201 -0.4252 -1.0021
13791TIP3    H262865   3.434   6.096  15.853  0.8150 -0.7899 -1.1512
13792TIP3   OH262866   2.280   1.941  14.185  0.0820  0.5267  0.6074
13792TIP3    H162867   2.192   1.941  14.148  0.8292  0.5677 -1.2583
13792TIP3    H262868   2.301   2.034  14.197 -0.0320  0.5288  0.7770
13793TIP3   OH262869   2.505   1.425   3.636  0.0361 -0.6619 -0.2696
13793TIP3    H162870   2.415   1.453   3.620 -0.4350 -1.9273  0.1078
13793TIP3    H262871   2.530   1.469   3.717  0.0023  0.2374 -0.7449
13794TIP3   OH262872   0.712   3.955   6.095 -0.2983 -0.1866 -0.1495
13794TIP3    H162873   0.644   4.023   6.087 -1.1116 -0.8791  0.7781
13794TIP3    H262874   0.666   3.873   6.079  0.4992 -0.5905 -0.3664
13795TIP3   OH262875   0.057   2.446   6.742  0.1307 -0.5692  0.1826
13795TIP3    H162876   0.132   2.497   6.769  1.2486 -1.2538 -1.5679
13795TIP3    H262877   0.045   2.382   6.813 -2.6017  3.3374  3.4452
13796TIP3   OH262878   0.126   0.395   1.224 -0.3594 -0.7055 -0.5335
13796TIP3    H162879   0.041   0.373   1.186  0.1719 -0.5191 -1.8649
13796TIP3    H262880   0.136   0.488   1.208  0.5676 -0.9380 -1.3838
13797TIP3   OH262881   6.558   3.235   2.065 -0.0384  0.0242 -1.2472
13797TIP3    H162882   6.601   3.158   2.101 -0.1243  1.3665  1.8884
13797TIP3    H262883   6.629   3.295   2.042 -0.0840  0.7424  0.4307
13798TIP3   OH262884   2.544   4.393  15.230 -0.5469  0.4113 -0.1343
13798TIP3    H162885   2.558   4.458  15.299  1.6386 -0.2361  0.0634
13798TIP3    H262886   2.607   4.324  15.249 -2.8409 -1.8039 -0.3383
13799TIP3   OH262887   6.083   3.413  12.231 -0.9277 -0.5260  0.0160
13799TIP3    H162888   6.174   3.399  12.255 -1.1289 -0.4918  0.8245
13799TIP3    H262889   6.066   3.505  12.250 -1.6374 -0.9617  1.6660
13800TIP3   OH262890   3.510   5.250  15.718 -0.2825 -0.2719 -0.0855
13800TIP3    H162891   3.564   5.174  15.738 -0.8386 -0.7481 -0.3858
13800TIP3    H262892   3.568   5.308  15.668 -0.2949 -1.1360 -1.1057
13801TIP3   OH262893   6.024   4.184   5.854 -0.3409 -0.3994 -0.8733
13801TIP3    H162894   6.017   4.267   5.901 -0.6523 -1.0141  0.1662
13801TIP3    H262895   6.054   4.209   5.766 -1.0184  0.8659 -0.7553
13802TIP3   OH262896   6.241   0.912   2.947 -0.2076  0.1984  0.1422
13802TIP3    H162897   6.164   0.855   2.954  1.3819 -1.7363  3.2537
13802TIP3    H262898   6.212   0.997   2.981 -0.6002 -0.9808  2.8638
13803TIP3   OH262899   2.964   6.588  12.899  0.1291 -0.0905  0.1083
13803TIP3    H162900   2.891   6.526  12.907 -0.3144  0.5381  1.0666
13803TIP3    H262901   2.922   6.674  12.903  0.8117  0.2756 -0.4952
13804TIP3   OH262902   1.571   0.790  17.237 -0.2281 -0.1067 -0.1892
13804TIP3    H162903   1.495   0.836  17.202  0.0303 -0.3362 -1.0616
13804TIP3    H262904   1.560   0.796  17.332  0.0683  2.2057 -0.2580
13805TIP3   OH262905   3.667   6.602   2.730 -0.1922  0.3313  0.1845
13805TIP3    H162906   3.689   6.581   2.820 -1.5639 -0.2289  0.3994
13805TIP3    H262907   3.658   6.517   2.687 -2.5759  0.5032  0.2778
13806TIP3   OH262908   6.211   5.665   0.594  0.0209 -0.2108 -0.1000
13806TIP3    H162909   6.128   5.710   0.580  0.2966  0.7761  1.3115
13806TIP3    H262910   6.244   5.646   0.506 -1.4404 -0.1640 -0.6739
13807TIP3   OH262911   5.553   3.121   1.551  0.1288 -0.0861  0.2436
13807TIP3    H162912   5.484   3.167   1.599 -1.6369 -1.1481 -1.2170
13807TIP3    H262913   5.543   3.030   1.576 -0.5003 -0.5829 -1.7067
13808TIP3   OH262914   4.163   2.617  16.050 -0.2283 -0.2055  0.1779
13808TIP3    H162915   4.167   2.599  15.956  0.1559  0.8353 -0.0138
13808TIP3    H262916   4.238   2.569  16.086 -0.1654 -0.3146 -0.0905
13809TIP3   OH262917   3.764   2.736   1.561  0.3017 -0.5631 -0.2354
13809TIP3    H162918   3.671   2.728   1.539  0.0277 -1.9345  1.3126
13809TIP3    H262919   3.788   2.825   1.534 -0.7438 -1.1280 -3.1636
13810TIP3   OH262920   0.378   1.754   4.079  0.1999 -0.0584  0.2824
13810TIP3    H162921   0.449   1.790   4.131 -0.3761  0.5559  0.6521
13810TIP3    H262922   0.397   1.783   3.989  0.4119  0.1075  0.3815
13811TIP3   OH262923   6.648   3.516   3.970  0.6166  0.1955 -0.5470
13811TIP3    H162924   6.718   3.459   3.938  1.3298  0.4971  0.4598
13811TIP3    H262925   6.626   3.480   4.056  0.1393  0.6348 -0.4851
13812TIP3   OH262926   6.049   4.898  13.576  0.6509  0.0653 -0.1913
13812TIP3    H162927   5.998   4.962  13.625  1.1945  0.4436 -0.1066
13812TIP3    H262928   5.985   4.838  13.540  0.0873  0.9493 -0.6852
13813TIP3   OH262929   4.221   4.838  15.837  0.4797 -0.0578 -0.0845
13813TIP3    H162930   4.259   4.783  15.905 -1.1111  0.4756  1.3057
13813TIP3    H262931   4.229   4.788  15.756  0.4810 -1.6376  0.8791
13814TIP3   OH262932   4.522   6.793  12.497 -0.0485  0.0096  0.0202
13814TIP3    H162933   4.483   6.836  12.421 -1.0312 -0.4232  0.2686
13814TIP3    H262934   4.468   6.714  12.509  0.8513 -0.5423  0.4252
13815TIP3   OH262935   2.171   0.376  11.339  0.7325 -0.3210  0.1966
13815TIP3    H162936   2.144   0.290  11.307  4.2138 -0.9740 -1.2891
13815TIP3    H262937   2.175   0.430  11.260  0.3765  0.6846  0.8585
13816TIP3   OH262938   6.695   0.616   3.268 -0.1153 -0.1943  0.0966
13816TIP3    H162939   6.676   0.525   3.292 -0.1574  0.1019  1.1989
13816TIP3    H262940   6.790   0.620   3.264 -0.1395 -0.6994 -1.6197
13817TIP3   OH262941   5.711   5.731  15.914 -0.1253  0.3213  0.0918
13817TIP3    H162942   5.649   5.802  15.929  0.6060  0.6997  1.4539
13817TIP3    H262943   5.665   5.652  15.942 -0.6416  0.3644 -0.6340
13818TIP3   OH262944   4.884   3.760  16.633  0.2425  0.0651  0.0629
13818TIP3    H162945   4.859   3.670  16.653  1.1129 -0.1317  0.2773
13818TIP3    H262946   4.919   3.794  16.715 -0.5128  0.7564  0.1135
13819TIP3   OH262947   3.241   3.245  17.252  0.0644 -0.4480  0.0436
13819TIP3    H162948   3.224   3.307  17.181 -0.8951 -1.7682 -0.8907
13819TIP3    H262949   3.305   3.184  17.216 -0.4026 -1.1046  0.3269
13820TIP3   OH262950   3.274   3.806   2.266 -0.2517  0.2271 -0.5455
13820TIP3    H162951   3.325   3.727   2.249  0.4555  0.5437  0.0654
13820TIP3    H262952   3.310   3.871   2.206  0.0625  0.4493 -0.1177
13821TIP3   OH262953   6.738   3.913   6.072  0.0178 -0.0606 -0.2687
13821TIP3    H162954   6.702   3.999   6.050  0.0018  0.0277  0.1012
13821TIP3    H262955   6.666   3.867   6.116  1.0537  0.9648  2.6035
13822TIP3   OH262956   6.020   6.689   0.156 -0.0583  0.0131 -0.3551
13822TIP3    H162957   6.049   6.599   0.172  0.0561  0.2985  1.1722
13822TIP3    H262958   5.925   6.686   0.166 -0.3199 -0.4033 -2.7388
13823TIP3   OH262959   4.910   1.012  14.591 -0.6717  0.0178  0.2141
13823TIP3    H162960   4.839   0.956  14.560 -0.0461 -0.2706 -0.7149
13823TIP3    H262961   4.950   0.963  14.662 -1.4853  0.2440  0.8396
13824TIP3   OH262962   2.880   4.421  11.857 -0.4472 -0.0385  0.2899
13824TIP3    H162963   2.842   4.396  11.773  0.5459 -0.1547 -0.1320
13824TIP3    H262964   2.915   4.340  11.893  1.1542  0.4061 -0.2386
13825TIP3   OH262965   3.611   4.390  14.770  0.1321 -0.0356  0.0122
13825TIP3    H162966   3.618   4.485  14.768 -1.6881  0.1244  0.3672
13825TIP3    H262967   3.665   4.363  14.844  0.6947  0.7183 -0.1254
13826TIP3   OH262968   6.376   6.335   4.523  0.0492  1.0498  0.5092
13826TIP3    H162969   6.354   6.345   4.430 -0.2628 -1.7005  0.2384
13826TIP3    H262970   6.291   6.339   4.568  0.2420  2.8201  0.7406
13827TIP3   OH262971   4.264   5.819  12.897  0.2640  0.6869 -0.5324
13827TIP3    H162972   4.323   5.871  12.843 -0.1487  0.4359 -1.2323
13827TIP3    H262973   4.181   5.867  12.894 -0.0269  0.1567 -0.9085
13828TIP3   OH262974   5.148   2.609   4.064  0.3634  0.3626 -0.4651
13828TIP3    H162975   5.233   2.565   4.066  0.8641  1.2536 -1.4499
13828TIP3    H262976   5.146   2.654   3.979 -0.2069  2.0570  0.4098
13829TIP3   OH262977   5.257   5.072   4.360  0.5865  0.1393  0.3995
13829TIP3    H162978   5.316   5.065   4.434  0.7166  1.2419  0.4086
13829TIP3    H262979   5.258   4.985   4.320  1.5215 -0.0932  0.9220
13830TIP3   OH262980   5.615   4.259   1.917 -0.7154  0.2802 -0.1004
13830TIP3    H162981   5.660   4.267   1.833 -1.9360 -0.1943 -0.8075
13830TIP3    H262982   5.639   4.339   1.965  0.2810  0.3731 -0.7457
13831TIP3   OH262983   2.593   6.576   2.495  0.2461 -0.0847 -0.0970
13831TIP3    H162984   2.607   6.669   2.478 -1.2139  0.1009 -0.2988
13831TIP3    H262985   2.679   6.545   2.525  0.2132  1.8011  2.1005
13832TIP3   OH262986   3.263   1.912   5.264  0.3862  0.3013 -0.1873
13832TIP3    H162987   3.352   1.945   5.274  0.2982 -0.2901  3.1076
13832TIP3    H262988   3.217   1.943   5.342 -2.1878  0.2060 -1.6100
13833TIP3   OH262989   0.756   0.861   6.199  0.2187 -0.0407  0.4824
13833TIP3    H162990   0.669   0.844   6.163  0.4591  2.1912 -1.2840
13833TIP3    H262991   0.740   0.879   6.292 -0.7482 -3.0763  0.9704
13834TIP3   OH262992   5.567   0.611   3.269  0.0163  0.2561  0.6467
13834TIP3    H162993   5.558   0.615   3.174 -0.9829  0.0543  0.7277
13834TIP3    H262994   5.661   0.615   3.284  0.1992  0.0045 -0.3683
13835TIP3   OH262995   6.288   1.123  12.463 -0.1370  0.2223 -0.3615
13835TIP3    H162996   6.299   1.029  12.479 -0.8243  0.1603 -0.2150
13835TIP3    H262997   6.368   1.149  12.419  0.0742 -0.4318 -0.3799
13836TIP3   OH262998   0.320   6.716  12.312 -0.0543  0.8895 -0.2897
13836TIP3    H162999   0.391   6.711  12.375  0.7600 -0.0042 -1.2600
13836TIP3    H263000   0.358   6.760  12.236 -0.8890  1.5295 -0.3441
13837TIP3   OH263001   1.892   1.168   5.848  0.5056  0.1186 -0.0620
13837TIP3    H163002   1.916   1.144   5.759 -2.7762 -1.2744 -0.6656
13837TIP3    H263003   1.910   1.090   5.900 -2.6768 -1.0113 -0.5597
13838TIP3   OH263004   1.051   3.431  15.865 -0.1693  0.3090 -0.2007
13838TIP3    H163005   1.122   3.492  15.882 -0.5892  1.2614 -1.7495
13838TIP3    H263006   1.094   3.347  15.849  0.5031  0.5234  0.4598
13839TIP3   OH263007   0.587   6.578   1.201 -0.3892 -0.3096  0.6988
13839TIP3    H163008   0.509   6.601   1.250  0.0320  0.1986  1.1385
13839TIP3    H263009   0.649   6.649   1.219 -0.0504 -0.3865 -0.1483
13840TIP3   OH263010   5.625   4.422   2.882  0.4231 -0.2986  0.1662
13840TIP3    H163011   5.616   4.460   2.795  0.3615  1.2889  0.8658
13840TIP3    H263012   5.696   4.358   2.873  2.6075  2.1137 -0.3124
13841TIP3   OH263013   6.171   4.366  16.703 -0.0025 -0.2727 -0.1186
13841TIP3    H163014   6.200   4.290  16.652 -0.9308 -0.7075 -0.0184
13841TIP3    H263015   6.076   4.359  16.704 -0.1833  1.6567 -1.2717
13842TIP3   OH263016   5.820   1.634   5.129  0.1485 -0.1810  0.5382
13842TIP3    H163017   5.910   1.663   5.117  0.0777  0.2936  1.1611
13842TIP3    H263018   5.818   1.545   5.091  0.7895 -0.0655  0.2390
13843TIP3   OH263019   5.734   5.277  11.989  0.2166 -0.6772 -0.3684
13843TIP3    H163020   5.810   5.218  11.997  0.4842 -0.1008  1.5853
13843TIP3    H263021   5.662   5.229  12.030  0.0920 -0.2384 -0.0730
13844TIP3   OH263022   5.578   3.522   2.516 -0.0292  0.5611  0.5547
13844TIP3    H163023   5.513   3.553   2.453  0.3405 -0.1044 -0.1571
13844TIP3    H263024   5.526   3.498   2.593 -0.6302 -0.0480 -0.0394
13845TIP3   OH263025   0.513   1.251   2.445 -0.3541 -0.0000  0.3126
13845TIP3    H163026   0.421   1.278   2.449 -0.0638  0.8555  1.6008
13845TIP3    H263027   0.562   1.334   2.442  0.4199 -0.4221  1.0799
13846TIP3   OH263028   3.358   0.073   1.960  0.2071 -0.5291  0.3056
13846TIP3    H163029   3.450   0.056   1.980 -0.1658 -0.3648  2.2215
13846TIP3    H263030   3.337   0.010   1.891  1.2392 -1.8496  1.1783
13847TIP3   OH263031   2.414   0.357  15.989  0.0902  0.0918  0.3379
13847TIP3    H163032   2.426   0.262  15.980  1.7071  0.4606 -1.7308
13847TIP3    H263033   2.486   0.386  16.044  0.0830  0.2215  0.2801
13848TIP3   OH263034   2.849   6.529   1.655 -0.1109  0.5727 -0.2881
13848TIP3    H163035   2.942   6.508   1.665 -0.2701  0.4542  1.1659
13848TIP3    H263036   2.804   6.467   1.713 -1.1107  0.5189 -1.1067
13849TIP3   OH263037   5.677   5.104  15.984 -0.5729  0.2165  0.5276
13849TIP3    H163038   5.639   5.151  16.058  0.2349  1.2589  0.2926
13849TIP3    H263039   5.625   5.131  15.908  0.0173  0.8988  0.3599
13850TIP3   OH263040   0.480   5.685   4.798  0.4659  0.1034 -0.2534
13850TIP3    H163041   0.441   5.752   4.854  0.6561  0.1475 -0.1715
13850TIP3    H263042   0.476   5.605   4.850  0.0708  0.0134 -0.4242
13851TIP3   OH263043   2.746   1.327   3.524 -0.4411 -0.1513  0.1561
13851TIP3    H163044   2.656   1.355   3.542 -0.2357 -0.3569  1.5601
13851TIP3    H263045   2.797   1.408   3.526 -0.2794 -0.2821  1.4193
13852TIP3   OH263046   2.488   5.452  14.864  0.1996 -0.1175  0.4113
13852TIP3    H163047   2.581   5.463  14.884 -0.0979 -0.8194  2.3573
13852TIP3    H263048   2.447   5.434  14.949 -1.8382  0.9513 -0.2968
13853TIP3   OH263049   2.729   2.689  16.705  0.2848  0.1391 -0.0787
13853TIP3    H163050   2.697   2.732  16.785  1.1604  1.4644 -0.4316
13853TIP3    H263051   2.734   2.759  16.640  1.4745 -0.5510 -0.7425
13854TIP3   OH263052   0.603   1.252  13.656 -0.3333  0.3206  0.9680
13854TIP3    H163053   0.573   1.304  13.730 -0.8260 -0.8398  1.6053
13854TIP3    H263054   0.552   1.285  13.582  0.5048  1.8074  1.0413
13855TIP3   OH263055   3.826   3.143  17.057  0.1712  0.3797 -0.4467
13855TIP3    H163056   3.816   3.215  16.994 -0.8786  1.5014  0.9444
13855TIP3    H263057   3.817   3.185  17.143 -2.5741 -1.6981  0.3623
13856TIP3   OH263058   1.304   2.133   2.830 -0.0555 -0.0207 -0.5983
13856TIP3    H163059   1.397   2.119   2.847  0.2638 -0.9371 -2.8712
13856TIP3    H263060   1.260   2.078   2.895  1.0575 -1.7394 -1.2433
13857TIP3   OH263061   4.515   6.679   3.810 -0.1040 -0.1968 -0.5542
13857TIP3    H163062   4.478   6.697   3.897 -0.3742  1.2751 -0.9737
13857TIP3    H263063   4.503   6.584   3.799 -0.9978 -0.2296  0.5846
13858TIP3   OH263064   5.379   4.042  13.504  0.0642  0.2887 -0.4180
13858TIP3    H163065   5.452   4.104  13.503 -0.7985  1.3315 -0.1835
13858TIP3    H263066   5.405   3.974  13.566  1.1939  0.2106 -0.9720
13859TIP3   OH263067   4.602   1.495  17.199  0.7587 -0.2768  0.2476
13859TIP3    H163068   4.604   1.589  17.184  1.9734 -0.5258 -1.3083
13859TIP3    H263069   4.523   1.464  17.154  0.7270 -0.1016  0.1867
13860TIP3   OH263070   5.938   1.567  13.773  0.1167  0.0080 -0.0883
13860TIP3    H163071   6.012   1.592  13.718  0.0946  0.0426 -0.1017
13860TIP3    H263072   5.919   1.476  13.749  0.5367 -0.1922  0.3435
13861TIP3   OH263073   3.921   2.199  16.209 -0.1586 -0.1155  0.4401
13861TIP3    H163074   4.004   2.244  16.222 -0.9166  1.9224 -1.4033
13861TIP3    H263075   3.932   2.152  16.126 -0.5180 -0.6109  0.6728
13862TIP3   OH263076   4.689   3.706  11.979 -0.3258 -0.5445 -0.2336
13862TIP3    H163077   4.644   3.714  12.062  2.1182  0.5474  1.0416
13862TIP3    H263078   4.671   3.788  11.933 -0.6032 -0.6076 -0.2362
13863TIP3   OH263079   6.460   3.192  15.704  0.7656 -0.2690 -0.2026
13863TIP3    H163080   6.388   3.138  15.672  1.4845 -0.6320 -1.2427
13863TIP3    H263081   6.501   3.138  15.772 -0.5297  0.3475  1.0981
13864TIP3   OH263082   6.470   2.084  13.556  0.4616  0.7620  0.6216
13864TIP3    H163083   6.393   2.057  13.607  1.6966 -1.1277  1.5315
13864TIP3    H263084   6.438   2.088  13.465 -0.9690  1.0471  1.1222
13865TIP3   OH263085   5.170   3.584   4.981  0.0907  0.1744 -0.1075
13865TIP3    H163086   5.097   3.547   4.931 -0.6076 -0.4018  1.3069
13865TIP3    H263087   5.130   3.610   5.065  1.0880  1.7721 -0.1118
13866TIP3   OH263088   1.940   2.870  10.762 -0.0943 -0.1553 -0.0335
13866TIP3    H163089   1.938   2.815  10.841 -1.5819 -1.1531 -0.7607
13866TIP3    H263090   1.925   2.810  10.690  0.1364  0.9325 -1.0089
13867TIP3   OH263091   2.720   4.006   2.868  0.5680 -0.0706 -0.1865
13867TIP3    H163092   2.691   3.962   2.949  1.5521 -0.7593 -0.2010
13867TIP3    H263093   2.687   4.096   2.877  0.4245 -0.2158  0.8570
13868TIP3   OH263094   4.988   4.232   4.449 -0.1513  0.1097 -0.2364
13868TIP3    H163095   4.939   4.165   4.400  1.5001 -0.8747 -0.5935
13868TIP3    H263096   5.078   4.201   4.446  0.6902  2.5341 -0.6424
13869TIP3   OH263097   6.098   6.807   2.225 -0.2009  0.2318  0.0232
13869TIP3    H163098   6.114   6.901   2.234 -0.1991  0.3671 -1.2907
13869TIP3    H263099   6.011   6.801   2.185 -0.3710 -0.3366  0.4661
13870TIP3   OH263100   4.147   4.661  12.642  0.2797  0.0551 -0.7631
13870TIP3    H163101   4.162   4.678  12.549  0.4299 -1.2410 -0.9868
13870TIP3    H263102   4.227   4.618  12.672  0.3946  0.8281  0.0730
13871TIP3   OH263103   0.823   2.277  14.418  0.0460  0.3405 -0.2393
13871TIP3    H163104   0.740   2.248  14.456 -0.2663  3.5821  1.7247
13871TIP3    H263105   0.800   2.309  14.331 -0.3579 -0.9352 -0.6126
13872TIP3   OH263106   2.139   3.311  13.526  0.0208  0.0177 -0.1502
13872TIP3    H163107   2.129   3.397  13.484 -0.8528 -0.1987 -0.3934
13872TIP3    H263108   2.073   3.256  13.483  0.4839 -0.7374  0.1081
13873TIP3   OH263109   0.501   0.813  13.131  0.2323 -0.0414  0.0358
13873TIP3    H163110   0.477   0.773  13.047 -1.8362  0.0281  0.5657
13873TIP3    H263111   0.547   0.894  13.106  0.9371 -0.7492 -1.0239
13874TIP3   OH263112   4.543   5.735  15.425 -0.3658 -0.3624  0.1674
13874TIP3    H163113   4.585   5.697  15.502  2.8362  0.8552 -0.8868
13874TIP3    H263114   4.538   5.663  15.362  1.8510 -0.1154 -0.3353
13875TIP3   OH263115   5.253   1.857   1.356  0.0002 -0.0453 -0.1435
13875TIP3    H163116   5.240   1.935   1.302 -0.3267 -0.6092 -0.8849
13875TIP3    H263117   5.305   1.798   1.301  0.9380 -0.0375  0.7099
13876TIP3   OH263118   3.778   1.914  10.592 -0.6206  0.4711 -0.4886
13876TIP3    H163119   3.762   1.848  10.525 -0.8670 -0.7756  0.7688
13876TIP3    H263120   3.831   1.870  10.657 -0.4819  1.6279  0.2035
13877TIP3   OH263121   1.321   0.809   2.611 -1.1337  0.0657 -0.0012
13877TIP3    H163122   1.260   0.778   2.543 -1.2446  0.9661 -0.3103
13877TIP3    H263123   1.267   0.812   2.691 -1.3847  0.4433 -0.1834
13878TIP3   OH263124   1.494   5.925  15.865 -0.4621  0.0285  0.2768
13878TIP3    H163125   1.404   5.893  15.870 -0.7018  0.7451  0.6748
13878TIP3    H263126   1.528   5.915  15.954 -0.6345  1.1198  0.4791
13879TIP3   OH263127   3.007   3.804   5.731 -0.3485  0.0663  0.0956
13879TIP3    H163128   3.069   3.735   5.753 -1.5181 -2.0612 -2.9189
13879TIP3    H263129   3.059   3.870   5.686  0.7884  1.2648  3.0554
13880TIP3   OH263130   2.570   3.202   5.918  0.6925 -0.2554 -0.4010
13880TIP3    H163131   2.533   3.194   6.006  1.4555  2.0875  0.1768
13880TIP3    H263132   2.522   3.138   5.865 -2.3660  0.8588  0.9013
13881TIP3   OH263133   4.395   2.909   2.053  0.6634  0.2465  0.2579
13881TIP3    H163134   4.460   2.951   2.110  1.3243 -0.3319 -0.0644
13881TIP3    H263135   4.382   2.822   2.091  0.3003  0.2489  0.1413
13882TIP3   OH263136   5.194   1.426  16.399  0.7500 -0.0196  0.0992
13882TIP3    H163137   5.127   1.365  16.429  1.1264 -1.0322 -1.0870
13882TIP3    H263138   5.271   1.405  16.453  1.1058 -1.1198 -0.8207
13883TIP3   OH263139   5.188   5.784   2.953 -0.0456  0.0331 -1.1118
13883TIP3    H163140   5.282   5.765   2.955  0.0557  0.3528 -2.4669
13883TIP3    H263141   5.170   5.824   3.039  0.7138 -1.5606 -0.1988
13884TIP3   OH263142   1.739   4.143   2.613 -0.2714  0.1696 -0.3026
13884TIP3    H163143   1.697   4.075   2.560 -1.0976 -0.6534  1.3501
13884TIP3    H263144   1.827   4.152   2.575 -1.1084  0.2066 -2.3090
13885TIP3   OH263145   1.094   1.474  13.632 -0.0583 -0.9054 -0.0892
13885TIP3    H163146   1.185   1.497  13.611  0.0648 -0.2792  1.1299
13885TIP3    H263147   1.056   1.555  13.665 -0.8805 -1.3379  0.0217
13886TIP3   OH263148   4.615   1.555  14.744  0.1871  0.0273 -0.0078
13886TIP3    H163149   4.689   1.615  14.746 -1.2300  1.8713 -0.9272
13886TIP3    H263150   4.612   1.524  14.653  1.2718 -1.9421  0.5955
13887TIP3   OH263151   5.465   2.459   4.383  0.0517  0.1810  0.0279
13887TIP3    H163152   5.381   2.417   4.401 -0.3552  0.4922 -1.1349
13887TIP3    H263153   5.522   2.431   4.455 -1.1890  0.3801  1.0837
13888TIP3   OH263154   1.889   2.269   0.984 -0.0175  0.2870 -0.2659
13888TIP3    H163155   1.849   2.322   0.915  0.0851  0.3162 -0.3034
13888TIP3    H263156   1.968   2.318   1.008  0.2182  0.0133 -0.4870
13889TIP3   OH263157   1.585   2.120  15.613 -0.5477  0.1613 -0.3255
13889TIP3    H163158   1.645   2.060  15.656 -0.6352 -0.0534 -0.5049
13889TIP3    H263159   1.563   2.184  15.681 -2.1691 -1.2558  0.5116
13890TIP3   OH263160   0.098   0.042   3.722 -0.8317  0.3580 -0.4331
13890TIP3    H163161   0.146   0.070   3.645 -0.9894  0.2677 -0.5635
13890TIP3    H263162   0.135   0.094   3.794  0.4110 -0.7040 -0.2858
13891TIP3   OH263163   1.731   1.341   2.057  0.2839 -0.1412  0.5398
13891TIP3    H163164   1.774   1.362   1.974  0.9977 -2.0191  0.4118
13891TIP3    H263165   1.640   1.323   2.034 -0.5667  3.5034  0.7625
13892TIP3   OH263166   3.420   2.456  15.907  0.2124 -0.3974 -0.3645
13892TIP3    H163167   3.369   2.417  15.837  0.5589  0.3370 -1.0339
13892TIP3    H263168   3.511   2.435  15.886  0.3217 -0.1594 -0.1523
13893TIP3   OH263169   2.553   1.606   1.146  0.0294 -0.2652 -0.1563
13893TIP3    H163170   2.618   1.670   1.177 -0.8618  0.5552  0.0309
13893TIP3    H263171   2.596   1.562   1.073  0.9448  0.0054  0.2055
13894TIP3   OH263172   0.870   3.560  16.987  0.4243 -0.5336 -0.2854
13894TIP3    H163173   0.921   3.495  17.036 -0.0129 -0.2784  0.5138
13894TIP3    H263174   0.866   3.525  16.898  0.3372 -1.5175  0.1021
13895TIP3   OH263175   2.983   0.519  14.202  0.2369  0.3018 -0.9939
13895TIP3    H163176   2.999   0.614  14.196  0.0899  0.4531  0.8423
13895TIP3    H263177   3.054   0.487  14.257  1.5073 -1.0054 -3.3187
13896TIP3   OH263178   2.800   3.798  12.980  0.4754  0.1191  0.1782
13896TIP3    H163179   2.750   3.730  13.024 -0.7169  2.1289  2.0470
13896TIP3    H263180   2.783   3.784  12.886  0.5672 -2.3346  0.4966
13897TIP3   OH263181   2.291   6.521   6.006 -0.2732  0.2791  0.2195
13897TIP3    H163182   2.246   6.453   6.057 -1.0144  0.1389 -0.6071
13897TIP3    H263183   2.272   6.602   6.053 -1.9681  0.3110 -0.4709
13898TIP3   OH263184   6.142   5.263  13.502  0.3045 -0.4805  0.3913
13898TIP3    H163185   6.132   5.197  13.434  0.5655 -0.0122 -0.1035
13898TIP3    H263186   6.230   5.299  13.488  0.7611 -1.0686  1.5880
13899TIP3   OH263187   4.459   0.202   2.126  0.1537 -0.3348 -0.4116
13899TIP3    H163188   4.499   0.208   2.213 -2.8769  0.0178  1.0381
13899TIP3    H263189   4.437   0.109   2.117 -1.9050  0.0478  0.3684
13900TIP3   OH263190   1.976   6.754  13.312  0.6865  0.7193 -0.0515
13900TIP3    H163191   2.046   6.800  13.267  0.0390  0.9609 -0.8276
13900TIP3    H263192   2.019   6.680  13.355  1.6330  1.6687  0.6699
13901TIP3   OH263193   0.239   6.044  17.115  0.2386  0.0815 -0.3011
13901TIP3    H163194   0.250   6.008  17.027 -0.2671 -1.8651  0.4072
13901TIP3    H263195   0.313   6.008  17.164 -0.5785 -0.4113  0.5614
13902TIP3   OH263196   4.383   3.744  15.224 -0.0356  0.2737  0.3067
13902TIP3    H163197   4.343   3.802  15.290 -0.0702  0.4167  0.1602
13902TIP3    H263198   4.452   3.798  15.185 -1.1526  0.7841 -0.9914
13903TIP3   OH263199   3.711   0.380  11.821  0.0297 -0.5087  0.1674
13903TIP3    H163200   3.742   0.353  11.735 -0.3689  0.6142 -0.3482
13903TIP3    H263201   3.679   0.470  11.807  0.4756 -0.1168  1.6082
13904TIP3   OH263202   1.436   2.149  13.826 -0.0335 -0.1037  0.1022
13904TIP3    H163203   1.446   2.117  13.916  2.0603  0.3341  0.0532
13904TIP3    H263204   1.464   2.240  13.830 -1.2339  0.3114 -0.7463
13905TIP3   OH263205   0.735   6.476  14.311  0.1000  0.0933 -0.0246
13905TIP3    H163206   0.656   6.530  14.313 -0.0991 -0.2014  3.1138
13905TIP3    H263207   0.794   6.516  14.375  2.5663  0.3524 -2.3927
13906TIP3   OH263208   3.837   2.587   2.508  0.8015 -0.2435  0.1889
13906TIP3    H163209   3.818   2.494   2.497 -2.6603  0.4550 -0.4078
13906TIP3    H263210   3.838   2.600   2.603 -1.9199 -0.3390  0.2624
13907TIP3   OH263211   6.522   3.369   0.036  0.7614  0.2370  0.0500
13907TIP3    H163212   6.517   3.386   0.130 -1.9245 -0.3335  0.0548
13907TIP3    H263213   6.600   3.315   0.025  1.4676  0.8537  1.8490
13908TIP3   OH263214   6.660   2.858   3.710  0.0277 -0.3707  0.1678
13908TIP3    H163215   6.585   2.913   3.733  0.3859  0.7482 -1.2886
13908TIP3    H263216   6.636   2.819   3.626  1.0711  0.0017 -0.3139
13909TIP3   OH263217   4.091   3.868   5.513 -0.0387  0.4801 -0.5173
13909TIP3    H163218   4.184   3.850   5.508  0.0015  0.8687 -1.3455
13909TIP3    H263219   4.050   3.801   5.458 -0.6307 -2.2989  3.1494
13910TIP3   OH263220   4.923   4.553  11.674  0.2650  0.1062  0.3746
13910TIP3    H163221   5.006   4.507  11.667 -0.2303 -1.0102  1.5455
13910TIP3    H263222   4.867   4.512  11.607  0.2654 -0.0302  0.4559
13911TIP3   OH263223   2.381   4.221   3.035 -0.1491  0.1033  0.1077
13911TIP3    H163224   2.393   4.163   3.110 -0.0278 -2.2035 -1.6554
13911TIP3    H263225   2.304   4.186   2.990  0.3591  0.8687 -1.3816
13912TIP3   OH263226   3.590   6.527  13.323 -0.2001  0.0234 -0.5759
13912TIP3    H163227   3.515   6.565  13.278 -1.1840 -0.7636  0.3669
13912TIP3    H263228   3.579   6.432  13.311  0.8402 -0.0850 -0.7362
13913TIP3   OH263229   3.657   2.009   0.551  0.2794  0.1364  0.0125
13913TIP3    H163230   3.677   2.020   0.459  0.6693  0.8924  0.1899
13913TIP3    H263231   3.724   1.948   0.583  1.3256  1.3901  0.2359
13914TIP3   OH263232   3.621   5.189  15.356 -0.1179  0.0084 -0.6349
13914TIP3    H163233   3.576   5.236  15.427 -0.6814 -2.4299  0.7014
13914TIP3    H263234   3.550   5.156  15.300  0.0304 -2.1681  0.3879
13915TIP3   OH263235   5.699   2.810  13.423 -0.1817 -0.3967 -0.1027
13915TIP3    H163236   5.710   2.830  13.516 -2.7713 -1.3434  0.4490
13915TIP3    H263237   5.715   2.716  13.416 -2.9705 -0.8874 -0.0842
13916TIP3   OH263238   0.448   5.020  12.206  0.0372 -0.2840 -0.5223
13916TIP3    H163239   0.422   5.053  12.120 -0.9549 -1.3176 -0.6330
13916TIP3    H263240   0.366   4.989  12.245  0.7397 -1.3972  0.0938
13917TIP3   OH263241   6.448   2.287   1.870 -0.9245  0.6120  0.1250
13917TIP3    H163242   6.434   2.289   1.964 -1.1134 -3.6798  0.2701
13917TIP3    H263243   6.361   2.270   1.832 -0.4786  0.0139 -0.6580
13918TIP3   OH263244   1.304   5.552   2.148 -0.4718  0.1297 -0.3187
13918TIP3    H163245   1.290   5.475   2.204  1.6927 -1.5570 -2.0199
13918TIP3    H263246   1.341   5.517   2.067 -0.8096  2.8330 -1.6998
13919TIP3   OH263247   4.253   3.736   0.630  0.3966  0.1107  0.1870
13919TIP3    H163248   4.306   3.798   0.680  2.5825 -1.5106 -0.0381
13919TIP3    H263249   4.256   3.655   0.681 -0.6919 -0.4078 -0.5542
13920TIP3   OH263250   0.510   3.777   6.175  0.0721  0.4277 -0.4021
13920TIP3    H163251   0.556   3.704   6.216 -1.4909 -0.5999 -0.4654
13920TIP3    H263252   0.464   3.820   6.247 -0.5150  0.2155 -0.6424
13921TIP3   OH263253   0.716   4.122   4.173  0.0045  0.1781 -0.1049
13921TIP3    H163254   0.803   4.138   4.210 -0.0776  1.5202 -0.4599
13921TIP3    H263255   0.655   4.157   4.239 -0.3111 -1.3728  0.4591
13922TIP3   OH263256   2.344   5.069  12.938  0.8447  0.2771 -0.3966
13922TIP3    H163257   2.358   5.129  12.864 -0.0827  0.1578 -0.6719
13922TIP3    H263258   2.395   5.108  13.009 -0.0303  1.6015 -0.4691
13923TIP3   OH263259   2.180   2.658  11.996  0.0371  0.1968 -0.4492
13923TIP3    H163260   2.227   2.575  12.001  0.1995  0.1978 -1.6152
13923TIP3    H263261   2.099   2.638  11.949  0.1962  0.7337 -0.9706
13924TIP3   OH263262   5.199   5.305  12.316  1.0056 -0.1987  0.0101
13924TIP3    H163263   5.123   5.359  12.340  0.0425 -1.9658  1.0582
13924TIP3    H263264   5.273   5.349  12.357  0.3283  0.6930  0.3044
13925TIP3   OH263265   2.391   6.097   1.156  0.1044  0.4248  0.3408
13925TIP3    H163266   2.471   6.137   1.191 -0.1510  0.4973  0.8473
13925TIP3    H263267   2.411   6.004   1.152  0.8727  0.6416 -1.2912
13926TIP3   OH263268   2.109   2.149   2.141 -0.1422  0.2283 -0.0944
13926TIP3    H163269   2.089   2.093   2.066  2.3760  0.7903 -1.2076
13926TIP3    H263270   2.023   2.169   2.179 -1.4273 -0.2811 -2.6479
13927TIP3   OH263271   6.216   4.509   0.389 -0.7963 -0.1804 -0.3060
13927TIP3    H163272   6.267   4.436   0.353  0.1941  0.8780 -1.0866
13927TIP3    H263273   6.147   4.523   0.325 -1.5832 -1.0610  0.3326
13928TIP3   OH263274   5.728   0.767  14.252  0.1169  0.1366  0.3299
13928TIP3    H163275   5.637   0.739  14.236 -0.3973  0.6452  2.2010
13928TIP3    H263276   5.722   0.824  14.328  2.0329  0.1876  0.4638
13929TIP3   OH263277   6.018   2.439   2.808  0.3763 -0.4193  0.0418
13929TIP3    H163278   6.041   2.532   2.804  0.6373 -0.5679 -3.2742
13929TIP3    H263279   5.923   2.439   2.825  0.2593  0.4848 -0.5572
13930TIP3   OH263280   3.070   0.102  13.959 -0.2238 -0.1350  0.1672
13930TIP3    H163281   3.041   0.049  13.885 -1.0784  0.3636  0.1307
13930TIP3    H263282   3.066   0.193  13.928  0.1278  0.0296  0.5861
13931TIP3   OH263283   6.386   0.776  15.510 -0.2775  0.3486 -0.1609
13931TIP3    H163284   6.343   0.719  15.446  0.3580  0.7191 -0.9208
13931TIP3    H263285   6.425   0.845  15.457 -1.2373  1.6167  0.7735
13932TIP3   OH263286   4.829   1.424   1.462 -0.7347  0.3826 -0.0827
13932TIP3    H163287   4.870   1.510   1.472  0.3829 -0.4134  2.6379
13932TIP3    H263288   4.741   1.434   1.498  0.1498 -0.1127  2.3606
13933TIP3   OH263289   5.490   2.712  17.116  0.1731  0.0853  0.0714
13933TIP3    H163290   5.516   2.620  17.107  0.5366  0.0631  1.2686
13933TIP3    H263291   5.395   2.709  17.130  0.2323 -0.1258  0.4326
13934TIP3   OH263292   3.949   0.363  14.376 -0.1178  0.4933 -0.0881
13934TIP3    H163293   4.010   0.289  14.375  0.9165  1.3454 -1.3500
13934TIP3    H263294   4.004   0.440  14.364 -1.4475  1.2668 -1.4867
13935TIP3   OH263295   4.904   2.484  14.948 -0.3015 -0.7494  0.0885
13935TIP3    H163296   4.968   2.464  15.016 -1.5189 -1.6991  0.9774
13935TIP3    H263297   4.836   2.534  14.993 -0.5841 -0.4449 -0.6642
13936TIP3   OH263298   5.843   6.654  13.053 -1.1334  0.1817  0.1782
13936TIP3    H163299   5.892   6.611  13.124 -1.2443 -1.0090 -0.4586
13936TIP3    H263300   5.761   6.682  13.095 -0.6671  0.6084  0.8224
13937TIP3   OH263301   0.269   0.765   0.225 -1.0159 -0.1835  0.1679
13937TIP3    H163302   0.242   0.766   0.133 -2.8077 -2.2841  0.6207
13937TIP3    H263303   0.363   0.745   0.223 -1.0604 -0.2700 -1.2000
13938TIP3   OH263304   0.054   2.766  12.483 -0.4586 -0.1841  0.5089
13938TIP3    H163305   0.014   2.737  12.401 -0.0397  2.1896 -0.5702
13938TIP3    H263306   0.148   2.761  12.467 -0.3761  0.7407  0.6603
13939TIP3   OH263307   5.195   1.767   0.198 -0.4732 -0.2879  0.3165
13939TIP3    H163308   5.266   1.817   0.238  0.3312 -1.1856  0.0276
13939TIP3    H263309   5.160   1.826   0.130 -0.1762  0.2494  0.6245
13940TIP3   OH263310   3.795   0.499  11.380  0.1464 -0.5169  0.0298
13940TIP3    H163311   3.819   0.571  11.323  2.0002 -1.0245  0.1583
13940TIP3    H263312   3.779   0.425  11.321  2.2859 -1.1044  0.1384
13941TIP3   OH263313   6.760   3.998   5.405 -0.4963 -0.1529 -0.0444
13941TIP3    H163314   6.706   4.059   5.455 -1.0210 -0.0153 -0.7637
13941TIP3    H263315   6.700   3.960   5.341  0.0753 -0.6165 -0.3078
13942TIP3   OH263316   0.628   3.976  13.935  0.1461 -0.3650 -0.0919
13942TIP3    H163317   0.688   4.022  13.995 -1.5990 -0.6882  1.9565
13942TIP3    H263318   0.541   3.991  13.971 -0.7704 -2.4495 -1.3111
13943TIP3   OH263319   1.657   2.543   0.605  0.2474 -0.1795 -0.2893
13943TIP3    H163320   1.729   2.493   0.645  0.8505  0.6693 -0.2944
13943TIP3    H263321   1.689   2.633   0.604 -0.7513  0.1719 -0.4743
13944TIP3   OH263322   3.688   2.894   5.785 -0.2232  0.1658 -0.6530
13944TIP3    H163323   3.662   2.850   5.866  0.2758  0.9974 -0.0305
13944TIP3    H263324   3.725   2.825   5.731 -0.6444 -0.4143 -0.2035
13945TIP3   OH263325   6.612   3.983   1.770 -0.1696 -0.0771 -0.2767
13945TIP3    H163326   6.612   3.993   1.675 -2.8447  2.1653 -0.1129
13945TIP3    H263327   6.520   3.987   1.794  0.5671  1.1626  2.5528
13946TIP3   OH263328   2.973   4.691   1.247 -0.1096 -0.5144  0.3019
13946TIP3    H163329   2.891   4.698   1.198 -0.1827  1.0284  0.6185
13946TIP3    H263330   2.948   4.711   1.338  0.6815  0.3245  0.3387
13947TIP3   OH263331   4.147   0.499   3.434 -0.1157  0.2678  0.4004
13947TIP3    H163332   4.158   0.434   3.503  2.0116 -1.2451 -1.3107
13947TIP3    H263333   4.210   0.568   3.457 -0.5777  0.5327  0.8645
13948TIP3   OH263334   0.845   5.403   4.105 -0.5364 -0.2918 -0.0820
13948TIP3    H163335   0.884   5.317   4.122 -1.6149 -1.0003 -1.1021
13948TIP3    H263336   0.912   5.466   4.131  0.7047 -1.4650 -0.4075
13949TIP3   OH263337   3.643   4.959   0.983 -0.0411 -0.0441 -0.4051
13949TIP3    H163338   3.551   4.933   0.981  0.1967 -0.9308 -0.0010
13949TIP3    H263339   3.689   4.890   0.937  0.3739  0.6416 -1.0260
13950TIP3   OH263340   1.308   5.601  14.943  0.0492  0.7632  0.0591
13950TIP3    H163341   1.280   5.510  14.930  1.3753  0.6114 -2.1630
13950TIP3    H263342   1.236   5.642  14.990 -0.9238 -1.2481  0.3831
13951TIP3   OH263343   5.086   3.028   3.046  0.6366  0.3584 -0.0378
13951TIP3    H163344   5.143   3.063   2.977 -1.1691  0.7433 -1.3812
13951TIP3    H263345   5.004   3.010   3.001 -0.7494  1.1293  2.1563
13952TIP3   OH263346   5.102   2.201   3.569  0.0381  0.3538  0.3758
13952TIP3    H163347   5.055   2.209   3.486 -0.3601  0.4068  0.6080
13952TIP3    H263348   5.112   2.106   3.582  1.3130  0.3556 -0.4133
13953TIP3   OH263349   6.728   2.079   4.311 -0.7815  0.6846  0.2051
13953TIP3    H163350   6.633   2.077   4.319 -0.7532 -0.1803  0.3239
13953TIP3    H263351   6.748   2.027   4.234 -0.4122  1.0582  0.0419
13954TIP3   OH263352   1.053   0.046  17.116 -0.7935 -0.1214  0.5306
13954TIP3    H163353   1.047   0.138  17.141 -0.7706 -0.1560  0.6603
13954TIP3    H263354   1.130   0.013  17.162 -0.2233  0.0405 -0.2911
13955TIP3   OH263355   1.301   0.614   3.121  0.2258 -0.6742 -0.2195
13955TIP3    H163356   1.303   0.535   3.174  1.4017 -0.2241  0.4134
13955TIP3    H263357   1.336   0.683   3.178  1.8707 -0.2579 -1.6821
13956TIP3   OH263358   0.727   0.762   3.435 -0.3065 -0.8260 -0.3141
13956TIP3    H163359   0.792   0.818   3.394 -0.6660 -0.0947  0.1031
13956TIP3    H263360   0.723   0.685   3.379  1.4067 -1.1882  0.0239
13957TIP3   OH263361   2.230   6.296  16.331 -0.2158  0.9965  0.1871
13957TIP3    H163362   2.239   6.383  16.291 -1.5534  1.7071  1.3578
13957TIP3    H263363   2.137   6.275  16.321 -0.0733  0.0986  0.7251
13958TIP3   OH263364   3.031   4.397   1.473  0.1605 -0.2484 -0.2651
13958TIP3    H163365   3.123   4.418   1.457  0.4937 -0.3885  1.3768
13958TIP3    H263366   2.994   4.477   1.510 -0.0016 -0.6612  0.4854
13959TIP3   OH263367   2.684   1.335  11.665 -0.2391  0.0336  0.3955
13959TIP3    H163368   2.770   1.294  11.657  0.6114  2.0292 -1.1438
13959TIP3    H263369   2.679   1.364  11.756  0.0924 -1.3709  0.8758
13960TIP3   OH263370   4.491   4.084   3.758 -0.4973  0.3351  0.2998
13960TIP3    H163371   4.479   4.101   3.665 -0.2809  0.5657  0.3141
13960TIP3    H263372   4.497   3.988   3.764 -0.4860  0.3213  0.0743
13961TIP3   OH263373   0.619   4.804  12.131 -0.2377 -0.7317 -0.1673
13961TIP3    H163374   0.553   4.859  12.174 -1.9799 -1.4207 -1.8481
13961TIP3    H263375   0.654   4.860  12.062  0.0326 -0.7821 -0.0702
13962TIP3   OH263376   1.188   5.137  16.343 -0.5057 -0.1169 -0.3089
13962TIP3    H163377   1.186   5.041  16.335  0.5584 -0.1369 -0.3560
13962TIP3    H263378   1.157   5.154  16.432 -1.8680 -0.4380 -0.7083
13963TIP3   OH263379   1.267   5.122  11.326  0.0764  0.1846  0.1917
13963TIP3    H163380   1.281   5.203  11.375  0.8377  0.8439 -1.1129
13963TIP3    H263381   1.250   5.150  11.236 -1.0902 -1.0405  0.0112
13964TIP3   OH263382   2.520   5.092   0.518  0.1921  0.3956  0.2192
13964TIP3    H163383   2.554   5.059   0.602  0.0052 -0.9483 -0.2226
13964TIP3    H263384   2.597   5.093   0.461 -0.1480 -1.0014 -0.2826
13965TIP3   OH263385   3.464   4.449  13.042  0.9488  0.1202  0.2660
13965TIP3    H163386   3.484   4.508  13.115  0.9471  2.6695 -1.7215
13965TIP3    H263387   3.373   4.469  13.019  1.6685  1.0579 -1.9180
13966TIP3   OH263388   2.432   3.164  13.570  0.0197  0.6824  0.2595
13966TIP3    H163389   2.343   3.198  13.560 -0.0196  0.6108  0.3639
13966TIP3    H263390   2.451   3.174  13.664  0.0699  0.5714  0.2613
13967TIP3   OH263391   5.022   6.051   5.882  0.7889 -0.1742  0.4657
13967TIP3    H163392   4.942   6.052   5.935 -0.9997  0.8670 -2.1065
13967TIP3    H263393   5.064   6.135   5.902  0.3113  0.0569  0.5272
13968TIP3   OH263394   0.596   6.623   5.832  0.3191  0.2704 -0.1277
13968TIP3    H163395   0.533   6.598   5.765 -0.3251  0.2357  0.4876
13968TIP3    H263396   0.646   6.543   5.848 -0.8021 -0.2481  0.8139
13969TIP3   OH263397   1.938   5.564  13.744  0.4114 -0.3182 -0.4513
13969TIP3    H163398   1.978   5.643  13.778  0.7957 -1.6815  2.4003
13969TIP3    H263399   1.845   5.573  13.763  0.4284 -0.4538 -0.2987
13970TIP3   OH263400   1.662   2.199  14.751 -0.3545 -0.4283  0.0706
13970TIP3    H163401   1.609   2.213  14.829  1.8496  0.5786  1.4287
13970TIP3    H263402   1.604   2.223  14.678 -2.1006 -0.4009  1.4215
13971TIP3   OH263403   4.262   0.161   4.696 -0.4691 -0.3068 -0.2714
13971TIP3    H163404   4.248   0.112   4.615  1.7972 -1.3100 -0.0774
13971TIP3    H263405   4.271   0.093   4.763  0.3306  0.4517  0.3908
13972TIP3   OH263406   1.283   5.165  10.593  0.1743  0.7077  0.0940
13972TIP3    H163407   1.208   5.203  10.546 -0.1357  0.4746  0.4006
13972TIP3    H263408   1.349   5.235  10.592  0.5012  0.4048 -1.4500
13973TIP3   OH263409   4.535   0.513   3.248 -0.5095  0.0790 -0.5075
13973TIP3    H163410   4.530   0.428   3.293 -2.8226 -1.4241 -3.3806
13973TIP3    H263411   4.628   0.527   3.233  0.0257 -1.1350  1.5319
13974TIP3   OH263412   2.291   1.127  13.907 -0.3019  0.3051  0.0589
13974TIP3    H163413   2.245   1.194  13.957  0.8787  2.4632 -1.6321
13974TIP3    H263414   2.351   1.087  13.970  0.9334  2.7437  0.5097
13975TIP3   OH263415   3.934   3.331  14.764  0.2714 -0.0433 -0.3780
13975TIP3    H163416   3.858   3.388  14.777  0.3156 -0.3176  1.2403
13975TIP3    H263417   3.989   3.348  14.841  2.5469  1.2169 -2.2388
13976TIP3   OH263418   2.034   2.233  16.528  0.4808 -0.5399 -0.1925
13976TIP3    H163419   2.051   2.325  16.506 -1.3638 -0.2392 -0.3895
13976TIP3    H263420   2.020   2.233  16.622  0.9988 -0.7161 -0.1123
13977TIP3   OH263421   0.705   6.579   0.045 -0.0674  0.6790  0.3330
13977TIP3    H163422   0.769   6.508   0.046  0.6463  1.2864 -0.5676
13977TIP3    H263423   0.757   6.659   0.057 -0.7119  1.1436  0.1093
13978TIP3   OH263424   5.985   3.430  12.617 -0.0638 -0.1953 -0.6022
13978TIP3    H163425   5.962   3.349  12.572 -1.3673 -0.2229  0.0996
13978TIP3    H263426   6.081   3.430  12.620 -0.0786 -2.0099 -0.0166
13979TIP3   OH263427   4.023   3.403   6.106 -0.0424  0.0381  0.4401
13979TIP3    H163428   3.929   3.404   6.087  0.1271  1.2653 -0.4931
13979TIP3    H263429   4.058   3.331   6.053 -0.3481  0.1134  0.1338
13980TIP3   OH263430   3.735   0.061  16.555 -0.0848  0.2760  0.3044
13980TIP3    H163431   3.691   0.145  16.540  1.4086  0.8957 -0.6508
13980TIP3    H263432   3.702   0.004  16.486 -0.5304  0.2874  0.5028
13981TIP3   OH263433   4.417   6.646   0.991  0.1189  0.0562 -0.1018
13981TIP3    H163434   4.395   6.563   0.948  1.6172  0.1979 -1.1971
13981TIP3    H263435   4.361   6.711   0.949 -0.8211 -0.3372  0.5274
13982TIP3   OH263436   6.551   1.118   4.692  0.3727 -0.9235  0.4078
13982TIP3    H163437   6.457   1.137   4.694  0.1442 -1.9842  0.1444
13982TIP3    H263438   6.587   1.165   4.767  0.1404  2.1042 -1.2884
13983TIP3   OH263439   3.173   2.345   2.338  0.0695 -0.2189 -0.6255
13983TIP3    H163440   3.223   2.287   2.280  3.3647  1.1414  0.7486
13983TIP3    H263441   3.160   2.293   2.417 -0.1055 -0.3478 -0.7391
13984TIP3   OH263442   5.277   6.443  14.945  0.1513  0.4030  0.4169
13984TIP3    H163443   5.230   6.367  14.978  0.6430 -0.3856 -0.6546
13984TIP3    H263444   5.323   6.478  15.022  0.4456 -0.7704  0.7883
13985TIP3   OH263445   4.898   1.690   1.413 -0.2313 -0.5779 -0.2273
13985TIP3    H163446   4.947   1.750   1.470 -0.2816 -1.1480  0.4396
13985TIP3    H263447   4.815   1.734   1.396  0.5277  0.4283 -1.4176
13986TIP3   OH263448   3.302   1.180   6.355 -0.0790  0.6518  0.1270
13986TIP3    H163449   3.241   1.228   6.410 -1.5024 -2.5546  1.4082
13986TIP3    H263450   3.257   1.172   6.271 -0.1461  0.8752  0.1401
13987TIP3   OH263451   2.157   3.720   5.864  0.1700 -0.0500  0.1437
13987TIP3    H163452   2.163   3.793   5.926 -0.4005 -0.4660  0.6949
13987TIP3    H263453   2.206   3.649   5.904 -0.3058 -0.3625  0.1797
13988TIP3   OH263454   6.526   5.643  15.731 -0.0974 -0.0599  0.0931
13988TIP3    H163455   6.586   5.570  15.719  0.5528  0.8009 -1.9940
13988TIP3    H263456   6.460   5.631  15.663 -0.3556  0.9243  0.1653
13989TIP3   OH263457   6.452   2.703  17.177  0.1898 -0.2327  0.4204
13989TIP3    H163458   6.426   2.735  17.091  0.7815  0.9785  0.6788
13989TIP3    H263459   6.472   2.783  17.227  2.8017 -1.0327  0.7203
13990TIP3   OH263460   5.148   0.437   2.721 -0.4190  0.1456  0.4067
13990TIP3    H163461   5.209   0.507   2.744 -0.9166  0.5640  0.4730
13990TIP3    H263462   5.063   0.469   2.752 -0.7604 -0.1789 -0.1860
13991TIP3   OH263463   0.446   5.286  12.724 -0.0046 -0.3457 -0.2272
13991TIP3    H163464   0.383   5.233  12.772  0.1092 -0.9916 -0.7832
13991TIP3    H263465   0.476   5.229  12.654  1.3667 -0.1339  0.1668
13992TIP3   OH263466   4.988   3.486   4.836 -0.1093  0.6119  0.1888
13992TIP3    H163467   4.995   3.511   4.745 -1.4814  0.9552  0.1780
13992TIP3    H263468   4.982   3.390   4.834 -3.2024  0.7673 -0.2983
13993TIP3   OH263469   5.758   4.105  14.322 -0.2636 -0.6689  0.1547
13993TIP3    H163470   5.694   4.086  14.391  0.4303 -0.7271  0.7924
13993TIP3    H263471   5.728   4.187  14.284 -2.6832 -2.4306 -1.8957
13994TIP3   OH263472   1.667   5.073   1.823 -0.0261 -0.2500 -0.2555
13994TIP3    H163473   1.637   5.098   1.736  2.2131 -1.3405 -1.3811
13994TIP3    H263474   1.666   5.155   1.873 -1.0894  0.4230 -1.3642
13995TIP3   OH263475   0.536   6.442  14.883  0.0269 -0.1107 -0.4319
13995TIP3    H163476   0.505   6.446  14.793 -0.1587  0.8356 -0.3356
13995TIP3    H263477   0.510   6.355  14.914 -0.5577 -0.1621 -1.0597
13996TIP3   OH263478   0.164   1.981   5.409  0.1726  0.4610 -0.0097
13996TIP3    H163479   0.113   1.958   5.331 -1.6068  0.1142  1.2260
13996TIP3    H263480   0.113   2.051   5.451  0.1881 -0.5910  1.7831
13997TIP3   OH263481   2.381   4.372   0.508 -0.1183 -0.0278  0.0247
13997TIP3    H163482   2.367   4.466   0.519  0.6325  0.3237 -1.9330
13997TIP3    H263483   2.316   4.331   0.566  0.5067  1.6803  1.9734
13998TIP3   OH263484   3.545   2.406  12.429 -0.0901  0.2953 -0.1000
13998TIP3    H163485   3.544   2.310  12.434  0.5897  0.1979 -1.3914
13998TIP3    H263486   3.505   2.435  12.510  0.1615 -1.0851  0.5351
13999TIP3   OH263487   0.193   0.796   5.250 -0.0461 -0.4714 -0.0128
13999TIP3    H163488   0.274   0.843   5.231  1.1977 -1.8606  1.6482
13999TIP3    H263489   0.144   0.798   5.168  1.2630  1.1690 -0.7900
14000TIP3   OH263490   5.442   5.244  14.514 -0.2328 -0.1964 -0.1015
14000TIP3    H163491   5.435   5.338  14.531 -0.2611 -0.1041 -0.6233
14000TIP3    H263492   5.517   5.216  14.566 -0.6959 -0.0318  0.6709
14001TIP3   OH263493   2.326   3.402  14.902  0.2372 -0.0414  0.2693
14001TIP3    H163494   2.417   3.400  14.871  1.0835  1.1658  2.5238
14001TIP3    H263495   2.309   3.495  14.920  0.0863 -0.7058  4.0344
14002TIP3   OH263496   5.980   5.414   2.067  0.5064 -0.4201  0.5754
14002TIP3    H163497   6.034   5.364   2.127  1.3357  1.8839  1.8220
14002TIP3    H263498   6.000   5.506   2.087 -1.9603  0.4481 -0.7005
14003TIP3   OH263499   0.794   5.972  15.681  0.5719 -0.4149 -0.5787
14003TIP3    H163500   0.793   6.054  15.632 -0.1726  0.2998  0.6137
14003TIP3    H263501   0.769   5.906  15.616  1.5089  0.2470 -1.6301
14004TIP3   OH263502   5.177   6.443  15.350  0.4522 -0.2599  0.2794
14004TIP3    H163503   5.173   6.411  15.440 -3.1503 -1.3587 -0.2128
14004TIP3    H263504   5.094   6.488  15.336  0.0308 -1.9054 -3.0811
14005TIP3   OH263505   0.995   1.151  12.088 -0.0281 -0.6501 -0.2172
14005TIP3    H163506   0.983   1.058  12.103 -1.5069 -0.5329 -0.6848
14005TIP3    H263507   1.090   1.161  12.073  0.0735 -2.1183 -0.5709
14006TIP3   OH263508   3.641   0.219   3.066  0.5726  0.5494 -0.0811
14006TIP3    H163509   3.639   0.314   3.056 -0.6375  0.6343  0.8785
14006TIP3    H263510   3.676   0.187   2.983 -1.0905  1.7041 -1.2493
14007TIP3   OH263511   6.338   2.316  16.322 -0.5953 -0.4263  0.2037
14007TIP3    H163512   6.378   2.229  16.331 -2.0686 -1.2919 -1.3480
14007TIP3    H263513   6.287   2.310  16.241 -1.4499  1.6070  0.5802
14008TIP3   OH263514   2.264   0.737  14.586  0.0248  0.1386  0.2945
14008TIP3    H163515   2.350   0.754  14.547  0.6590 -0.0467  1.5505
14008TIP3    H263516   2.272   0.649  14.622 -0.3974  0.4569  1.1828
14009TIP3   OH263517   6.205   3.557  14.341 -0.0299  0.2128 -0.2552
14009TIP3    H163518   6.115   3.564  14.310 -0.2287 -0.3288  0.1876
14009TIP3    H263519   6.199   3.573  14.436  0.4732  1.1763 -0.3870
14010TIP3   OH263520   2.871   2.708  12.944  0.1773  0.6830  0.3813
14010TIP3    H163521   2.926   2.664  12.880 -1.0457  0.5419 -0.5822
14010TIP3    H263522   2.787   2.663  12.938 -0.1308  1.0737  1.6501
14011TIP3   OH263523   2.606   3.032   2.776 -0.6440 -0.0402  0.0214
14011TIP3    H163524   2.603   3.116   2.730 -0.0089 -0.5749 -1.0384
14011TIP3    H263525   2.639   3.053   2.863 -0.2341  0.7801 -0.3280
14012TIP3   OH263526   1.488   6.761  10.447  0.2666 -0.1004  0.0373
14012TIP3    H163527   1.564   6.787  10.499  0.6511  0.2622 -0.6872
14012TIP3    H263528   1.459   6.843  10.407  0.4444 -0.4969 -0.9195
14013TIP3   OH263529   5.148   0.462  13.520 -0.1944  0.0780 -0.0888
14013TIP3    H163530   5.145   0.439  13.427  0.2092 -0.9739  0.1551
14013TIP3    H263531   5.068   0.425  13.557 -0.5413  0.8189 -0.0852
14014TIP3   OH263532   1.860   1.054  14.074 -0.3272 -0.4012 -0.2881
14014TIP3    H163533   1.866   0.970  14.120 -0.2470 -0.7216 -0.8710
14014TIP3    H263534   1.940   1.101  14.099 -0.5446 -0.3531  0.3196
14015TIP3   OH263535   2.887   3.747  13.285  0.7083  0.0059  0.1130
14015TIP3    H163536   2.823   3.700  13.232  1.4244 -0.4003 -0.4053
14015TIP3    H263537   2.860   3.732  13.375 -0.1935  0.2292 -0.1169
14016TIP3   OH263538   3.486   4.773  15.314 -0.3879 -0.0126  0.4102
14016TIP3    H163539   3.500   4.711  15.243  1.4971  0.4202  0.3614
14016TIP3    H263540   3.410   4.739  15.361 -1.6324 -0.3308 -1.7573
14017TIP3   OH263541   2.883   2.712  12.474 -0.0816  0.0714  0.7209
14017TIP3    H163542   2.909   2.692  12.384  0.3990  0.0605  0.8601
14017TIP3    H263543   2.958   2.758  12.511 -0.9194  1.5461  0.6066
14018TIP3   OH263544   2.023   1.324  12.254  0.5374  0.0777  0.1201
14018TIP3    H163545   2.030   1.387  12.183  1.3686  1.4107  1.3532
14018TIP3    H263546   1.963   1.365  12.316 -2.5547 -2.3490 -1.1021
14019TIP3   OH263547   1.034   1.150  16.827 -0.0371  0.0669  0.1711
14019TIP3    H163548   1.111   1.135  16.881 -0.4723 -0.5059  0.6426
14019TIP3    H263549   1.038   1.243  16.804 -0.2377  0.4799  1.7911
14020TIP3   OH263550   3.052   6.294  16.005  0.1507 -0.0639 -0.3014
14020TIP3    H163551   3.022   6.372  16.052  0.2012  0.1658 -0.6440
14020TIP3    H263552   3.012   6.221  16.052  0.7456  0.1222  0.5027
14021TIP3   OH263553   5.838   5.348  11.383 -0.5023  1.2284 -0.7988
14021TIP3    H163554   5.891   5.422  11.414  0.0381  0.0648  1.1022
14021TIP3    H263555   5.767   5.389  11.334  0.2210  2.9770 -0.4447
14022TIP3   OH263556   1.161   0.357  11.125  0.0204  0.0358  0.2278
14022TIP3    H163557   1.159   0.261  11.115  1.4011  0.0536 -0.3180
14022TIP3    H263558   1.251   0.377  11.150 -0.2065  1.2188  0.1262
14023TIP3   OH263559   2.068   5.637   3.218 -0.2009 -0.0769  0.1239
14023TIP3    H163560   2.043   5.672   3.303 -0.4912  0.4626 -0.1766
14023TIP3    H263561   2.016   5.688   3.155 -0.7111 -1.1260 -0.3174
14024TIP3   OH263562   5.558   4.132   2.877 -0.4480  0.8252 -0.4241
14024TIP3    H163563   5.629   4.184   2.841  0.4718  0.0616  0.2382
14024TIP3    H263564   5.512   4.097   2.801  0.3551  0.7114 -0.8603
14025TIP3   OH263565   2.088   5.365  14.766 -0.1063 -0.3614  0.1351
14025TIP3    H163566   2.069   5.295  14.704  1.0507  0.6593 -1.3830
14025TIP3    H263567   2.020   5.431  14.750  0.7025  0.2845 -0.6402
14026TIP3   OH263568   0.561   4.334  16.958  0.3657 -0.0341  0.4363
14026TIP3    H163569   0.469   4.356  16.950  0.4661  0.0253 -0.7017
14026TIP3    H263570   0.606   4.396  16.900  1.3712  1.5592  2.8319
14027TIP3   OH263571   2.579   3.690   4.297  0.0084 -0.1101  0.1216
14027TIP3    H163572   2.587   3.785   4.295 -1.2868  0.0717  2.5245
14027TIP3    H263573   2.669   3.658   4.302  0.3508  1.0676  1.7541
14028TIP3   OH263574   5.006   4.815   2.352  0.1650 -0.2410  0.1354
14028TIP3    H163575   5.042   4.765   2.425  0.6096  0.9977  0.7809
14028TIP3    H263576   4.911   4.815   2.367 -0.1186 -3.1234 -1.3210
14029TIP3   OH263577   5.144   5.793   4.051 -0.3858 -0.2776  0.3480
14029TIP3    H163578   5.079   5.755   4.111  0.7493  0.6217  2.1763
14029TIP3    H263579   5.227   5.785   4.097  0.2899  1.8010 -0.4538
14030TIP3   OH263580   2.497   4.544  16.008 -0.5591  0.3667 -0.0563
14030TIP3    H163581   2.481   4.452  15.987 -0.2735  0.2318  0.3242
14030TIP3    H263582   2.534   4.581  15.927 -0.9041  0.2069 -0.2886
14031TIP3   OH263583   2.559   5.373   1.768 -0.1856 -0.3549  0.2365
14031TIP3    H163584   2.468   5.404   1.762 -1.2518 -3.3722 -0.2241
14031TIP3    H263585   2.567   5.310   1.697  2.0992 -0.6505  0.7215
14032TIP3   OH263586   0.475   6.488   0.170 -0.0333  0.5987  0.5317
14032TIP3    H163587   0.483   6.406   0.120  0.1732 -0.2710  1.9488
14032TIP3    H263588   0.523   6.553   0.119 -0.8608  0.0101 -1.0039
14033TIP3   OH263589   1.359   3.061  14.171  0.2743 -0.4931  0.4948
14033TIP3    H163590   1.393   2.975  14.195  1.0381 -0.8348 -1.6636
14033TIP3    H263591   1.265   3.056  14.186  0.1803 -2.0460 -0.5310
14034TIP3   OH263592   4.103   2.588  13.461  0.1177  0.3265 -0.2774
14034TIP3    H163593   4.055   2.542  13.530  2.0763 -2.0058 -0.4330
14034TIP3    H263594   4.045   2.660  13.437 -2.0442 -0.7311  1.5307
14035TIP3   OH263595   5.115   6.750  10.873  0.3096 -0.7941  0.0516
14035TIP3    H163596   5.137   6.762  10.965  0.9258 -0.5742 -0.1240
14035TIP3    H263597   5.046   6.683  10.873 -0.6958  0.2195  0.7719
14036TIP3   OH263598   4.634   2.378  13.145  0.2265 -0.3364 -0.2363
14036TIP3    H163599   4.647   2.452  13.085 -2.9152  1.2941  0.9512
14036TIP3    H263600   4.701   2.388  13.212  0.6179  0.7295 -0.7768
14037TIP3   OH263601   5.109   1.108   2.773  0.0149 -0.1353 -0.4118
14037TIP3    H163602   5.153   1.130   2.690  0.3344 -2.4609 -0.8898
14037TIP3    H263603   5.179   1.073   2.828 -0.6593 -0.9648 -0.0691
14038TIP3   OH263604   3.147   3.770  16.509  0.1093  0.5706 -0.0613
14038TIP3    H163605   3.241   3.788  16.499  0.0007  0.4378 -1.4202
14038TIP3    H263606   3.114   3.843  16.562  0.9104  0.7999  0.1299
14039TIP3   OH263607   4.290   3.876   1.882 -0.2165  0.7789  0.0585
14039TIP3    H163608   4.346   3.840   1.951  0.3109  0.2902 -0.6182
14039TIP3    H263609   4.210   3.901   1.927 -0.0840 -0.0335  0.7636
14040TIP3   OH263610   1.424   5.285   3.921 -0.1199  0.1549  0.1951
14040TIP3    H163611   1.515   5.286   3.893 -0.4871  0.6370 -1.0345
14040TIP3    H263612   1.382   5.354   3.869 -0.6920  1.5949  2.4526
14041TIP3   OH263613   4.365   0.280  17.191 -0.4160  0.0967  0.0078
14041TIP3    H163614   4.341   0.369  17.218 -0.5090  0.0269  0.1594
14041TIP3    H263615   4.456   0.271  17.220  0.2078  0.7963 -1.6872
14042TIP3   OH263616   2.243   5.895   5.452 -0.0437  0.3862  0.0936
14042TIP3    H163617   2.328   5.853   5.445  0.1660  0.7436  0.4774
14042TIP3    H263618   2.199   5.875   5.369  0.6902  0.8205 -0.4005
14043TIP3   OH263619   5.574   6.032  15.198 -0.5347  0.3369  0.3263
14043TIP3    H163620   5.509   5.962  15.202 -0.0039 -0.1978 -0.4553
14043TIP3    H263621   5.564   6.069  15.111  0.2018  0.2578  0.2090
14044TIP3   OH263622   6.181   1.467   6.294  0.3022 -0.0290  0.0200
14044TIP3    H163623   6.189   1.408   6.219  0.7876  0.3065 -0.1882
14044TIP3    H263624   6.267   1.506   6.304  0.3643 -0.4015  1.0280
14045TIP3   OH263625   5.257   1.294   1.026  0.3532  0.1526  0.6547
14045TIP3    H163626   5.219   1.381   1.038  1.2069  0.5843  0.2175
14045TIP3    H263627   5.182   1.239   1.003  0.3143  1.4445 -2.4740
14046TIP3   OH263628   1.702   5.811   1.119 -0.0267 -0.5749  0.1517
14046TIP3    H163629   1.708   5.868   1.196 -0.8390 -1.3948  0.8270
14046TIP3    H263630   1.648   5.861   1.057  2.3970  1.0216 -0.7547
14047TIP3   OH263631   5.922   5.169   0.777  0.2142 -0.4944 -0.2645
14047TIP3    H163632   5.999   5.125   0.811 -0.8042 -0.9105  1.5454
14047TIP3    H263633   5.936   5.262   0.797 -0.1098 -0.6656  0.7689
14048TIP3   OH263634   4.300   5.090   3.637  0.0494 -0.0221  0.2279
14048TIP3    H163635   4.286   5.071   3.730 -0.5920 -1.7280 -0.1947
14048TIP3    H263636   4.336   5.009   3.601 -1.2969  0.0379 -1.3332
14049TIP3   OH263637   0.904   5.246   3.217  0.1173 -0.1663 -0.2973
14049TIP3    H163638   0.834   5.198   3.261 -0.7282  0.7704 -0.6005
14049TIP3    H263639   0.873   5.336   3.213  1.9933  0.5606  0.8842
14050TIP3   OH263640   5.258   4.279  15.814  0.2802 -0.2442 -0.1812
14050TIP3    H163641   5.267   4.349  15.750  0.1854 -0.3947 -0.3590
14050TIP3    H263642   5.336   4.287  15.869 -0.0012  0.3409  0.1345
14051TIP3   OH263643   0.266   2.170   3.166  0.2161 -0.3777  0.2378
14051TIP3    H163644   0.250   2.214   3.082 -3.7190  1.3621  1.7664
14051TIP3    H263645   0.341   2.217   3.204  0.9361 -0.0732 -1.5100
14052TIP3   OH263646   5.422   0.896   0.443  0.4337 -0.6614 -0.0569
14052TIP3    H163647   5.491   0.959   0.422  0.8020 -0.8213  0.6579
14052TIP3    H263648   5.348   0.951   0.471 -0.1535 -0.4372 -2.0066
14053TIP3   OH263649   4.318   3.648  10.956  0.0442 -0.6415 -0.6452
14053TIP3    H163650   4.403   3.669  10.995 -1.3778  0.3435  2.0988
14053TIP3    H263651   4.307   3.711  10.885  1.6038 -0.7901 -1.0261
14054TIP3   OH263652   5.954   1.284   0.240  0.1559 -0.1805  0.2055
14054TIP3    H163653   5.982   1.193   0.228 -0.0036 -0.2691  0.4849
14054TIP3    H263654   5.990   1.331   0.165  1.3720 -0.2203  0.7560
14055TIP3   OH263655   2.389   4.901  11.654  0.8703  0.1001 -0.1830
14055TIP3    H163656   2.388   4.935  11.564 -1.7930  1.2754  0.2607
14055TIP3    H263657   2.435   4.968  11.705 -0.8999  1.2199 -0.0220
14056TIP3   OH263658   5.626   5.140   5.904  0.0875  0.0341 -0.4918
14056TIP3    H163659   5.596   5.103   5.987  1.3022  1.3854  0.5728
14056TIP3    H263660   5.557   5.202   5.880 -0.7407 -1.0616 -1.0181
14057TIP3   OH263661   2.165   2.427  13.028 -0.5053  0.1341  0.3086
14057TIP3    H163662   2.128   2.341  13.007  1.0100 -0.7364  1.1108
14057TIP3    H263663   2.089   2.482  13.049 -1.5122 -0.8905 -0.6246
14058TIP3   OH263664   1.121   1.277   5.068  0.6077 -0.1799  0.0807
14058TIP3    H163665   1.118   1.182   5.062  1.8212 -0.1617 -1.0284
14058TIP3    H263666   1.063   1.299   5.141 -0.0726 -1.7307  0.0089
14059TIP3   OH263667   6.077   2.515  12.632  0.5266  0.0947  0.4081
14059TIP3    H163668   6.113   2.597  12.667 -0.8812  0.6835  0.5323
14059TIP3    H263669   6.047   2.539  12.543  0.3906 -0.3543  0.3342
14060TIP3   OH263670   6.121   3.574  15.501 -0.3000 -0.0723 -0.0207
14060TIP3    H163671   6.136   3.531  15.585  1.3369  0.2748 -0.1194
14060TIP3    H263672   6.130   3.504  15.436 -1.7050 -0.3678  0.1024
14061TIP3   OH263673   1.555   5.842   1.876 -0.4749 -0.2450  0.6147
14061TIP3    H163674   1.466   5.865   1.851 -0.2756  0.1376  0.2376
14061TIP3    H263675   1.570   5.889   1.959 -0.5154 -0.0468  0.5111
14062TIP3   OH263676   5.124   4.116  14.664 -0.0830  0.3061  0.3486
14062TIP3    H163677   5.168   4.036  14.694  0.1793  0.3455  0.0772
14062TIP3    H263678   5.041   4.118  14.711 -1.2518 -1.4817 -1.5836
14063TIP3   OH263679   5.053   3.008  10.944  0.5816  0.0728 -0.0532
14063TIP3    H163680   5.101   3.077  10.898 -0.3192  0.0341 -1.0743
14063TIP3    H263681   5.030   2.945  10.876  0.3087 -0.6084  0.6634
14064TIP3   OH263682   2.744   5.436   2.687 -0.3043  0.0895 -0.3340
14064TIP3    H163683   2.704   5.499   2.627 -1.0994 -0.6458 -0.5809
14064TIP3    H263684   2.748   5.483   2.771  1.2196  1.2697 -1.0453
14065TIP3   OH263685   0.109   0.584  12.443 -0.5425  0.2227  0.2042
14065TIP3    H163686   0.098   0.500  12.399 -0.9075 -0.5400  1.7389
14065TIP3    H263687   0.141   0.643  12.374 -2.8158 -0.4957 -1.5235
14066TIP3   OH263688   3.359   4.395  15.725 -0.0670  0.8671  0.1366
14066TIP3    H163689   3.344   4.387  15.819 -0.8550 -0.0978 -0.0561
14066TIP3    H263690   3.301   4.465  15.696 -1.9370 -0.7247 -0.0799
14067TIP3   OH263691   3.276   0.864   5.952  0.2195 -0.1943 -0.1648
14067TIP3    H163692   3.342   0.835   5.890 -0.9890 -0.0382 -1.5475
14067TIP3    H263693   3.318   0.856   6.038  1.8246 -0.6154 -0.9796
14068TIP3   OH263694   1.567   5.831  14.269  0.0171 -0.1502 -0.3112
14068TIP3    H163695   1.540   5.859  14.356  1.4920 -0.1714  0.1642
14068TIP3    H263696   1.626   5.900  14.238  1.1254 -1.1440 -0.4460
14069TIP3   OH263697   4.445   0.702  13.905 -0.2735 -0.2903 -0.1949
14069TIP3    H163698   4.384   0.631  13.925  0.7934 -0.5718  2.2232
14069TIP3    H263699   4.495   0.670  13.830 -0.6684 -1.5555  0.0674
14070TIP3   OH263700   3.844   5.115   5.484 -0.5099 -0.0159 -0.1313
14070TIP3    H163701   3.919   5.167   5.514 -0.4910 -0.2371  0.2091
14070TIP3    H263702   3.883   5.034   5.450 -0.6338 -0.3799  0.5818
14071TIP3   OH263703   4.479   6.371   6.467  0.4968 -0.1386  0.2826
14071TIP3    H163704   4.470   6.286   6.511 -1.2329  0.2184  0.6719
14071TIP3    H263705   4.545   6.418   6.517  0.3570 -0.6917  0.9834
14072TIP3   OH263706   1.962   1.835  13.307  0.7300 -0.5949  0.7466
14072TIP3    H163707   1.995   1.752  13.343  0.6226 -1.1542 -0.3982
14072TIP3    H263708   1.884   1.854  13.358  1.7569 -0.2527  2.2221
14073TIP3   OH263709   5.237   6.743   4.582 -0.0760  0.3576  0.4450
14073TIP3    H163710   5.313   6.757   4.526  1.2038 -2.0117  1.5219
14073TIP3    H263711   5.253   6.797   4.659  2.1966 -2.7089  2.1783
14074TIP3   OH263712   5.834   1.790  11.395  0.0080 -0.1547 -0.3771
14074TIP3    H163713   5.879   1.837  11.325  3.1388 -0.5397  1.2627
14074TIP3    H263714   5.848   1.844  11.473  0.3884 -1.8903  0.7813
14075TIP3   OH263715   1.103   6.486   0.194 -0.5508  0.8892 -0.4250
14075TIP3    H163716   1.027   6.452   0.147 -0.3356 -0.2024  0.0139
14075TIP3    H263717   1.178   6.442   0.155 -0.1725  1.7052 -0.6205
14076TIP3   OH263718   0.128   4.418   6.737  0.0108 -0.7164  0.1137
14076TIP3    H163719   0.185   4.437   6.662 -1.6417 -1.0346 -1.2660
14076TIP3    H263720   0.062   4.487   6.735 -0.9501 -1.6061  0.3167
14077TIP3   OH263721   6.417   2.788  15.831  0.1214  0.3415  0.3099
14077TIP3    H163722   6.445   2.713  15.884  1.2919  0.3738 -0.2407
14077TIP3    H263723   6.339   2.757  15.784  1.0746 -0.8139 -0.5353
14078TIP3   OH263724   3.459   3.054  11.637  0.0604 -0.3253  0.2785
14078TIP3    H163725   3.463   3.150  11.647  0.1795 -0.0689 -1.8845
14078TIP3    H263726   3.521   3.021  11.702 -1.7568  0.9214  2.7377
14079TIP3   OH263727   1.633   2.017   1.443 -0.2023  0.2779  0.5614
14079TIP3    H163728   1.557   2.041   1.390 -0.6946  0.7184  1.4552
14079TIP3    H263729   1.624   1.923   1.457 -0.5212  0.3106  0.5746
14080TIP3   OH263730   2.639   5.284   3.175  0.2369  0.8469 -0.3123
14080TIP3    H163731   2.648   5.328   3.259  0.2103  0.7092 -0.2378
14080TIP3    H263732   2.718   5.308   3.127  0.8096 -0.0134  0.1832
14081TIP3   OH263733   3.026   1.528  15.908  0.6428  0.3035 -0.5450
14081TIP3    H163734   3.036   1.602  15.847  0.1660 -2.6269 -4.3634
14081TIP3    H263735   3.108   1.481  15.901  0.4518 -0.2415  0.8839
14082TIP3   OH263736   0.524   2.461   2.259 -0.1457 -0.1788 -0.0724
14082TIP3    H163737   0.530   2.425   2.170  0.6893  0.8142 -0.4316
14082TIP3    H263738   0.615   2.475   2.285 -0.4249  0.5707  0.5087
14083TIP3   OH263739   0.196   3.103  13.305 -0.6677  0.2557  0.1226
14083TIP3    H163740   0.126   3.093  13.241 -0.3996 -0.6537 -0.0415
14083TIP3    H263741   0.261   3.037  13.281  0.2482  1.0777  0.2727
14084TIP3   OH263742   6.096   5.414   3.684 -0.1616 -0.0578  0.2676
14084TIP3    H163743   6.120   5.506   3.696  0.3849 -0.4621  2.4034
14084TIP3    H263744   6.022   5.417   3.623  0.7919  1.6866 -0.8539
14085TIP3   OH263745   6.602   4.513   0.384 -0.6383  0.3376 -0.0330
14085TIP3    H163746   6.627   4.526   0.475 -2.6019 -0.0025  0.5778
14085TIP3    H263747   6.506   4.510   0.386 -0.6263 -4.0097 -1.4759
14086TIP3   OH263748   0.250   2.859  15.785  0.3866 -0.3551 -0.0021
14086TIP3    H163749   0.281   2.938  15.742 -1.1031 -0.9770 -2.3085
14086TIP3    H263750   0.212   2.806  15.715  0.1770 -2.5461  1.6908
14087TIP3   OH263751   1.561   4.398   5.106 -0.3327 -0.2435 -0.2521
14087TIP3    H163752   1.652   4.416   5.130 -0.0416 -0.8809 -0.8720
14087TIP3    H263753   1.512   4.412   5.187 -0.0242  2.5164 -0.5146
14088TIP3   OH263754   0.040   1.142   3.489 -0.2021  0.1416 -0.2468
14088TIP3    H163755   0.021   1.128   3.582 -1.6099  1.3897 -0.3295
14088TIP3    H263756  -0.030   1.096   3.443 -1.7474  2.7564 -0.6007
14089TIP3   OH263757   1.649   2.682   5.364  0.0363 -0.3482 -0.5605
14089TIP3    H163758   1.720   2.737   5.330  0.1967 -0.1459  0.0832
14089TIP3    H263759   1.588   2.745   5.404 -0.2278 -0.5647 -0.6247
14090TIP3   OH263760   4.824   2.762   3.551  0.4401 -0.1447 -0.7226
14090TIP3    H163761   4.751   2.786   3.495 -0.0955 -1.3566 -0.5486
14090TIP3    H263762   4.849   2.674   3.522  1.9745  0.3394 -0.9316
14091TIP3   OH263763   2.068   4.787   5.182  0.5070  0.7562 -0.4338
14091TIP3    H163764   1.988   4.790   5.129  0.0034 -0.1637  0.2682
14091TIP3    H263765   2.086   4.694   5.193  1.8031  0.9547 -0.7633
14092TIP3   OH263766   1.205   3.560   5.571  0.7373 -0.3913 -0.0226
14092TIP3    H163767   1.192   3.467   5.590 -0.0279 -0.3870 -0.5250
14092TIP3    H263768   1.117   3.598   5.574  1.3055  0.7985  2.7030
14093TIP3   OH263769   0.752   2.738  16.436 -0.0707 -0.4230 -0.1564
14093TIP3    H163770   0.818   2.797  16.471  1.3566 -1.5797 -0.8451
14093TIP3    H263771   0.708   2.789  16.368  0.2345  0.2828  0.1658
14094TIP3   OH263772   5.873   0.778   3.035  0.6836  0.6859 -0.3491
14094TIP3    H163773   5.949   0.759   3.090  0.2590 -0.1554 -0.0464
14094TIP3    H263774   5.825   0.845   3.084 -0.0283 -0.5167  0.6319
14095TIP3   OH263775   4.621   6.674   0.451  0.1195  0.4385 -0.0089
14095TIP3    H163776   4.698   6.657   0.505 -0.4931 -0.7795  0.5072
14095TIP3    H263777   4.620   6.602   0.388  0.3043  1.3369 -1.0613
14096TIP3   OH263778   0.562   2.443   5.592  0.2739 -0.2080 -0.4632
14096TIP3    H163779   0.473   2.457   5.562  0.1728  0.1714  0.0122
14096TIP3    H263780   0.615   2.501   5.539 -0.0100  1.1395  0.7048
14097TIP3   OH263781   5.838   1.829  12.822 -0.2657  0.7818 -0.0335
14097TIP3    H163782   5.833   1.738  12.851 -0.4148  0.3916 -1.2437
14097TIP3    H263783   5.931   1.844  12.806 -0.2653  0.7579 -0.0503
14098TIP3   OH263784   3.847   1.704   2.344  0.0593  0.7357 -0.0221
14098TIP3    H163785   3.913   1.680   2.408  0.8409  1.8703 -0.3835
14098TIP3    H263786   3.776   1.742   2.395  0.5843  1.4309  0.2094
14099TIP3   OH263787   6.457   0.072  16.786  0.4338  0.0166 -0.0112
14099TIP3    H163788   6.488  -0.004  16.737  1.2394  0.3686 -0.0643
14099TIP3    H263789   6.393   0.113  16.729  1.0274  0.1634 -0.5751
14100TIP3   OH263790   5.379   6.311   3.356 -0.0607 -0.3528  0.4100
14100TIP3    H163791   5.434   6.284   3.283  1.1751 -1.2009  1.6238
14100TIP3    H263792   5.379   6.236   3.415 -2.9516 -0.5614  0.2171
14101TIP3   OH263793   2.804   3.106   1.425 -0.1440 -0.1671  0.4475
14101TIP3    H163794   2.764   3.034   1.376 -0.6080  0.6211 -0.3413
14101TIP3    H263795   2.747   3.181   1.410 -0.0713  0.1938  1.8779
14102TIP3   OH263796   0.195   6.700   3.270 -0.2142  0.1904 -0.4829
14102TIP3    H163797   0.232   6.614   3.251  0.1875  0.6892 -2.0210
14102TIP3    H263798   0.103   6.683   3.290 -0.2090 -0.5686 -1.0978
14103TIP3   OH263799   1.960   0.541   3.000 -0.5374  0.1908 -0.8245
14103TIP3    H163800   1.990   0.517   3.088 -1.5768 -1.6380 -0.9370
14103TIP3    H263801   1.960   0.637   2.999  2.4499  0.2504  0.1287
14104TIP3   OH263802   2.542   2.918  11.203 -0.2354  0.1391  0.4458
14104TIP3    H163803   2.562   2.895  11.294  0.3968 -2.1976 -0.2563
14104TIP3    H263804   2.625   2.908  11.156 -0.2678  2.5622 -0.1740
14105TIP3   OH263805   5.466   0.302  13.192  0.1301 -0.2704 -0.0365
14105TIP3    H163806   5.472   0.361  13.267 -2.2176  1.5997 -1.2470
14105TIP3    H263807   5.405   0.233  13.220 -0.5004  0.2550 -0.1062
14106TIP3   OH263808   6.451   5.168  13.662  0.0424  0.3054  0.6765
14106TIP3    H163809   6.504   5.113  13.604 -0.4663 -0.7337  1.1869
14106TIP3    H263810   6.374   5.191  13.610  0.0973  0.2710  0.5796
14107TIP3   OH263811   6.557   6.356  15.309 -0.4992  0.0523 -0.0815
14107TIP3    H163812   6.627   6.296  15.283  1.6599  1.7254  1.6338
14107TIP3    H263813   6.534   6.328  15.398 -1.3847  0.0814 -0.2958
14108TIP3   OH263814   6.659   3.354   5.268  0.3296 -0.2467 -0.4209
14108TIP3    H163815   6.606   3.422   5.311 -1.2031 -0.3703 -2.0861
14108TIP3    H263816   6.727   3.334   5.332 -0.9431  0.7494  1.3000
14109TIP3   OH263817   1.217   5.987   4.349  0.0215  0.1930 -0.4122
14109TIP3    H163818   1.172   6.050   4.406  0.6369  1.5136 -1.3616
14109TIP3    H263819   1.307   6.019   4.346  0.1837 -0.3745 -1.4214
14110TIP3   OH263820   5.964   3.431  16.727 -0.1605 -0.2401 -0.0252
14110TIP3    H163821   6.021   3.485  16.782 -0.2905  0.3118 -0.4202
14110TIP3    H263822   5.950   3.351  16.777  0.2302 -0.0017  0.4697
14111TIP3   OH263823   4.237   4.907  11.473 -0.4345  0.4710 -0.6920
14111TIP3    H163824   4.266   4.998  11.469 -1.0548  0.7207  0.2246
14111TIP3    H263825   4.317   4.856  11.486 -0.2341  1.0043  0.1677
14112TIP3   OH263826   3.345   5.786  12.991 -0.6175 -0.5064 -0.4392
14112TIP3    H163827   3.312   5.868  13.029 -2.7861 -1.2034 -0.7191
14112TIP3    H263828   3.348   5.804  12.897 -1.7238 -0.9382 -0.5650
14113TIP3   OH263829   1.373   1.217   2.865  0.0362 -0.0548 -0.1742
14113TIP3    H163830   1.416   1.156   2.924 -0.7723 -0.1544  0.3119
14113TIP3    H263831   1.390   1.304   2.903  0.1887 -0.0634 -0.2238
14114TIP3   OH263832   3.918   3.989  13.870  0.1995  0.4965 -0.4426
14114TIP3    H163833   3.868   3.909  13.850  0.0654  1.0674 -2.5191
14114TIP3    H263834   3.989   3.959  13.926 -1.4660 -0.6168  1.1253
14115TIP3   OH263835   1.590   1.173   3.696 -0.2368 -0.1587 -0.3192
14115TIP3    H163836   1.546   1.132   3.622  3.5568 -3.3524 -0.9711
14115TIP3    H263837   1.629   1.100   3.744  3.5622  2.3557  0.6442
14116TIP3   OH263838   1.046   5.192   2.751 -0.3764 -0.2001 -0.3820
14116TIP3    H163839   1.029   5.272   2.701 -1.0361 -0.3360 -0.3717
14116TIP3    H263840   1.142   5.190   2.761 -0.3686  0.6483 -0.2721
14117TIP3   OH263841   0.729   5.477  10.617  0.1153  0.5486  0.5998
14117TIP3    H163842   0.788   5.409  10.648  0.3367  1.2789  1.8000
14117TIP3    H263843   0.787   5.543  10.580  0.0072  0.9103  1.0751
14118TIP3   OH263844   4.776   4.287   6.127 -0.4978 -0.7227  0.5173
14118TIP3    H163845   4.846   4.263   6.188  2.1855  0.8664 -1.8376
14118TIP3    H263846   4.734   4.363   6.168  2.8988  1.9101 -0.6699
14119TIP3   OH263847   1.455   0.123  13.421  0.4828  0.0102  0.1622
14119TIP3    H163848   1.420   0.184  13.486  2.1679  0.2870  0.8225
14119TIP3    H263849   1.482   0.178  13.348 -0.1358 -0.1738 -0.2110
14120TIP3   OH263850   2.310   3.726   4.278 -0.0114 -0.7230 -0.0874
14120TIP3    H163851   2.397   3.692   4.257 -0.3561 -2.5396  1.2826
14120TIP3    H263852   2.265   3.653   4.321 -1.8550  0.5211  0.1799
14121TIP3   OH263853   1.287   3.332   2.451 -0.1832 -0.8230  0.4525
14121TIP3    H163854   1.284   3.339   2.355 -0.2101 -2.7956  0.2916
14121TIP3    H263855   1.379   3.343   2.473 -0.0314 -1.4134  0.1125
14122TIP3   OH263856   2.826   6.557  12.569  1.0638 -0.5490  0.3040
14122TIP3    H163857   2.882   6.496  12.618 -0.2444 -0.9792  1.3149
14122TIP3    H263858   2.740   6.548  12.611  0.6642  1.3948 -0.0854
14123TIP3   OH263859   5.899   4.766   3.947  0.4450  0.5144 -1.2147
14123TIP3    H163860   5.876   4.845   3.899 -1.1002  2.0025  1.8603
14123TIP3    H263861   5.979   4.789   3.995  0.7945 -0.2454 -1.4271
14124TIP3   OH263862   6.290   0.132   4.717  0.0719 -0.2353 -0.1123
14124TIP3    H163863   6.247   0.213   4.687 -0.5943 -0.9575 -1.1216
14124TIP3    H263864   6.281   0.071   4.644  2.7463 -0.4508 -0.2978
14125TIP3   OH263865   6.758   5.280   0.758  0.1587 -0.0871 -0.0150
14125TIP3    H163866   6.670   5.262   0.725 -0.2410  1.4301  0.2154
14125TIP3    H263867   6.810   5.205   0.730 -1.1106 -0.7829 -0.5221
14126TIP3   OH263868   6.594   4.697  15.470 -0.9173  0.2914  0.0788
14126TIP3    H163869   6.606   4.712  15.564 -0.8469 -2.2735  0.5161
14126TIP3    H263870   6.610   4.603  15.459  0.6658  0.8721 -2.7656
14127TIP3   OH263871   0.764   1.214  13.011  0.3452 -0.1961 -0.0393
14127TIP3    H163872   0.759   1.162  12.931 -0.8767 -0.7854  0.4114
14127TIP3    H263873   0.825   1.165  13.067  1.4383  0.3776 -0.7093
14128TIP3   OH263874   2.603   5.159   2.649 -0.2954 -0.2654 -0.2658
14128TIP3    H163875   2.666   5.119   2.589  2.6634  0.1536  2.4258
14128TIP3    H263876   2.639   5.246   2.667 -1.0714 -0.3876  2.0979
14129TIP3   OH263877   5.329   6.718  15.527 -0.2923 -0.5239  0.1906
14129TIP3    H163878   5.407   6.773  15.516  0.5541 -1.3616  1.8917
14129TIP3    H263879   5.272   6.768  15.585 -0.5647 -0.4011 -0.1776
14130TIP3   OH263880   5.915   3.776   0.528  0.0820  0.8585 -0.6763
14130TIP3    H163881   5.998   3.821   0.515  0.3420  0.4990 -0.2881
14130TIP3    H263882   5.914   3.706   0.463  0.1317  0.7947 -0.6083
14131TIP3   OH263883   2.104   0.192  12.669  0.4658  0.0307 -0.5959
14131TIP3    H163884   2.143   0.105  12.662 -1.0413 -0.8078  1.0484
14131TIP3    H263885   2.162   0.239  12.729  0.3974 -0.3722 -0.2072
14132TIP3   OH263886   0.209   5.690  14.335 -0.1021  0.3081 -0.2309
14132TIP3    H163887   0.213   5.601  14.301 -1.6299  1.0607 -2.5114
14132TIP3    H263888   0.198   5.680  14.429 -1.0808 -1.9252 -0.5573
14133TIP3   OH263889   4.610   3.984  16.453  0.2612  0.5546 -0.1811
14133TIP3    H163890   4.639   3.936  16.531 -0.2842 -0.4207 -0.5681
14133TIP3    H263891   4.529   4.027  16.480 -1.2662 -1.7857 -0.9023
14134TIP3   OH263892   2.474   2.105   5.112  0.7328  1.2226  0.1522
14134TIP3    H163893   2.563   2.131   5.090  0.5363  1.4576 -0.3475
14134TIP3    H263894   2.467   2.014   5.081  1.2654  0.7143  1.4844
14135TIP3   OH263895   4.371   2.694   1.389  0.7385  0.7464 -0.2540
14135TIP3    H163896   4.319   2.635   1.335  0.9561 -0.4373  0.8001
14135TIP3    H263897   4.410   2.638   1.456  2.2784  1.8175 -0.2055
14136TIP3   OH263898   1.247   6.317   1.448 -0.7112  0.0150  0.5609
14136TIP3    H163899   1.252   6.312   1.543 -0.1811  1.2720  0.6118
14136TIP3    H263900   1.154   6.309   1.428 -0.7243 -1.3830  1.0997
14137TIP3   OH263901   3.787   2.725   3.344 -0.6362 -0.3550  0.1684
14137TIP3    H163902   3.784   2.814   3.311  1.1744 -0.8712 -1.4812
14137TIP3    H263903   3.741   2.729   3.428 -1.1048  1.9786 -0.1659
14138TIP3   OH263904   2.788   3.280  16.364  0.2379 -0.4408  0.2037
14138TIP3    H163905   2.741   3.286  16.448  0.0228 -0.6307  0.0969
14138TIP3    H263906   2.768   3.363  16.320 -1.9239 -1.5046 -0.8476
14139TIP3   OH263907   4.546   5.772   1.984 -0.2778  0.4199 -0.1738
14139TIP3    H163908   4.509   5.858   1.962  0.1710  0.9246  0.9738
14139TIP3    H263909   4.571   5.780   2.076 -1.1598 -1.2808  0.2291
14140TIP3   OH263910   5.909   3.006  12.025 -0.1384 -0.1202  0.1872
14140TIP3    H163911   5.922   3.029  11.933 -0.4432 -1.0041 -0.0846
14140TIP3    H263912   5.919   3.088  12.072 -0.4240  0.4193 -0.6849
14141TIP3   OH263913   1.886   6.696  10.881  0.7746 -0.5671 -0.4980
14141TIP3    H163914   1.837   6.624  10.841  1.3241 -1.0802 -0.2501
14141TIP3    H263915   1.819   6.749  10.924  0.4289 -1.2731 -0.1535
14142TIP3   OH263916   5.662   1.781  16.117  0.0635  0.1096  0.5339
14142TIP3    H163917   5.679   1.731  16.037  0.9438  0.7444  0.3242
14142TIP3    H263918   5.590   1.839  16.093 -2.1805 -2.2506  1.2881
14143TIP3   OH263919   3.744   4.977   1.780  0.1585 -0.2064 -0.2976
14143TIP3    H163920   3.764   4.898   1.730 -1.3710 -0.4203 -0.5902
14143TIP3    H263921   3.813   5.039   1.756  0.9228 -1.1925 -0.6594
14144TIP3   OH263922   6.361   3.375  12.220 -0.2548  0.2700  0.3028
14144TIP3    H163923   6.416   3.323  12.162 -0.6615  0.8643 -0.6357
14144TIP3    H263924   6.415   3.451  12.242  0.8761 -1.2185  2.8295
14145TIP3   OH263925   4.600   4.949   2.678  0.7144  0.3245  0.0562
14145TIP3    H163926   4.682   4.916   2.642  0.4742 -0.7246  0.4654
14145TIP3    H263927   4.537   4.878   2.665  0.2120  0.5883  1.0035
14146TIP3   OH263928   3.073   6.485   5.201 -0.1038  0.0855 -0.1715
14146TIP3    H163929   3.096   6.392   5.197  1.9320  0.6200 -1.0293
14146TIP3    H263930   3.151   6.527   5.237 -1.3389  1.3681  1.0576
14147TIP3   OH263931   5.029   0.852  12.300 -0.6718  0.3832 -0.3846
14147TIP3    H163932   4.970   0.817  12.367  0.3481 -0.3436  0.1712
14147TIP3    H263933   4.972   0.896  12.237 -1.7956 -0.3529  0.1018
14148TIP3   OH263934   3.194   0.489   3.328  0.5056 -0.8476  0.0324
14148TIP3    H163935   3.130   0.418   3.328 -0.0350 -0.3747 -0.3455
14148TIP3    H263936   3.238   0.483   3.412  1.0568 -2.1537 -0.3404
14149TIP3   OH263937   3.318   4.408   4.336 -0.0579 -0.3418 -0.0191
14149TIP3    H163938   3.348   4.324   4.300  2.2153 -1.1943  3.5906
14149TIP3    H263939   3.387   4.470   4.312 -0.4062 -0.1079 -0.4022
14150TIP3   OH263940   4.085   0.706  12.508  0.1425 -0.3794 -0.3178
14150TIP3    H163941   4.144   0.752  12.568  0.1498  1.1099 -1.4301
14150TIP3    H263942   4.113   0.614  12.511  0.6347 -0.1783  1.3559
14151TIP3   OH263943   0.434   1.929   5.817  0.5785  0.4116  0.4811
14151TIP3    H163944   0.357   1.975   5.851  0.4714  0.4086  0.2434
14151TIP3    H263945   0.411   1.906   5.727  1.0861  0.9432  0.2061
14152TIP3   OH263946   2.858   3.550   5.493  0.1396 -0.6406 -0.2836
14152TIP3    H163947   2.822   3.588   5.573  0.5071 -1.0640  0.0897
14152TIP3    H263948   2.848   3.618   5.427  0.9091  0.1581  0.4024
14153TIP3   OH263949   4.402   2.571  16.913  0.6972 -0.1488 -0.3808
14153TIP3    H163950   4.388   2.573  17.008 -0.4177  0.5011 -0.5558
14153TIP3    H263951   4.383   2.660  16.884 -1.0613 -0.8684 -1.4886
14154TIP3   OH263952   3.908   4.511  14.769 -0.2760 -0.4953 -0.5679
14154TIP3    H163953   3.889   4.429  14.814  0.0751 -0.4693 -0.3720
14154TIP3    H263954   3.830   4.565  14.783  0.6472  0.2853  1.7747
14155TIP3   OH263955   2.686   0.843   3.185  0.0403  0.2065  0.6820
14155TIP3    H163956   2.622   0.824   3.116  0.3143  1.2337  0.1318
14155TIP3    H263957   2.647   0.915   3.234  0.9467  1.1223  0.0909
14156TIP3   OH263958   0.285   3.926  10.985 -0.5394 -0.7760 -0.1268
14156TIP3    H163959   0.357   3.909  10.924  0.0825  0.0012  0.3791
14156TIP3    H263960   0.323   3.912  11.071 -0.3019  2.0355  0.2570
14157TIP3   OH263961   1.586   4.124  11.026 -0.4024 -0.2296 -0.0345
14157TIP3    H163962   1.598   4.216  11.005 -0.1788 -0.2173  0.1337
14157TIP3    H263963   1.563   4.082  10.943 -2.3479  0.2829  0.2237
14158TIP3   OH263964   6.743   2.218  12.693 -0.2565  0.1640  0.0205
14158TIP3    H163965   6.750   2.310  12.720  0.4070 -0.4212  1.9244
14158TIP3    H263966   6.650   2.205  12.675 -0.0815  1.7205 -2.2058
14159TIP3   OH263967   6.774   2.244   5.057  0.0411  0.2197 -0.2315
14159TIP3    H163968   6.812   2.284   4.979  0.2423  0.5617  0.0388
14159TIP3    H263969   6.785   2.310   5.126 -0.0078 -0.1309  0.1171
14160TIP3   OH263970   5.736   6.416   4.265 -0.2356 -0.1855 -0.6534
14160TIP3    H163971   5.818   6.400   4.218  0.5597 -0.0641  0.6673
14160TIP3    H263972   5.667   6.396   4.201  0.8163 -0.5369 -1.6916
14161TIP3   OH263973   1.548   0.097  15.145 -0.0775 -1.1056  0.6067
14161TIP3    H163974   1.622   0.148  15.110  0.2384 -0.7697  1.7571
14161TIP3    H263975   1.472   0.153  15.133 -0.5318 -2.2373 -2.4551
14162TIP3   OH263976   3.779   6.427   1.112  0.0870  0.4607  0.2628
14162TIP3    H163977   3.768   6.386   1.198 -1.7189 -1.3518 -0.7750
14162TIP3    H263978   3.718   6.501   1.113  0.8016  1.0465  0.8945
14163TIP3   OH263979   2.723   2.696  12.085  0.2999 -0.6378  0.2938
14163TIP3    H163980   2.638   2.720  12.048  1.3623  2.1963 -0.4842
14163TIP3    H263981   2.774   2.665  12.010 -0.3046 -3.1782  0.9090
14164TIP3   OH263982   5.675   6.674  12.076  0.0393  0.2528 -0.6120
14164TIP3    H163983   5.738   6.742  12.100 -0.4011  0.2046  0.7096
14164TIP3    H263984   5.725   6.593  12.078  0.3671  0.4348 -1.3671
14165TIP3   OH263985   5.050   4.971  13.184  0.3108  0.0322  0.1218
14165TIP3    H163986   5.035   4.958  13.277 -1.0567  0.4863 -0.0217
14165TIP3    H263987   5.013   4.892  13.142 -0.8644  0.7298 -0.1713
14166TIP3   OH263988   1.451   4.309   3.168 -0.3513  0.0594  0.3992
14166TIP3    H163989   1.532   4.317   3.117  0.3106  0.3389  1.4674
14166TIP3    H263990   1.381   4.310   3.103  0.6271 -3.0926 -0.7648
14167TIP3   OH263991   2.237   0.858  14.931  0.0752  0.4484  0.0612
14167TIP3    H163992   2.310   0.918  14.941 -0.7297  1.3926  0.3253
14167TIP3    H263993   2.192   0.860  15.015  0.2355 -0.7963  0.1944
14168TIP3   OH263994   6.182   4.095  16.557  0.0830 -0.3870  0.1502
14168TIP3    H163995   6.237   4.052  16.491 -0.1177  0.9246 -0.9039
14168TIP3    H263996   6.172   4.030  16.627  0.6849 -1.6394 -0.9084
14169TIP3   OH263997   1.716   5.905   3.253  0.3137  0.3289  0.0345
14169TIP3    H163998   1.675   5.980   3.297 -0.4371 -0.0434 -0.0242
14169TIP3    H263999   1.809   5.929   3.247  0.1560  1.0621  0.4142
14170TIP3   OH264000   3.724   4.554  13.728 -0.4638  0.2816 -0.0256
14170TIP3    H164001   3.723   4.465  13.693 -0.9534  0.6930 -1.0561
14170TIP3    H264002   3.805   4.558  13.779  0.3222 -0.2875 -1.1978
14171TIP3   OH264003   4.227   0.225   2.282 -0.4521  0.2370  0.6062
14171TIP3    H164004   4.254   0.289   2.217  1.2907 -1.3949 -0.3065
14171TIP3    H264005   4.257   0.261   2.366  2.6381 -0.4680 -0.1443
14172TIP3   OH264006   6.811   4.345  13.384 -0.1306 -0.0684  0.2732
14172TIP3    H164007   6.897   4.331  13.343 -0.5098 -1.9177  0.0496
14172TIP3    H264008   6.786   4.433  13.357  1.5618  0.3769  0.0827
14173TIP3   OH264009   4.290   5.030   0.659  0.3271  0.1058  0.2014
14173TIP3    H164010   4.225   4.995   0.719  1.4309 -1.9924  0.2134
14173TIP3    H264011   4.353   5.076   0.715 -1.5106  2.8892  0.1209
14174TIP3   OH264012   6.085   4.993   1.852  0.3220 -0.0370 -0.1511
14174TIP3    H164013   6.024   5.015   1.781 -1.1221  0.4603  1.2145
14174TIP3    H264014   6.118   4.906   1.829  0.6134  0.5250 -1.9260
14175TIP3   OH264015   5.759   2.501   1.531 -1.0114 -0.2139 -0.0388
14175TIP3    H164016   5.680   2.542   1.495  0.3474  2.3636 -0.2358
14175TIP3    H264017   5.831   2.550   1.491  0.6737 -1.8503  0.9152
14176TIP3   OH264018   2.369   4.771  12.715 -0.0577 -0.3597  0.1574
14176TIP3    H164019   2.402   4.797  12.629 -0.5229 -0.2562  0.0083
14176TIP3    H264020   2.447   4.743  12.763  0.2675  0.0239 -0.1375
14177TIP3   OH264021   6.079   5.326  12.831 -0.1447  0.0439 -0.0994
14177TIP3    H164022   5.989   5.355  12.815 -0.2433 -0.1767  0.0335
14177TIP3    H264023   6.071   5.231  12.842 -0.0958  0.1944  1.3003
14178TIP3   OH264024   5.448   2.457   0.570 -0.0846 -0.5696  0.2560
14178TIP3    H164025   5.508   2.520   0.529 -0.4253 -1.3399 -1.4452
14178TIP3    H264026   5.504   2.383   0.594 -0.0921 -0.6185  0.1203
14179TIP3   OH264027   1.202   2.759   2.253  0.3207 -0.0982 -0.0994
14179TIP3    H164028   1.196   2.782   2.346  0.6150 -0.7339  0.0770
14179TIP3    H264029   1.256   2.681   2.251  2.4243  1.3345 -1.0330
14180TIP3   OH264030   5.482   5.111  13.235 -0.3075  0.2439 -1.1735
14180TIP3    H164031   5.490   5.177  13.304  0.7316 -0.2124 -0.8442
14180TIP3    H264032   5.548   5.045  13.257 -2.3261 -1.6763 -0.6768
14181TIP3   OH264033   6.279   4.190  12.872  0.3165  0.1286 -0.0543
14181TIP3    H164034   6.190   4.155  12.864  0.0101  0.6794  0.7829
14181TIP3    H264035   6.271   4.257  12.940  1.4435 -0.0406  0.2384
14182TIP3   OH264036   0.853   3.878  13.411  0.1614 -0.8294 -0.0841
14182TIP3    H164037   0.883   3.886  13.501 -1.6159 -0.1935  0.4650
14182TIP3    H264038   0.852   3.783  13.394  0.9804 -0.9230  0.3849
14183TIP3   OH264039   3.334   5.333   2.257  0.7332  0.0008  0.4595
14183TIP3    H164040   3.397   5.261   2.264  2.4004  1.3265 -0.4591
14183TIP3    H264041   3.382   5.410   2.288  0.3715  1.4784 -2.4571
14184TIP3   OH264042   4.991   5.656   0.091  0.0338 -0.2498 -0.2909
14184TIP3    H164043   4.921   5.705   0.048 -0.8169  0.1588  1.5186
14184TIP3    H264044   5.070   5.708   0.073 -0.7842  1.5739  1.2112
14185TIP3   OH264045   2.238   5.751  10.913  0.1647 -0.6959  0.0054
14185TIP3    H164046   2.297   5.732  10.986 -0.8315  0.8009  1.2165
14185TIP3    H264047   2.271   5.832  10.874  0.4176 -1.2356 -0.9339
14186TIP3   OH264048   1.011   6.634  12.903 -0.2601 -0.5614  0.5404
14186TIP3    H164049   0.953   6.558  12.914 -0.1556 -0.6566  0.4380
14186TIP3    H264050   0.996   6.687  12.981 -0.1781 -0.7955  0.7184
14187TIP3   OH264051   3.965   2.826  11.278 -0.1671 -0.1629 -0.1212
14187TIP3    H164052   3.985   2.795  11.367 -1.4912  0.7546  0.5276
14187TIP3    H264053   3.988   2.753  11.221  0.9887 -0.6591  0.9539
14188TIP3   OH264054   1.042   5.743   1.902 -0.0117 -0.2138 -0.3875
14188TIP3    H164055   1.107   5.685   1.942  1.0200  1.7405  0.8247
14188TIP3    H264056   0.985   5.684   1.852  0.8169 -2.3030  1.0645
14189TIP3   OH264057   3.851   5.049   5.901  0.6190  0.0821  0.3423
14189TIP3    H164058   3.906   5.126   5.886 -1.1128  1.6779  1.9680
14189TIP3    H264059   3.773   5.064   5.849  0.4605 -0.8043  0.3124
14190TIP3   OH264060   6.314   1.267   2.796 -0.2604  0.1374  0.0887
14190TIP3    H164061   6.241   1.206   2.781  0.3385 -0.5870  0.0654
14190TIP3    H264062   6.391   1.219   2.764  0.4487  0.2490  1.6263
14191TIP3   OH264063   2.179   6.536   1.198  0.3961 -0.0635  0.7209
14191TIP3    H164064   2.247   6.551   1.263  0.3502 -0.1020  0.7778
14191TIP3    H264065   2.098   6.531   1.249  0.4901 -1.1670  0.7641
14192TIP3   OH264066   2.485   1.975   6.588  0.2104  0.3501 -0.6804
14192TIP3    H164067   2.412   1.931   6.544 -0.5601  1.0522 -0.1217
14192TIP3    H264068   2.563   1.931   6.555 -0.5937 -2.3406  0.8167
14193TIP3   OH264069   2.811   3.140   4.863 -0.2163 -0.3493  0.3747
14193TIP3    H164070   2.749   3.209   4.885  0.1945 -0.3542  1.5481
14193TIP3    H264071   2.828   3.095   4.946  0.0604 -1.4132 -0.2450
14194TIP3   OH264072   1.554   1.534   4.402  0.4241 -0.6026  0.0159
14194TIP3    H164073   1.618   1.590   4.445 -0.1914 -0.4125  0.7036
14194TIP3    H264074   1.524   1.475   4.471  0.5619 -1.3232 -0.5348
14195TIP3   OH264075   3.402   2.657  16.914  0.1296  0.4807 -0.0028
14195TIP3    H164076   3.458   2.715  16.862 -0.7111  1.2686 -0.0455
14195TIP3    H264077   3.320   2.653  16.865 -0.1482  0.0212  0.4955
14196TIP3   OH264078   0.465   5.249   2.657  0.0915 -0.4104  0.0629
14196TIP3    H164079   0.472   5.293   2.742 -0.8984  2.4453 -1.2642
14196TIP3    H264080   0.556   5.242   2.626  0.3271 -0.0587  0.6659
14197TIP3   OH264081   1.324   1.974  14.958  0.3769 -0.5102 -0.3021
14197TIP3    H164082   1.376   2.055  14.961 -2.4449  1.3645  0.6550
14197TIP3    H264083   1.364   1.917  15.022  1.0011  1.0637  0.7448
14198TIP3   OH264084   0.884   3.789   2.148 -0.0068 -0.3427  0.1116
14198TIP3    H164085   0.886   3.819   2.238 -3.5959 -0.2606  0.2531
14198TIP3    H264086   0.889   3.869   2.096  2.8975 -0.4439  0.1673
14199TIP3   OH264087   2.967   3.833  15.133 -0.4124  0.1164 -0.6014
14199TIP3    H164088   2.996   3.771  15.067 -0.3588 -0.8022  0.2717
14199TIP3    H264089   2.916   3.781  15.195 -1.1311  1.1057 -0.3377
14200TIP3   OH264090   2.761   2.280  13.467  0.2754 -0.3643  0.3150
14200TIP3    H164091   2.816   2.224  13.412 -1.1640 -1.7607  0.2768
14200TIP3    H264092   2.814   2.358  13.482  1.6763 -1.0522 -0.9623
14201TIP3   OH264093   4.314   2.249   2.045 -0.3594  0.3377  0.1378
14201TIP3    H164094   4.233   2.200   2.062 -0.3448 -0.1904 -1.2476
14201TIP3    H264095   4.384   2.187   2.066 -0.3414 -0.3669 -1.8998
14202TIP3   OH264096   2.365   2.686  16.386  0.3528 -0.1537  0.0779
14202TIP3    H164097   2.420   2.628  16.439 -0.9064 -0.6855  0.8502
14202TIP3    H264098   2.318   2.628  16.326  0.1750  0.2142 -0.1451
14203TIP3   OH264099   4.211   3.341  13.677  0.9556  0.6571  0.4017
14203TIP3    H164100   4.261   3.361  13.598  0.4218 -2.6089 -0.8387
14203TIP3    H264101   4.270   3.288  13.730 -0.3716 -1.4354 -0.1274
14204TIP3   OH264102   5.077   6.665  14.989  0.4750  0.1080  0.1547
14204TIP3    H164103   4.986   6.636  14.984 -0.1977  2.0450  0.7628
14204TIP3    H264104   5.128   6.593  14.951 -1.2741 -1.1241  0.1151
14205TIP3   OH264105   2.305   5.852  12.081 -0.6611  1.2192  0.3433
14205TIP3    H164106   2.246   5.778  12.074  1.7357 -0.6204 -1.1375
14205TIP3    H264107   2.340   5.847  12.170  1.5482 -1.1370 -0.5774
14206TIP3   OH264108   1.122   1.062  11.113 -0.5691  0.4670 -0.2713
14206TIP3    H164109   1.099   1.107  11.031 -0.0594  0.6308 -0.3302
14206TIP3    H264110   1.187   0.997  11.087 -1.1616 -0.1747 -0.1532
14207TIP3   OH264111   6.237   1.241  16.915 -0.0584 -0.2384 -0.2084
14207TIP3    H164112   6.188   1.324  16.915 -2.7752 -1.7973 -1.1081
14207TIP3    H264113   6.300   1.251  16.844 -0.4378  1.0337 -0.3842
14208TIP3   OH264114   3.064   4.558   3.977 -0.7333 -0.4529  0.0063
14208TIP3    H164115   2.973   4.545   4.005 -0.5972 -0.2617  0.5278
14208TIP3    H264116   3.080   4.651   3.990  0.2919 -0.8969  2.1554
14209TIP3   OH264117   1.644   4.736  11.814 -0.8344  0.0616  0.1910
14209TIP3    H164118   1.721   4.746  11.869 -0.3305 -0.7528 -0.3498
14209TIP3    H264119   1.590   4.812  11.834  0.2569  0.8077  0.3379
14210TIP3   OH264120   4.585   6.418  16.335  0.3158 -0.3338  0.1764
14210TIP3    H164121   4.561   6.326  16.327  1.2770 -0.5934  0.2145
14210TIP3    H264122   4.525   6.464  16.276 -0.9289 -0.8465  1.0159
14211TIP3   OH264123   1.347   6.131   1.233  0.4257  0.6774  0.2091
14211TIP3    H164124   1.340   6.217   1.275 -1.9708  1.7561 -2.2643
14211TIP3    H264125   1.304   6.141   1.149  2.3565 -2.3010 -1.2348
14212TIP3   OH264126   4.939   4.811   4.024  0.3747  0.0743 -0.3554
14212TIP3    H164127   4.901   4.873   4.086  1.7045 -1.1019  1.6928
14212TIP3    H264128   4.875   4.805   3.954 -2.3631 -0.4636  2.0941
14213TIP3   OH264129   0.376   1.186  12.807 -0.2158  0.2040 -0.1569
14213TIP3    H164130   0.319   1.192  12.730 -1.8312 -0.4234  0.9426
14213TIP3    H264131   0.375   1.274  12.844  0.4260  0.4657 -0.7596
14214TIP3   OH264132   5.980   3.109   4.028  0.0469 -0.5613 -0.2178
14214TIP3    H164133   5.917   3.182   4.027 -0.1361 -0.7171  0.1626
14214TIP3    H264134   5.959   3.059   3.949 -1.4842 -1.6277  0.8648
14215TIP3   OH264135   4.074   2.119   2.135  0.7666  0.1604  0.3615
14215TIP3    H164136   3.993   2.111   2.185  0.6198  0.5615  0.1852
14215TIP3    H264137   4.111   2.030   2.136 -1.1721 -0.7485 -2.0557
14216TIP3   OH264138   1.424   2.811   6.573  0.5678  0.0165  0.0239
14216TIP3    H164139   1.455   2.727   6.540  2.4796  0.6616  0.0948
14216TIP3    H264140   1.504   2.858   6.596 -0.4964  1.7307  0.2867
14217TIP3   OH264141   4.013   4.421  15.140  0.2342 -0.0313 -0.2497
14217TIP3    H164142   3.975   4.353  15.196  0.3177  0.9923  1.0674
14217TIP3    H264143   3.961   4.499  15.159 -0.7291 -0.0257 -2.7599
14218TIP3   OH264144   1.584   2.477  12.733 -0.0898  0.0534  0.1552
14218TIP3    H164145   1.553   2.543  12.795 -3.0907  0.8242 -2.0393
14218TIP3    H264146   1.508   2.421  12.717  1.3362 -1.6460 -0.9429
14219TIP3   OH264147   0.942   0.795   1.136 -0.4954 -0.3424 -0.0467
14219TIP3    H164148   1.031   0.813   1.167 -0.5087  0.7113 -0.5952
14219TIP3    H264149   0.899   0.881   1.135 -1.5908 -0.8747  0.4223
14220TIP3   OH264150   4.781   0.821  12.972 -0.1289 -0.2480 -0.2368
14220TIP3    H164151   4.833   0.843  12.894  1.8271  0.2675  1.1528
14220TIP3    H264152   4.831   0.752  13.014 -0.0204  0.9772  1.6924
14221TIP3   OH264153   5.556   0.558  15.867  0.2808 -0.4429 -0.0213
14221TIP3    H164154   5.539   0.544  15.960 -0.9836 -0.4248 -0.2390
14221TIP3    H264155   5.502   0.633  15.844  0.2468 -0.7268 -0.8760
14222TIP3   OH264156   5.695   5.934   3.772 -0.3744  0.0649 -0.0914
14222TIP3    H164157   5.747   6.009   3.801 -0.1853 -0.5270  1.1147
14222TIP3    H264158   5.757   5.877   3.727 -0.2266 -0.0374  0.2382
14223TIP3   OH264159   3.486   0.424  11.168  0.2088 -0.4905  0.0221
14223TIP3    H164160   3.560   0.366  11.189  0.0216 -0.6598  0.2205
14223TIP3    H264161   3.451   0.387  11.087  0.9551  0.1872 -0.6194
14224TIP3   OH264162   1.773   1.088   1.168  0.3350  0.0585  0.0060
14224TIP3    H164163   1.823   1.057   1.244 -0.5628  1.1168  1.0401
14224TIP3    H264164   1.778   1.015   1.106  0.3034 -1.1999  1.4364
14225TIP3   OH264165   5.702   2.591  12.286  0.0565  0.0140 -0.5239
14225TIP3    H164166   5.741   2.678  12.300  3.9347 -1.3075 -2.3755
14225TIP3    H264167   5.688   2.585  12.191  0.3607 -1.5896 -0.4864
14226TIP3   OH264168   1.772   2.334  12.230  0.6117 -0.0355 -0.1908
14226TIP3    H164169   1.830   2.408  12.248  0.1796  0.1736  0.3581
14226TIP3    H264170   1.709   2.335  12.302  0.5735 -0.9132 -0.2108
14227TIP3   OH264171   0.587   3.146  13.894 -0.6043  0.6369  0.7082
14227TIP3    H164172   0.560   3.178  13.980 -1.0285 -0.9350  1.1768
14227TIP3    H264173   0.505   3.130  13.847 -0.3847  0.8913  0.2287
14228TIP3   OH264174   5.827   3.479   3.411  0.4494  0.4256  0.2462
14228TIP3    H164175   5.747   3.485   3.464  0.7712  0.2751  0.7446
14228TIP3    H264176   5.819   3.553   3.350 -0.6118 -0.2477 -0.4499
14229TIP3   OH264177   6.109   6.699   2.945  0.3545 -0.2027  0.4354
14229TIP3    H164178   6.159   6.780   2.946  1.5070 -0.7406 -3.9909
14229TIP3    H264179   6.021   6.725   2.917  0.5933 -0.3777 -0.5050
14230TIP3   OH264180   0.802   2.074   1.909 -0.0549  0.1295 -0.1068
14230TIP3    H164181   0.741   2.144   1.885 -0.7343 -0.4270 -0.0224
14230TIP3    H264182   0.805   2.016   1.833 -0.2354 -0.2570  0.1737
14231TIP3   OH264183   4.394   0.164   4.317 -0.1393 -0.4060 -0.2428
14231TIP3    H164184   4.446   0.228   4.366  1.4564 -0.7275 -1.4830
14231TIP3    H264185   4.366   0.101   4.383  1.1316 -0.2827  0.4334
14232TIP3   OH264186   6.290   3.250   0.446 -0.3140 -0.5106  0.2116
14232TIP3    H164187   6.255   3.327   0.402 -0.9894  0.8640  2.9810
14232TIP3    H264188   6.384   3.257   0.436 -0.5069 -0.7973 -1.8842
14233TIP3   OH264189   3.770   1.487   0.680  0.6118  0.5632 -0.0966
14233TIP3    H164190   3.776   1.525   0.593 -3.2225 -0.9733 -1.1275
14233TIP3    H264191   3.712   1.546   0.728  0.9348  0.2205  0.7234
14234TIP3   OH264192   2.869   5.098   2.030 -0.0549 -0.7886  0.2457
14234TIP3    H164193   2.804   5.031   2.055 -1.3921  0.8760  1.3159
14234TIP3    H264194   2.817   5.169   1.994  1.2853  0.0779  0.0154
14235TIP3   OH264195   4.858   0.228  12.109  0.1462 -0.8673 -0.2704
14235TIP3    H164196   4.855   0.247  12.016 -0.3467  2.0946  0.2767
14235TIP3    H264197   4.792   0.160  12.123  0.1886 -1.2792 -2.0627
14236TIP3   OH264198   5.939   1.321  15.390  0.6585 -0.2804  0.0059
14236TIP3    H164199   5.960   1.414  15.385  1.5798 -0.5893 -2.3142
14236TIP3    H264200   5.853   1.314  15.349  1.1951 -0.6418 -1.0572
14237TIP3   OH264201   4.696   5.701   1.205 -0.2034 -0.5829  0.1164
14237TIP3    H164202   4.739   5.652   1.135 -0.9742 -0.4898 -0.4241
14237TIP3    H264203   4.629   5.752   1.161 -0.6458 -0.4652  0.9188
14238TIP3   OH264204   5.307   1.416   5.567  0.0337  0.2160 -0.3887
14238TIP3    H164205   5.293   1.362   5.645  1.1040  1.4125  0.6466
14238TIP3    H264206   5.398   1.400   5.543 -0.6202 -1.0454 -2.1058
14239TIP3   OH264207   3.735   3.256   3.611 -0.4770 -0.5783  0.2259
14239TIP3    H164208   3.694   3.343   3.606  0.9434  0.1211  0.2639
14239TIP3    H264209   3.697   3.217   3.690  1.4379  1.4382  2.2607
14240TIP3   OH264210   4.646   3.291   2.800 -0.4948 -0.2633  0.8303
14240TIP3    H164211   4.670   3.249   2.717  0.7852  1.8177  0.1105
14240TIP3    H264212   4.706   3.254   2.864  0.5452  0.3516  0.2230
14241TIP3   OH264213   0.138   4.865   1.993 -0.6311 -0.0434  0.1172
14241TIP3    H164214   0.124   4.957   1.969 -0.0213  0.2973  1.0661
14241TIP3    H264215   0.071   4.847   2.058  0.2945  0.2079  1.1461
14242TIP3   OH264216   3.354   2.731  10.875 -0.2505  0.5545  0.5409
14242TIP3    H164217   3.265   2.731  10.839 -0.5901 -0.5604  1.3487
14242TIP3    H264218   3.361   2.648  10.921  0.5952  1.4306  2.0269
14243TIP3   OH264219   0.390   0.468   2.729 -0.0260  0.1001 -0.1140
14243TIP3    H164220   0.380   0.516   2.811 -3.8693  0.4327 -0.6410
14243TIP3    H264221   0.415   0.380   2.755  1.9012  1.0217  1.2010
14244TIP3   OH264222   0.499   6.139  14.859 -0.1853  0.5574 -0.0190
14244TIP3    H164223   0.420   6.087  14.848 -2.4226  3.3256  2.1654
14244TIP3    H264224   0.526   6.161  14.769  0.7804 -4.0973 -0.9804
14245TIP3   OH264225   3.005   5.363  12.281 -0.0953  0.1798  0.2532
14245TIP3    H164226   3.082   5.308  12.266  0.1624  0.3170  1.0182
14245TIP3    H264227   2.961   5.322  12.356  0.7042  1.6466  1.5434
14246TIP3   OH264228   2.476   5.110  15.381  0.5663 -0.4271  0.2931
14246TIP3    H164229   2.452   5.133  15.471  0.0107  0.4998 -0.0840
14246TIP3    H264230   2.421   5.166  15.326  0.6299 -1.2557 -0.6337
14247TIP3   OH264231   2.699   2.494  11.739  0.0082 -0.4703  0.1142
14247TIP3    H164232   2.612   2.491  11.779  0.2494 -0.0769  0.6825
14247TIP3    H264233   2.740   2.572  11.777 -0.0204  0.3469 -1.4543
14248TIP3   OH264234   0.439   0.571  14.680 -0.4779  0.3556 -0.3378
14248TIP3    H164235   0.400   0.510  14.617 -0.8765 -0.7291  0.9415
14248TIP3    H264236   0.370   0.635  14.696 -1.3695 -0.9075  1.0370
14249TIP3   OH264237   6.431   1.451   5.978 -0.2951 -0.3285  1.0057
14249TIP3    H164238   6.478   1.433   6.060  5.2633  0.0406 -1.8611
14249TIP3    H264239   6.438   1.370   5.928 -1.2624  0.3103 -0.1923
14250TIP3   OH264240   4.324   5.786   4.267  0.3237  0.4075 -0.3079
14250TIP3    H164241   4.293   5.833   4.344 -3.2676 -1.6259 -0.4000
14250TIP3    H264242   4.381   5.717   4.303 -0.8378 -0.1444  0.5001
14251TIP3   OH264243   5.845   1.667  12.361  0.4818  0.0200 -0.0867
14251TIP3    H164244   5.877   1.631  12.443  2.0184  0.5665 -0.4334
14251TIP3    H264245   5.849   1.762  12.373  3.1552  0.1573 -1.6800
14252TIP3   OH264246   4.509   6.747  11.339 -0.2350 -0.4899  1.0763
14252TIP3    H164247   4.586   6.760  11.393  0.7259  0.3452 -0.4633
14252TIP3    H264248   4.502   6.653  11.329 -0.6055 -0.6788  2.8774
14253TIP3   OH264249   4.545   3.420  12.631  0.0087 -0.7039  0.5489
14253TIP3    H164250   4.569   3.509  12.658  0.2636 -0.6866  0.2672
14253TIP3    H264251   4.605   3.363  12.678  0.4725 -0.6724 -0.0032
14254TIP3   OH264252   2.792   0.134   5.169  0.1825  0.2675  0.0713
14254TIP3    H164253   2.697   0.143   5.175  0.0564 -1.3333  0.8907
14254TIP3    H264254   2.809   0.121   5.075 -0.5887 -0.9618  0.0811
14255TIP3   OH264255   2.359   1.741   0.133 -0.2056 -0.6972 -0.2062
14255TIP3    H164256   2.376   1.647   0.142  4.1707 -0.0730 -0.7533
14255TIP3    H264257   2.346   1.754   0.039 -1.2595 -0.8052 -0.0788
14256TIP3   OH264258   5.313   3.578   4.617 -0.3763 -0.5474  0.2800
14256TIP3    H164259   5.256   3.591   4.541 -1.3377  0.0912  1.1141
14256TIP3    H264260   5.264   3.520   4.675 -0.7679  1.0599  1.6000
14257TIP3   OH264261   1.485   5.165  14.716  0.0232 -0.4824 -0.2457
14257TIP3    H164262   1.491   5.196  14.806  0.2275 -1.3646  0.0430
14257TIP3    H264263   1.393   5.177  14.693  0.1443  0.5565 -0.2154
14258TIP3   OH264264   2.556   0.097  15.072  0.4362 -0.0906 -0.4579
14258TIP3    H164265   2.605   0.167  15.030 -0.3461  0.8114  0.1203
14258TIP3    H264266   2.598   0.088  15.158 -0.2182  0.4845 -0.0742
14259TIP3   OH264267   1.421   0.827  12.090  0.5331 -0.7163  0.1554
14259TIP3    H164268   1.329   0.842  12.069  0.5320  0.2711  0.7960
14259TIP3    H264269   1.466   0.836  12.006 -0.0937 -2.5076 -0.3788
14260TIP3   OH264270   4.373   3.753  12.836 -0.1024 -0.1817 -0.1415
14260TIP3    H164271   4.339   3.840  12.814 -3.0106 -0.6918  2.0362
14260TIP3    H264272   4.439   3.770  12.904  0.2120  0.4144 -0.5918
14261TIP3   OH264273   2.199   5.538  15.864  0.1728  0.0159  0.2264
14261TIP3    H164274   2.156   5.455  15.846  2.0948 -0.8838 -0.3559
14261TIP3    H264275   2.208   5.580  15.778 -0.1709  0.5096  0.4296
14262TIP3   OH264276   3.258   4.789  11.045 -0.0021 -0.6087  0.7308
14262TIP3    H164277   3.303   4.872  11.031 -1.6012  0.1741  0.0728
14262TIP3    H264278   3.169   4.805  11.014 -0.7927 -2.0553  2.1931
14263TIP3   OH264279   4.507   1.017   1.156 -0.3860  0.1718 -0.9006
14263TIP3    H164280   4.549   1.099   1.130 -0.6566  0.2488 -1.0938
14263TIP3    H264281   4.574   0.951   1.140  0.2207  0.4872  0.3004
14264TIP3   OH264282   6.056   0.905  17.119  0.3865  0.0544 -0.4739
14264TIP3    H164283   6.002   0.943  17.189  1.0687 -1.3089  0.8388
14264TIP3    H264284   6.040   0.960  17.043 -2.0430  0.3084  0.1861
14265TIP3   OH264285   6.431   4.859   0.288 -0.7280 -0.3592  0.4604
14265TIP3    H164286   6.435   4.810   0.370 -1.4659  0.0937  0.7814
14265TIP3    H264287   6.504   4.826   0.236 -0.4782 -0.9149  1.1546
14266TIP3   OH264288   1.475   6.018   5.229 -0.5348  0.4068 -0.4146
14266TIP3    H164289   1.393   6.067   5.223 -0.3020  1.0617  1.5110
14266TIP3    H264290   1.525   6.045   5.152 -1.7380  0.7004 -1.1067
14267TIP3   OH264291   0.666   3.484  15.402  0.3538 -0.3928 -0.1421
14267TIP3    H164292   0.662   3.391  15.427 -0.5231  0.0688  1.5000
14267TIP3    H264293   0.671   3.530  15.485 -1.4515  1.1563 -0.8669
14268TIP3   OH264294   6.564   2.836  15.336  0.1054 -0.2301 -0.2684
14268TIP3    H164295   6.541   2.916  15.383  1.8026  0.1228 -0.0282
14268TIP3    H264296   6.499   2.772  15.366 -0.1956  0.5834  0.8657
14269TIP3   OH264297   3.085   1.650  17.142  0.0051  0.0843  0.5412
14269TIP3    H164298   2.996   1.639  17.108 -0.2049  0.8666  0.8415
14269TIP3    H264299   3.075   1.648  17.237  0.0947  1.8369  0.6007
14270TIP3   OH264300   5.512   5.055   6.354  0.2369 -0.3300 -0.6033
14270TIP3    H164301   5.443   5.116   6.380  0.2071 -0.4541 -0.3858
14270TIP3    H264302   5.589   5.110   6.340 -0.1734 -0.0569 -1.8878
14271TIP3   OH264303   2.621   0.468  13.196  0.5722  0.5900  0.4048
14271TIP3    H164304   2.534   0.498  13.224  1.1933  1.1835  1.7326
14271TIP3    H264305   2.651   0.537  13.136  0.8086  1.2265  1.2408
14272TIP3   OH264306   2.518   3.186  16.195 -0.9698 -0.0792 -0.0122
14272TIP3    H164307   2.590   3.242  16.223 -0.8250 -0.8543  1.2208
14272TIP3    H264308   2.451   3.247  16.165  0.6183  0.6016 -2.2727
14273TIP3   OH264309   2.157   6.247   1.089  0.9844  0.3337  0.2318
14273TIP3    H164310   2.210   6.171   1.111  1.1914  0.3506 -0.2052
14273TIP3    H264311   2.220   6.319   1.081  0.9316  0.2908 -0.5862
14274TIP3   OH264312   6.790   0.077  15.726  0.3764  0.2383  0.2304
14274TIP3    H164313   6.872   0.041  15.759  0.3928 -0.0245 -0.0882
14274TIP3    H264314   6.799   0.074  15.631  0.5910  1.5978  0.2080
14275TIP3   OH264315   4.038   5.747   4.491  0.4802 -0.3409  0.0402
14275TIP3    H164316   4.009   5.786   4.573 -0.5682 -0.8293 -0.0911
14275TIP3    H264317   4.046   5.653   4.511 -2.3457 -0.8587 -1.1100
14276TIP3   OH264318   3.524   3.180  17.152  0.1543 -0.1062 -0.0296
14276TIP3    H164319   3.554   3.257  17.104 -2.5115 -0.1647 -1.8968
14276TIP3    H264320   3.532   3.108  17.088 -0.6593 -0.7336  0.5699
14277TIP3   OH264321   4.924   6.752   4.229 -0.3351  0.2139  0.1149
14277TIP3    H164322   4.887   6.747   4.140  0.0503  0.2733 -0.0511
14277TIP3    H264323   4.901   6.669   4.269 -2.6194  1.1338  0.7974
14278TIP3   OH264324   0.706   4.918   0.780  0.5265  0.2732 -0.0537
14278TIP3    H164325   0.735   4.885   0.695  0.0201 -1.4246  0.4206
14278TIP3    H264326   0.621   4.958   0.762  1.3708  1.8294 -0.7230
14279TIP3   OH264327   3.323   5.256  15.474  0.5143 -0.5191  0.0904
14279TIP3    H164328   3.364   5.295  15.551 -0.4309  0.1808  0.2485
14279TIP3    H264329   3.229   5.260  15.492  0.2271  0.6763 -1.5561
14280TIP3   OH264330   2.165   5.611  15.144  0.3833 -0.0373  0.5521
14280TIP3    H164331   2.163   5.690  15.198  1.1354  0.1980  0.2466
14280TIP3    H264332   2.177   5.643  15.054 -2.3028 -0.3477  0.0570
14281TIP3   OH264333   0.891   5.285   2.107  0.4338  0.4781 -0.0987
14281TIP3    H164334   0.834   5.340   2.053  0.5896 -1.3597 -2.1696
14281TIP3    H264335   0.979   5.309   2.079  0.5193 -0.3152 -0.5162
14282TIP3   OH264336   6.236   3.025  16.652 -0.2139  0.0842 -0.4016
14282TIP3    H164337   6.283   2.949  16.616 -0.0605 -0.1339  0.2489
14282TIP3    H264338   6.192   2.991  16.730 -1.0000  0.4247 -0.6914
14283TIP3   OH264339   4.278   1.582   4.490 -0.0568 -0.1514 -0.9686
14283TIP3    H164340   4.313   1.648   4.550 -0.5212  0.3597 -1.2620
14283TIP3    H264341   4.342   1.578   4.419 -0.6207  0.8181 -1.5292
14284TIP3   OH264342   5.859   0.171  15.161 -0.1517 -0.4615  0.4421
14284TIP3    H164343   5.919   0.134  15.096  1.4252  1.0796  0.9890
14284TIP3    H264344   5.817   0.244  15.116  2.5495  1.9983  1.7539
14285TIP3   OH264345   1.065   3.128   3.059  0.3156  0.2249 -0.5166
14285TIP3    H164346   1.045   3.078   2.980  1.8831 -2.4343  0.7109
14285TIP3    H264347   1.160   3.140   3.057  0.4271 -0.2784  1.1901
14286TIP3   OH264348   2.547   5.176   6.208 -0.2838 -0.1276  0.2749
14286TIP3    H164349   2.625   5.206   6.254 -0.2391  0.0526  0.0805
14286TIP3    H264350   2.530   5.089   6.244 -0.3234  0.0659  0.7263
14287TIP3   OH264351   4.361   1.910   2.673  0.0627 -0.7594  0.7826
14287TIP3    H164352   4.349   1.911   2.768 -0.3121 -0.9688  0.7377
14287TIP3    H264353   4.338   1.999   2.645 -0.9538 -1.0278  0.7502
14288TIP3   OH264354   4.726   4.616  15.897  0.6739  0.0517  0.3513
14288TIP3    H164355   4.777   4.664  15.832 -0.6552  0.0206 -0.7300
14288TIP3    H264356   4.765   4.528  15.899  0.2073 -0.1877 -0.9938
14289TIP3   OH264357   2.547   6.655  14.987  0.0045  0.3210  0.2753
14289TIP3    H164358   2.560   6.730  15.046 -1.1395  0.8636 -0.1519
14289TIP3    H264359   2.519   6.694  14.905  1.3625 -0.4567 -0.5666
14290TIP3   OH264360   4.843   0.673   3.008  0.3483  0.0084 -0.0857
14290TIP3    H164361   4.932   0.639   3.013  0.5193  0.5632  0.6995
14290TIP3    H264362   4.852   0.768   3.016 -0.3113  0.0651  0.0351
14291TIP3   OH264363   3.015   5.458   3.672  0.7099  0.2102 -0.6827
14291TIP3    H164364   3.066   5.458   3.591 -0.1478  1.6380 -1.2384
14291TIP3    H264365   3.072   5.503   3.735  1.1845 -0.4873 -0.6022
14292TIP3   OH264366   1.719   5.603   1.747 -0.2531 -0.7808  0.3876
14292TIP3    H164367   1.714   5.517   1.704  1.5643 -0.7950  0.1636
14292TIP3    H264368   1.800   5.599   1.799  0.9927  1.5061 -1.2766
14293TIP3   OH264369   2.872   1.112   1.223 -0.6959 -0.2737 -0.2824
14293TIP3    H164370   2.896   1.044   1.161 -1.1107  0.0559 -0.8102
14293TIP3    H264371   2.810   1.167   1.175  1.1923  1.6637 -0.5936
14294TIP3   OH264372   3.507   3.528  11.217 -0.4763  0.2203 -0.1435
14294TIP3    H164373   3.455   3.531  11.136 -0.1531  0.1409 -0.3576
14294TIP3    H264374   3.482   3.446  11.259 -0.9245  0.4398  0.0294
14295TIP3   OH264375   5.759   2.497   1.176 -0.3858  0.0826  0.1170
14295TIP3    H164376   5.821   2.558   1.217  0.5992 -0.2059 -0.9211
14295TIP3    H264377   5.700   2.552   1.126  1.3413  0.1142 -1.9349
14296TIP3   OH264378   3.398   4.592   0.283  0.3420 -0.8383  0.5605
14296TIP3    H164379   3.349   4.512   0.263 -0.7145 -0.1868  0.5091
14296TIP3    H264380   3.349   4.662   0.239  2.6800 -0.4767 -1.5650
14297TIP3   OH264381   5.528   4.288   0.426  0.1473  0.4379  0.2071
14297TIP3    H164382   5.609   4.246   0.455  1.0866  1.3258 -1.0570
14297TIP3    H264383   5.554   4.378   0.404 -0.5607 -0.1007 -3.0240
14298TIP3   OH264384   5.701   0.776   0.659  0.2954  0.4096 -0.1528
14298TIP3    H164385   5.702   0.758   0.565  0.9831 -1.0932  0.1235
14298TIP3    H264386   5.793   0.777   0.684  0.0718 -2.4936  1.0608
14299TIP3   OH264387   0.124   4.163  14.786 -0.4330 -0.6173  0.2974
14299TIP3    H164388   0.179   4.084  14.780  2.8009  1.5364  0.2015
14299TIP3    H264389   0.124   4.185  14.879 -0.1105  0.0624  0.1409
14300TIP3   OH264390   5.002   1.297  11.626 -0.1952  0.3629  0.1349
14300TIP3    H164391   4.960   1.211  11.616  2.1709 -0.7985 -0.0467
14300TIP3    H264392   4.949   1.356  11.572 -0.7300 -1.3487 -1.2473
14301TIP3   OH264393   2.186   3.839  16.429  0.3819 -0.2541 -0.1048
14301TIP3    H164394   2.233   3.871  16.506  1.1832 -0.3443 -0.5443
14301TIP3    H264395   2.103   3.886  16.430  0.0365 -0.8543  1.2676
14302TIP3   OH264396   2.764   0.223  11.364 -0.0944  0.4960 -0.1481
14302TIP3    H164397   2.860   0.228  11.367 -0.1507  1.0113  1.1707
14302TIP3    H264398   2.746   0.136  11.330  0.8590 -0.0392  0.6713
14303TIP3   OH264399   4.022   2.670   1.704 -0.0421  0.7455  0.7026
14303TIP3    H164400   3.945   2.690   1.651  0.5876  2.5857  0.4453
14303TIP3    H264401   4.073   2.610   1.649 -0.8794  0.1643  0.5398
14304TIP3   OH264402   0.280   2.982   3.656  0.7031  0.0459 -0.2892
14304TIP3    H164403   0.318   2.898   3.632  1.6675  0.8588 -1.6699
14304TIP3    H264404   0.299   3.039   3.582  1.2425  1.8519  1.1943
14305TIP3   OH264405   4.024   5.194   4.828  0.3077 -0.0734 -0.2746
14305TIP3    H164406   4.053   5.103   4.836  1.7667  0.4011  0.0758
14305TIP3    H264407   3.988   5.200   4.740  0.6456 -0.8762 -0.4791
14306TIP3   OH264408   4.528   2.558   0.381 -0.0875 -0.1343 -0.1004
14306TIP3    H164409   4.553   2.503   0.456 -1.2064 -1.9659 -1.0227
14306TIP3    H264410   4.603   2.616   0.367 -0.1806  0.7740  2.9042
14307TIP3   OH264411   4.507   0.684   5.261  0.3319  0.1110 -0.4355
14307TIP3    H164412   4.461   0.706   5.341 -1.4012 -0.1354 -1.3350
14307TIP3    H264413   4.442   0.693   5.192  1.9148  0.7907 -1.8909
14308TIP3   OH264414   2.747   4.866  12.308  0.1413  0.2513 -0.3379
14308TIP3    H164415   2.741   4.806  12.234 -1.5108 -1.0808  0.8251
14308TIP3    H264416   2.837   4.897  12.306  0.8625 -1.7815 -1.3682
14309TIP3   OH264417   3.915   2.684  12.350  0.0593  0.2449  0.2598
14309TIP3    H164418   3.910   2.601  12.302 -0.6004  0.3131  0.2022
14309TIP3    H264419   3.838   2.683  12.407 -0.3050  1.0971 -0.2020
14310TIP3   OH264420   4.221   2.694  11.876  0.0517  0.0702  0.1059
14310TIP3    H164421   4.238   2.673  11.967 -1.5656 -1.3339  0.0952
14310TIP3    H264422   4.211   2.610  11.833 -2.2669  0.7386 -0.7623
14311TIP3   OH264423   6.059   3.358   4.409  0.6412  0.1130 -0.6417
14311TIP3    H164424   6.061   3.379   4.502  2.8221 -2.8090  0.0198
14311TIP3    H264425   6.127   3.413   4.371  0.2628  0.7466 -0.4180
14312TIP3   OH264426   0.914   4.283   1.425 -0.8346 -0.2702  0.2482
14312TIP3    H164427   0.933   4.353   1.362  0.4772 -0.9085 -0.0817
14312TIP3    H264428   0.954   4.314   1.507 -2.1940  0.3790  0.6703
14313TIP3   OH264429   3.832   4.401  11.714  0.6362 -0.3036  0.1983
14313TIP3    H164430   3.894   4.415  11.642 -0.9980 -0.2070 -1.2252
14313TIP3    H264431   3.755   4.452  11.690  0.7386  1.2255  2.9563
14314TIP3   OH264432   2.059   2.250   5.571 -0.1728  0.1873 -0.0184
14314TIP3    H164433   2.103   2.201   5.641  0.3049 -1.0167 -1.1260
14314TIP3    H264434   2.052   2.339   5.605 -0.5245 -0.5077  1.8125
14315TIP3   OH264435   6.317   5.073  11.356  0.3093  0.2746  0.3195
14315TIP3    H164436   6.288   4.997  11.305  0.6659  0.0006  0.5203
14315TIP3    H264437   6.242   5.097  11.408  0.0033  0.4280 -0.1875
14316TIP3   OH264438   3.857   4.985  15.307  0.2372 -0.0827 -0.0309
14316TIP3    H164439   3.806   5.065  15.321  0.6893  0.1585  0.2549
14316TIP3    H264440   3.929   4.992  15.370  1.5466  0.3526 -1.5282
14317TIP3   OH264441   2.734   2.772   0.098 -0.0355  0.3491  0.3413
14317TIP3    H164442   2.647   2.751   0.064  0.4126  0.4703 -0.9007
14317TIP3    H264443   2.718   2.834   0.170 -0.8992  1.2675 -0.6296
14318TIP3   OH264444   5.709   0.935   0.988 -0.1487 -0.1664  0.0119
14318TIP3    H164445   5.666   0.946   0.903 -1.4610 -1.7925  0.4368
14318TIP3    H264446   5.718   1.024   1.022  0.2904  0.4923 -1.7812
14319TIP3   OH264447   6.268   0.292  15.533 -0.2058 -0.3467  0.4147
14319TIP3    H164448   6.353   0.257  15.561  1.0720  0.9756 -1.6363
14319TIP3    H264449   6.253   0.367  15.589  1.1290  0.8006 -0.7275
14320TIP3   OH264450   4.149   5.291  16.435  0.3147 -0.0281  0.1889
14320TIP3    H164451   4.157   5.278  16.341 -0.6739  2.4135 -0.2832
14320TIP3    H264452   4.077   5.233  16.461  0.0232 -0.0739 -0.7090
14321TIP3   OH264453   3.539   1.671   3.991 -0.4230  0.0010  0.2752
14321TIP3    H164454   3.450   1.636   3.996 -1.8541  3.0961 -1.9908
14321TIP3    H264455   3.528   1.766   4.002  2.7538  0.3039  1.2519
14322TIP3   OH264456   4.300   0.036   3.309  0.4150 -0.2135 -0.3528
14322TIP3    H164457   4.351   0.019   3.388 -0.2880 -1.4840 -0.1753
14322TIP3    H264458   4.365   0.071   3.246  1.2252 -0.4851  0.3261
14323TIP3   OH264459   3.350   6.052   0.166  0.8122 -0.1831 -0.2804
14323TIP3    H164460   3.309   5.991   0.104  1.7289 -0.1718 -0.9117
14323TIP3    H264461   3.444   6.045   0.148  0.9060  1.6358 -0.5657
14324TIP3   OH264462   0.425   4.230  13.722 -0.3918  0.2851 -0.3949
14324TIP3    H164463   0.379   4.165  13.670 -2.9776  1.5444  0.2522
14324TIP3    H264464   0.358   4.266  13.780  1.3609  2.3180  0.4224
14325TIP3   OH264465   1.414   1.833  12.408 -0.7604  0.4347  0.2759
14325TIP3    H164466   1.347   1.802  12.348 -0.8270  0.9698  0.0670
14325TIP3    H264467   1.485   1.864  12.351 -1.2029  1.7827  0.4419
14326TIP3   OH264468   1.717   4.667   5.930  0.4998 -0.1852 -0.3463
14326TIP3    H164469   1.767   4.598   5.974  0.0856 -0.2789 -0.0224
14326TIP3    H264470   1.637   4.624   5.900  0.4689  0.0392 -0.5850
14327TIP3   OH264471   3.312   2.455  14.040 -1.0755 -0.4073 -0.1114
14327TIP3    H164472   3.323   2.533  14.096  0.9372  0.4886 -1.7019
14327TIP3    H264473   3.361   2.386  14.086 -0.0154  0.1432 -0.4012
14328TIP3   OH264474   2.916   1.201   2.828 -0.8980  0.0983 -0.7822
14328TIP3    H164475   2.951   1.132   2.772 -0.2513 -0.8511  0.7594
14328TIP3    H264476   2.857   1.156   2.889 -0.7331  0.9366  0.0171
14329TIP3   OH264477   2.413   2.189  12.620 -0.2463  0.0947 -0.3009
14329TIP3    H164478   2.360   2.133  12.563  1.8256 -0.5429 -1.6576
14329TIP3    H264479   2.476   2.129  12.660  1.6825  1.3322 -1.3842
14330TIP3   OH264480   6.223   6.240   1.308 -0.1611 -0.6315  0.3691
14330TIP3    H164481   6.315   6.215   1.302 -0.4240 -1.8949  1.4891
14330TIP3    H264482   6.222   6.316   1.366  0.0073 -1.6397  1.7125
14331TIP3   OH264483   4.234   1.899   2.134 -0.0694  0.2549 -0.1914
14331TIP3    H164484   4.298   1.896   2.205 -0.1810  0.6682 -0.0741
14331TIP3    H264485   4.257   1.825   2.078  0.4528  0.3508 -0.1023
14332TIP3   OH264486   1.085   3.099  11.552  0.2467 -0.3266 -0.1417
14332TIP3    H164487   1.052   3.035  11.615  0.2198 -0.5823 -0.4141
14332TIP3    H264488   1.058   3.065  11.467  3.6926 -2.0755 -0.6297
14333TIP3   OH264489   3.507   2.986   5.501 -0.0621 -0.2877 -0.1826
14333TIP3    H164490   3.523   2.892   5.504  1.6133  0.0084  0.9928
14333TIP3    H264491   3.591   3.026   5.524 -0.9016  1.4786 -0.0485
14334TIP3   OH264492   0.119   5.490   2.733  0.5737 -0.1695  0.3888
14334TIP3    H164493   0.055   5.425   2.762  1.5750 -0.5372  1.7918
14334TIP3    H264494   0.067   5.569   2.716 -0.3613 -0.7018  0.7553
14335TIP3   OH264495   2.182   0.737   3.809  0.2004 -0.8494 -0.2381
14335TIP3    H164496   2.165   0.648   3.776 -0.5915 -0.6256 -0.4524
14335TIP3    H264497   2.247   0.773   3.748  0.3700 -1.2112 -0.2725
14336TIP3   OH264498   0.753   0.661   1.696  0.5390  0.4197 -0.0016
14336TIP3    H164499   0.731   0.571   1.674  0.9729  0.3590 -0.1978
14336TIP3    H264500   0.677   0.693   1.745  0.0948  0.1692 -0.5239
14337TIP3   OH264501   2.811   0.869   2.497  0.0461 -0.2198 -0.4725
14337TIP3    H164502   2.871   0.928   2.543  0.9099 -2.3777  1.2875
14337TIP3    H264503   2.724   0.899   2.522  0.4403  1.0656 -0.5979
14338TIP3   OH264504   1.131   4.830  12.050 -0.3293 -0.7358  0.3303
14338TIP3    H164505   1.197   4.766  12.025 -0.0325 -0.8726  1.4436
14338TIP3    H264506   1.061   4.778  12.091 -1.0689 -0.5783 -0.7060
14339TIP3   OH264507   0.439   2.267   0.123  0.7131 -0.3473 -0.3064
14339TIP3    H164508   0.350   2.303   0.125  1.0333  0.4389  0.8347
14339TIP3    H264509   0.461   2.254   0.215  1.4313 -1.4207 -0.6271
14340TIP3   OH264510   1.026   5.529   4.713  0.3649 -0.2783  0.4934
14340TIP3    H164511   1.065   5.463   4.770 -0.1938 -0.1109  1.0785
14340TIP3    H264512   1.022   5.488   4.627 -1.1979 -1.5128  1.1207
14341TIP3   OH264513   1.630   6.105   5.797  0.2964 -0.4091  0.0276
14341TIP3    H164514   1.618   6.068   5.710  0.8891  1.0478 -0.6894
14341TIP3    H264515   1.545   6.141   5.820 -0.2735 -2.1079  0.7111
14342TIP3   OH264516   3.035   2.624  13.551 -0.1115  0.5028  0.0315
14342TIP3    H164517   2.959   2.682  13.546 -1.6346 -1.3509  0.9683
14342TIP3    H264518   3.055   2.618  13.644  0.9554  0.6863 -0.1819
14343TIP3   OH264519   5.077   1.566   0.724 -0.5174 -0.4209 -0.0099
14343TIP3    H164520   5.033   1.546   0.642  0.2282 -1.3873 -0.1928
14343TIP3    H264521   5.168   1.584   0.699 -0.6571  0.9083  0.4279
14344TIP3   OH264522   2.038   3.023   3.537 -0.1079 -0.0761 -0.1525
14344TIP3    H164523   2.028   3.069   3.453  0.0393  1.5811  0.7219
14344TIP3    H264524   2.021   2.931   3.516 -2.0843  0.5872 -1.6340
14345TIP3   OH264525   6.578   5.803  11.499  0.2458 -0.1242 -0.5361
14345TIP3    H164526   6.506   5.739  11.496  0.7753 -0.9179  1.9137
14345TIP3    H264527   6.545   5.872  11.558  0.9689  0.1705 -0.4765
14346TIP3   OH264528   3.380   4.771  17.049 -0.1277 -0.8457  0.0125
14346TIP3    H164529   3.295   4.805  17.075  0.3143  0.3756 -0.1130
14346TIP3    H264530   3.425   4.845  17.008  0.1586 -2.0592 -1.9612
14347TIP3   OH264531   6.215   1.531  12.057  0.1773 -0.0304  0.2981
14347TIP3    H164532   6.294   1.480  12.076 -1.3385 -2.4468  0.3573
14347TIP3    H264533   6.176   1.547  12.143 -0.5876 -0.8649  0.1150
14348TIP3   OH264534   5.862   4.736  13.471  0.1269  0.1378  0.3808
14348TIP3    H164535   5.890   4.712  13.383 -1.4795  1.1942 -0.4458
14348TIP3    H264536   5.787   4.679  13.489  0.2762  0.1149  0.9504
14349TIP3   OH264537   5.769   1.939   2.390  0.2139 -0.4028 -0.2890
14349TIP3    H164538   5.737   1.927   2.479 -0.6480 -0.7636 -0.6409
14349TIP3    H264539   5.703   1.897   2.335  1.4648 -1.4407 -1.0046
14350TIP3   OH264540   5.041   5.927   1.025  0.1132  0.4242 -0.5432
14350TIP3    H164541   4.954   5.907   0.992  0.1527 -0.7235  0.0018
14350TIP3    H264542   5.028   5.954   1.115  0.3863 -0.6603 -0.1628
14351TIP3   OH264543   2.970   1.450   1.718  0.0560  0.0398  0.0140
14351TIP3    H164544   3.026   1.382   1.680  1.0643  0.5719  0.5187
14351TIP3    H264545   3.024   1.528   1.719 -1.3127  1.0240 -1.1264
14352TIP3   OH264546   0.916   0.191   1.419 -0.4183 -0.1362 -0.0931
14352TIP3    H164547   1.004   0.155   1.428 -1.2238 -1.7103  1.8987
14352TIP3    H264548   0.900   0.237   1.502 -1.1058  0.9776 -0.8321
14353TIP3   OH264549   5.314   6.036   6.027 -0.5450 -0.7269 -0.6315
14353TIP3    H164550   5.396   5.987   6.038 -0.2303 -0.3872 -1.4534
14353TIP3    H264551   5.329   6.091   5.951 -0.8360  0.7860  0.3841
14354TIP3   OH264552   5.747   5.678   4.548  0.2428  0.0760 -0.5624
14354TIP3    H164553   5.706   5.667   4.634  0.2020  1.4875 -0.3980
14354TIP3    H264554   5.708   5.757   4.512  0.3970 -0.4106 -1.8130
14355TIP3   OH264555   0.035   3.858   0.661 -0.6833  0.2360  0.1440
14355TIP3    H164556   0.081   3.909   0.729 -0.8315 -0.4666  0.7739
14355TIP3    H264557   0.012   3.923   0.595  0.1477  0.8023  0.3944
14356TIP3   OH264558   4.252   2.346   5.292  0.4932 -0.4694  0.2392
14356TIP3    H164559   4.158   2.341   5.277  0.5432 -1.8707  0.3941
14356TIP3    H264560   4.273   2.439   5.281 -0.5189 -0.4894 -2.1216
14357TIP3   OH264561   0.293   3.090  12.758  0.2737  0.7396  0.2593
14357TIP3    H164562   0.243   3.009  12.768  1.4480  0.3159  3.3175
14357TIP3    H264563   0.236   3.147  12.706 -1.6797 -1.1300  0.2822
14358TIP3   OH264564   6.774   2.734   1.059 -0.0853  0.0176 -0.0052
14358TIP3    H164565   6.768   2.664   0.994  0.1035  0.2419 -0.2681
14358TIP3    H264566   6.818   2.805   1.012 -0.2638  0.3043  0.2656
14359TIP3   OH264567   4.212   5.287   5.040  0.1344  0.4746 -0.0228
14359TIP3    H164568   4.161   5.245   4.970 -1.0366  2.3605 -0.3464
14359TIP3    H264569   4.145   5.317   5.102  0.8561  2.8723 -0.3825
14360TIP3   OH264570   0.107   6.198  16.312  0.0102 -0.0375  0.2522
14360TIP3    H164571   0.196   6.172  16.290  0.5938  0.5221  1.9251
14360TIP3    H264572   0.052   6.148  16.250  1.3327 -2.1601  0.7405
14361TIP3   OH264573   3.108   4.862  11.498 -0.0656 -0.1638  0.6572
14361TIP3    H164574   3.194   4.880  11.462 -0.1732  0.9170  0.9344
14361TIP3    H264575   3.084   4.942  11.545 -1.0436 -0.6018  0.9186
14362TIP3   OH264576   5.402   0.266  15.716 -0.8960 -0.1491 -0.2359
14362TIP3    H164577   5.441   0.221  15.791  0.6686 -1.3928 -1.7645
14362TIP3    H264578   5.368   0.348  15.752  1.2320 -0.0134  1.5440
14363TIP3   OH264579   6.191   0.057   3.258  0.2637 -0.4741  0.2469
14363TIP3    H164580   6.101   0.027   3.245 -0.0575  0.9097 -0.7683
14363TIP3    H264581   6.183   0.150   3.280  1.4728 -0.2349 -0.2805
14364TIP3   OH264582   2.058   2.007   3.093  0.8982  0.3347  0.2722
14364TIP3    H164583   2.088   2.015   3.183  1.8283  0.6294 -0.0533
14364TIP3    H264584   2.127   2.050   3.041  1.0874 -1.0758 -0.6850
14365TIP3   OH264585   2.151   1.226  14.710 -0.5099  0.3474 -0.0174
14365TIP3    H164586   2.058   1.205  14.721 -0.3882  0.2223  0.7691
14365TIP3    H264587   2.197   1.143  14.719 -0.1890  0.6518  1.2240
14366TIP3   OH264588   0.820   0.088  16.806 -0.3365  0.0080  0.0888
14366TIP3    H164589   0.905   0.069  16.767 -1.5560 -2.2082 -1.5827
14366TIP3    H264590   0.758   0.082  16.734 -2.3539 -1.9197  1.9207
14367TIP3   OH264591   2.699   0.039   4.631  0.1543 -0.0634  0.2395
14367TIP3    H164592   2.616   0.002   4.663  0.2434 -1.9997 -1.6362
14367TIP3    H264593   2.676   0.076   4.546  1.0795  0.0441  0.0397
14368TIP3   OH264594   1.878   4.040   1.025 -0.5503  0.2258 -0.0949
14368TIP3    H164595   1.930   4.087   1.090 -1.4519 -0.9762  1.5305
14368TIP3    H264596   1.919   4.062   0.941  2.7996 -0.9014  1.1330
14369TIP3   OH264597   0.373   2.869   0.219  0.0125  0.5853 -0.3130
14369TIP3    H164598   0.375   2.776   0.194  1.3552  0.9777 -1.7419
14369TIP3    H264599   0.282   2.886   0.241 -0.2364 -1.0909  0.0070
14370TIP3   OH264600   6.290   1.192  13.227  0.0573  0.3298 -0.1294
14370TIP3    H164601   6.376   1.157  13.202  0.0302  0.6545 -0.6882
14370TIP3    H264602   6.243   1.118  13.265 -0.3759 -0.4913 -2.2079
14371TIP3   OH264603   5.448   2.190   4.695  0.4685  0.4025 -0.2900
14371TIP3    H164604   5.538   2.223   4.700  0.3526  0.8693 -1.1602
14371TIP3    H264605   5.403   2.252   4.637  0.0795 -0.9295 -1.4459
14372TIP3   OH264606   3.373   6.256  16.973  0.2039  0.2239  0.0604
14372TIP3    H164607   3.312   6.315  16.928 -0.3172 -0.6937 -0.4393
14372TIP3    H264608   3.358   6.170  16.933  0.5652 -0.3695  1.1760
14373TIP3   OH264609   5.466   5.847  16.201  0.7856  0.6254  0.2855
14373TIP3    H164610   5.509   5.893  16.129  0.6034  0.5743  0.1462
14373TIP3    H264611   5.537   5.830  16.264  0.7474  1.6247  0.6065
14374TIP3   OH264612   3.295   6.396  16.064  0.0922 -0.5220  0.4961
14374TIP3    H164613   3.373   6.348  16.037 -0.7803 -1.5904 -0.1419
14374TIP3    H264614   3.223   6.353  16.018 -1.1213 -0.7853  2.5770
14375TIP3   OH264615   1.507   1.400   3.008 -0.5851  0.1255 -0.1159
14375TIP3    H164616   1.602   1.391   3.006 -0.7684 -2.4246  0.6536
14375TIP3    H264617   1.491   1.492   2.989  2.0514  0.6514  0.0421
14376TIP3   OH264618   0.356   2.563   5.416  0.5977 -0.2671 -0.2046
14376TIP3    H164619   0.280   2.510   5.441  0.5468 -0.1584 -0.1274
14376TIP3    H264620   0.361   2.630   5.484 -0.1649  0.6676 -1.0666
14377TIP3   OH264621   2.476   3.581   3.636  0.1549 -0.1088  0.1928
14377TIP3    H164622   2.490   3.541   3.722  1.1415  0.0762  0.1253
14377TIP3    H264623   2.556   3.633   3.621  0.4156 -0.9230 -1.2733
14378TIP3   OH264624   0.958   4.880   0.848  0.3377 -0.0977 -0.2458
14378TIP3    H164625   0.867   4.888   0.819  0.6822  1.0009 -1.0558
14378TIP3    H264626   0.972   4.786   0.859 -0.6390 -0.3298 -0.9587
14379TIP3   OH264627   5.103   6.316   5.998 -0.7587 -0.2583  0.6179
14379TIP3    H164628   5.126   6.251   6.064  1.0030  0.7181  0.9987
14379TIP3    H264629   5.037   6.370   6.040  1.5384  1.3862  2.2610
14380TIP3   OH264630   4.640   4.790   3.576  0.2621 -0.5872 -0.0563
14380TIP3    H164631   4.558   4.751   3.607 -0.0891  0.5837  0.5193
14380TIP3    H264632   4.635   4.784   3.481 -0.1461 -1.2359  0.0066
14381TIP3   OH264633   1.565   6.732  16.910 -0.7707 -0.5122 -0.2324
14381TIP3    H164634   1.529   6.734  16.822 -0.4968 -2.4217 -0.4221
14381TIP3    H264635   1.636   6.795  16.910 -0.8977 -0.3758 -1.3259
14382TIP3   OH264636   5.217   0.211  12.683  0.1109 -0.4890 -0.3789
14382TIP3    H164637   5.280   0.217  12.755  2.3173  0.1431 -2.2946
14382TIP3    H264638   5.237   0.127  12.641 -0.0834 -0.1039 -1.2371
14383TIP3   OH264639   5.122   5.551   1.076 -0.7647  0.5924 -0.2583
14383TIP3    H164640   5.145   5.621   1.138  0.4656 -2.2123  2.5735
14383TIP3    H264641   5.171   5.573   0.997 -0.4100  2.9296  0.5443
14384TIP3   OH264642   5.057   1.128  14.911 -0.3510 -0.0446  0.5034
14384TIP3    H164643   5.106   1.205  14.883  0.0939 -0.4808  0.0688
14384TIP3    H264644   5.123   1.070  14.949 -0.7733  0.0391  1.3668
14385TIP3   OH264645   6.813   1.197  12.816  0.3486 -0.2054  0.2007
14385TIP3    H164646   6.819   1.193  12.912  1.3906 -0.0338  0.1453
14385TIP3    H264647   6.895   1.238  12.789  0.9205 -2.0301 -0.9005
14386TIP3   OH264648   6.059   0.293   6.234 -0.6139  1.0724 -0.1976
14386TIP3    H164649   6.062   0.389   6.234  0.2054  1.0895 -2.5663
14386TIP3    H264650   6.072   0.269   6.142  0.0056 -1.3342  0.4874
14387TIP3   OH264651   1.957   4.489  16.864  0.0443 -0.0466 -0.0223
14387TIP3    H164652   2.012   4.559  16.898 -0.7337  1.6897 -2.2316
14387TIP3    H264653   1.867   4.518  16.882 -0.2467 -1.3674  0.7196
14388TIP3   OH264654   1.820   2.696   4.077 -0.2393 -0.1475  0.0600
14388TIP3    H164655   1.743   2.739   4.038 -0.1604 -1.2553 -1.3608
14388TIP3    H264656   1.858   2.646   4.005  1.4898 -0.0834  0.9126
14389TIP3   OH264657   6.548   6.502   0.684  0.6995 -0.0278 -0.6934
14389TIP3    H164658   6.588   6.567   0.626  1.5191 -0.7841 -0.9872
14389TIP3    H264659   6.616   6.436   0.696  0.6558  0.2519  1.3605
14390TIP3   OH264660   6.102   4.363  15.341 -0.1721  0.0473  0.0882
14390TIP3    H164661   6.068   4.348  15.252  1.5791 -1.2195 -0.4036
14390TIP3    H264662   6.145   4.448  15.336  0.2217 -0.1734 -0.4041
14391TIP3   OH264663   4.493   3.055   0.688  0.0220 -0.1961  0.5139
14391TIP3    H164664   4.483   3.131   0.745  0.2781  0.2504 -0.0333
14391TIP3    H264665   4.437   2.988   0.727 -0.6497  0.4546  0.6691
14392TIP3   OH264666   5.952   1.137   1.417  0.0978 -0.1050  0.0537
14392TIP3    H164667   5.940   1.076   1.490 -1.6379 -1.3274 -1.2073
14392TIP3    H264668   5.949   1.224   1.457 -0.7064 -0.7678  1.4599
14393TIP3   OH264669   2.586   6.099   3.707  0.3562 -0.1245  0.3163
14393TIP3    H164670   2.566   6.018   3.755 -0.7196  0.5392  1.0063
14393TIP3    H264671   2.598   6.165   3.775 -2.3318  1.0800 -0.3160
14394TIP3   OH264672   2.561   2.918  13.466  0.0065 -0.0600 -1.0048
14394TIP3    H164673   2.499   2.856  13.505  1.1786 -0.0099  0.9763
14394TIP3    H264674   2.520   3.004  13.476 -0.1372 -0.1522 -0.8092
14395TIP3   OH264675   3.626   5.553   4.659  0.0480  0.6763  0.1035
14395TIP3    H164676   3.677   5.473   4.643 -0.4481  0.2150  0.7878
14395TIP3    H264677   3.650   5.580   4.747 -0.4902  0.7424  0.2348
14396TIP3   OH264678   1.292   4.170   2.921  0.1650  0.0345 -0.3845
14396TIP3    H164679   1.273   4.083   2.954 -1.8806 -0.3766 -2.5024
14396TIP3    H264680   1.329   4.156   2.834  2.1959  1.2142  0.2509
14397TIP3   OH264681   2.191   3.853   3.569 -0.3252 -0.4895  0.5740
14397TIP3    H164682   2.196   3.809   3.653 -0.4011 -0.2667  0.6962
14397TIP3    H264683   2.129   3.802   3.518  2.2817 -2.6506 -0.5573
14398TIP3   OH264684   0.496   3.233  12.453  0.1066 -0.1224 -0.0438
14398TIP3    H164685   0.548   3.313  12.463  0.0349 -0.0860  0.0391
14398TIP3    H264686   0.417   3.261  12.406 -0.0506 -0.0899  0.2395
14399TIP3   OH264687   4.810   4.368  16.060  0.3585  0.3450 -0.5049
14399TIP3    H164688   4.875   4.315  16.013 -0.0546  0.7338 -1.5481
14399TIP3    H264689   4.832   4.358  16.152  1.3956 -0.1887 -0.8005
14400TIP3   OH264690   2.102   1.012  15.190  0.0177  0.0266  0.1805
14400TIP3    H164691   2.056   0.991  15.271  1.7049  0.6909  1.3438
14400TIP3    H264692   2.050   1.082  15.151  0.1426  0.9508  1.6100
14401TIP3   OH264693   4.394   2.444  16.121 -0.1813 -0.1132  0.0206
14401TIP3    H164694   4.370   2.351  16.127 -1.4291  0.2442  0.5952
14401TIP3    H264695   4.467   2.454  16.182  1.0023 -1.0397 -1.1984
14402TIP3   OH264696   1.642   4.611   1.020 -0.5059  0.1947 -0.1204
14402TIP3    H164697   1.568   4.628   0.962  0.4003 -0.5765 -1.5302
14402TIP3    H264698   1.694   4.545   0.975 -0.3856 -1.3132  2.1225
14403TIP3   OH264699   2.801   0.195   0.356  0.3264  0.1552 -0.2309
14403TIP3    H164700   2.769   0.183   0.446 -0.9079  1.2498 -0.5126
14403TIP3    H264701   2.895   0.182   0.362  0.2982  0.6133  1.2992
14404TIP3   OH264702   2.573   0.867  16.428  0.4983  0.1867 -0.7804
14404TIP3    H164703   2.663   0.862  16.461  0.0814  0.8408  0.5169
14404TIP3    H264704   2.524   0.909  16.500 -0.7155  0.3818 -1.7102
14405TIP3   OH264705   6.367   5.386  16.775 -0.3614 -0.3449  0.2776
14405TIP3    H164706   6.316   5.337  16.839  0.5707 -0.2445  1.1054
14405TIP3    H264707   6.444   5.416  16.823 -0.2990  0.8614 -0.5440
14406TIP3   OH264708   0.262   5.386  12.370 -0.0154 -0.1581 -0.2425
14406TIP3    H164709   0.255   5.469  12.324  1.0442  0.0695  0.0092
14406TIP3    H264710   0.342   5.346  12.336  0.0132 -0.6263  0.3606
14407TIP3   OH264711   6.208   0.733   1.727 -0.0549  0.2942 -0.8167
14407TIP3    H164712   6.266   0.659   1.750 -1.9374 -1.1323 -0.5695
14407TIP3    H264713   6.137   0.728   1.791 -1.1055  1.2847 -1.9014
14408TIP3   OH264714   3.571   5.422   3.114  0.2665 -0.1675  0.3697
14408TIP3    H164715   3.519   5.502   3.118  1.3220  0.5187  0.6635
14408TIP3    H264716   3.662   5.453   3.115  0.6780 -1.3340 -0.2503
14409TIP3   OH264717   0.458   2.322   3.731  0.0764  0.1908  0.2976
14409TIP3    H164718   0.434   2.384   3.799  1.4593 -0.7602  1.6795
14409TIP3    H264719   0.467   2.239   3.776 -1.8478 -1.0665 -1.5506
14410TIP3   OH264720   6.668   5.809   5.044  0.0729 -0.0182  0.1438
14410TIP3    H164721   6.675   5.841   5.134 -0.6384 -1.1835  0.6275
14410TIP3    H264722   6.576   5.784   5.035 -0.1742  1.2944 -1.3410
14411TIP3   OH264723   3.788   3.170   2.525 -0.1081 -0.3858 -0.5054
14411TIP3    H164724   3.742   3.099   2.570 -1.1377  0.2774 -0.4974
14411TIP3    H264725   3.795   3.141   2.434  0.8580 -1.1778 -0.1845
14412TIP3   OH264726   6.678   1.461  14.773  0.0433  0.2680  0.1255
14412TIP3    H164727   6.711   1.415  14.850  2.0499  1.4751  0.0061
14412TIP3    H264728   6.608   1.516  14.808  1.0918  0.9864  1.1546
14413TIP3   OH264729   3.352   3.413  16.773 -0.0812 -0.3976  0.5977
14413TIP3    H164730   3.290   3.465  16.722  0.1901  0.2412  0.9211
14413TIP3    H264731   3.426   3.472  16.789 -0.1668 -0.5860  1.7361
14414TIP3   OH264732   1.820   2.506   3.085  0.5028  0.4917  0.1944
14414TIP3    H164733   1.753   2.545   3.029 -0.8244 -0.4768  1.0836
14414TIP3    H264734   1.779   2.428   3.121  1.9523  0.1447  1.1332
14415TIP3   OH264735   5.700   0.260   0.472  0.0530 -0.2106 -0.0594
14415TIP3    H164736   5.765   0.190   0.479  0.9254  0.5688 -0.3191
14415TIP3    H264737   5.727   0.325   0.538  0.5532  0.9277 -1.3709
14416TIP3   OH264738   1.640   4.028  13.788 -0.0487  0.8519  0.1881
14416TIP3    H164739   1.639   4.096  13.720  0.6028  1.1440  0.4620
14416TIP3    H264740   1.728   3.990  13.782  0.0203  0.8918  0.8743
14417TIP3   OH264741   1.039   4.428  17.003  0.3668  0.2440 -0.4735
14417TIP3    H164742   1.027   4.353  17.060  0.6167  1.2273  0.9053
14417TIP3    H264743   1.130   4.423  16.974  0.4558  0.1425 -0.1765
14418TIP3   OH264744   1.395   1.407   3.640 -0.4043  0.3321  0.4568
14418TIP3    H164745   1.445   1.328   3.660  1.9660  1.4849 -0.6641
14418TIP3    H264746   1.405   1.418   3.545 -4.0183 -0.1683 -0.0665
14419TIP3   OH264747   1.289   1.053  11.558  0.3107  0.6786 -0.1676
14419TIP3    H164748   1.289   0.957  11.557 -1.0071  0.6723 -0.8123
14419TIP3    H264749   1.196   1.076  11.550  0.6662  2.0124 -0.3832
14420TIP3   OH264750   6.164   3.525  11.500 -0.2888  0.4603  0.0768
14420TIP3    H164751   6.217   3.475  11.562 -0.8411 -0.2309 -0.0139
14420TIP3    H264752   6.086   3.550  11.550 -0.4011  0.5207 -0.1292
14421TIP3   OH264753   1.040   3.785  16.637  0.2080  0.9710 -0.4989
14421TIP3    H164754   1.016   3.861  16.584 -1.1190 -0.4943 -2.0191
14421TIP3    H264755   1.043   3.820  16.727 -1.1889  2.6501 -1.0627
14422TIP3   OH264756   6.656   2.613   5.228 -0.0915 -0.8065 -0.7308
14422TIP3    H164757   6.636   2.574   5.314 -0.7420 -1.0338 -0.9848
14422TIP3    H264758   6.617   2.553   5.165 -1.4888  0.4744 -1.1177
14423TIP3   OH264759   1.765   1.762  16.162 -0.3168  0.1146 -0.0985
14423TIP3    H164760   1.684   1.719  16.190 -0.2861  0.2161  0.1431
14423TIP3    H264761   1.788   1.820  16.235 -0.1850  0.3036 -0.2898
14424TIP3   OH264762   5.252   3.325   0.315 -0.0780  0.3538  0.2306
14424TIP3    H164763   5.162   3.314   0.285  0.3931  0.7490 -1.3777
14424TIP3    H264764   5.252   3.291   0.404 -0.8005 -4.1351 -1.3083
14425TIP3   OH264765   5.978   3.284   0.097  0.0501  0.6180  0.6959
14425TIP3    H164766   6.025   3.249   0.022 -0.3722  1.2943  0.0990
14425TIP3    H264767   5.940   3.366   0.065  0.2634  1.1578  1.7867
14426TIP3   OH264768   0.559   2.965  16.700 -0.8731  0.0013 -0.5587
14426TIP3    H164769   0.519   3.050  16.721 -0.5220 -0.1640  0.8152
14426TIP3    H264770   0.653   2.980  16.711 -0.8134 -0.5704 -0.3044
14427TIP3   OH264771   1.389   6.252  13.275  0.4880 -0.5570 -0.0137
14427TIP3    H164772   1.339   6.333  13.263  1.3061  0.2863  2.0689
14427TIP3    H264773   1.325   6.189  13.308  0.6088  0.2936  1.8849
14428TIP3   OH264774   2.353   0.448   5.923  0.2472 -0.2302  0.2313
14428TIP3    H164775   2.414   0.441   5.996  1.8478  2.3378 -0.8016
14428TIP3    H264776   2.354   0.540   5.898 -0.7311 -0.9146 -2.6262
14429TIP3   OH264777   3.292   5.799  12.674  0.1048 -0.4132  0.2349
14429TIP3    H164778   3.264   5.889  12.661 -1.3785 -0.3974  3.1234
14429TIP3    H264779   3.227   5.746  12.627  1.0561 -0.0212 -1.5805
14430TIP3   OH264780   3.700   6.080  11.732 -0.2379 -0.3666  0.0288
14430TIP3    H164781   3.677   6.063  11.823 -1.8393  1.2643 -0.0678
14430TIP3    H264782   3.652   6.014  11.682 -1.5714  0.5176  0.1452
14431TIP3   OH264783   4.104   5.764  14.984  0.1815 -0.3772 -0.3980
14431TIP3    H164784   4.171   5.794  15.046 -0.5675  0.7360 -0.1171
14431TIP3    H264785   4.086   5.674  15.011  1.4175 -0.6187 -0.3527
14432TIP3   OH264786   3.185   2.543   1.325 -0.1229 -0.7199  0.1258
14432TIP3    H164787   3.148   2.626   1.354  0.3218 -0.0055 -1.3226
14432TIP3    H264788   3.133   2.519   1.248  0.1889 -1.4301  0.1353
14433TIP3   OH264789   2.097   3.917   0.016 -0.1965 -0.2735 -0.2392
14433TIP3    H164790   2.072   3.825   0.019 -3.2821  0.4609 -1.0299
14433TIP3    H264791   2.123   3.938   0.105  0.4005 -1.8615 -0.0189
14434TIP3   OH264792   3.119   5.289  17.229  0.2328 -0.3606 -0.0342
14434TIP3    H164793   3.026   5.296  17.248  0.3190 -0.6476  0.4934
14434TIP3    H264794   3.127   5.317  17.138 -0.3401 -0.1390 -0.0166
14435TIP3   OH264795   1.961   3.115  16.721 -0.0502  0.3550  0.0672
14435TIP3    H164796   1.979   3.188  16.780 -1.5474  1.0325 -0.2904
14435TIP3    H264797   1.958   3.155  16.634 -1.9195  0.0694 -0.0182
14436TIP3   OH264798   0.718   3.714  10.879  0.3502 -0.7893  0.0748
14436TIP3    H164799   0.691   3.639  10.826  0.7355 -0.3759 -0.7202
14436TIP3    H264800   0.813   3.704  10.887  0.5052  0.0049 -0.6642
14437TIP3   OH264801   6.075   5.852   0.298 -0.4173 -0.1792 -0.5850
14437TIP3    H164802   6.064   5.911   0.223  1.4927  1.2987  0.2379
14437TIP3    H264803   6.017   5.888   0.365  0.5412  0.6396 -0.1763
14438TIP3   OH264804   6.652   1.829  11.234  0.2135  0.1686 -0.5017
14438TIP3    H164805   6.633   1.748  11.282 -0.2467 -0.8497 -2.3349
14438TIP3    H264806   6.573   1.846  11.183  1.1110  0.5190 -1.8204
14439TIP3   OH264807   5.240   5.034  16.630 -0.3697  0.1304  0.2909
14439TIP3    H164808   5.285   5.115  16.607 -0.4802 -0.2613 -1.3081
14439TIP3    H264809   5.310   4.971  16.647 -0.2956 -0.0302 -0.5952
14440TIP3   OH264810   4.486   3.259   6.079  0.3081 -0.4474 -0.3073
14440TIP3    H164811   4.442   3.177   6.056  0.7745 -0.3917 -1.4274
14440TIP3    H264812   4.456   3.321   6.012  1.2366 -0.1252 -0.4209
14441TIP3   OH264813   1.818   6.396   3.605  0.0466 -0.2629 -0.1204
14441TIP3    H164814   1.899   6.356   3.572  0.3490 -1.1324  1.6137
14441TIP3    H264815   1.769   6.324   3.644 -0.5766  0.6241  0.7823
14442TIP3   OH264816   3.919   5.121  16.404 -0.0481 -0.0255 -0.1155
14442TIP3    H164817   3.825   5.121  16.418 -0.6250  0.5101 -3.4351
14442TIP3    H264818   3.941   5.029  16.387  0.1815 -0.2731  1.5021
14443TIP3   OH264819   1.633   0.619   3.830 -0.2202  0.3214 -0.2649
14443TIP3    H164820   1.619   0.711   3.808 -1.6500 -0.0607 -1.0649
14443TIP3    H264821   1.726   0.613   3.851  0.2601  1.6028 -1.8908
14444TIP3   OH264822   0.300   5.081   2.970  0.2283 -0.4502 -0.2336
14444TIP3    H164823   0.350   5.067   3.050 -0.9294 -1.9766  0.2441
14444TIP3    H264824   0.209   5.089   2.999 -0.0495  0.3496 -1.2777
14445TIP3   OH264825   0.671   1.543   3.902 -0.3434  0.1388  0.2190
14445TIP3    H164826   0.598   1.595   3.867 -0.0546  0.5554  0.2318
14445TIP3    H264827   0.687   1.579   3.989  0.7634  0.9460 -0.3152
14446TIP3   OH264828   1.795   3.026  14.692  0.5203 -0.5528 -0.7542
14446TIP3    H164829   1.769   3.018  14.600  0.1427  0.3890 -0.7402
14446TIP3    H264830   1.724   2.983  14.741  0.5403 -0.7366 -0.8871
14447TIP3   OH264831   6.055   2.606  13.688 -0.1004  0.9153 -0.2639
14447TIP3    H164832   6.141   2.634  13.658  0.1920 -0.1649 -0.4448
14447TIP3    H264833   6.034   2.530  13.635 -0.6355  0.4334  0.6161
14448TIP3   OH264834   4.032   3.021   3.230  0.0951  0.0252  0.0061
14448TIP3    H164835   4.090   2.953   3.265  0.1535 -0.0429 -0.2226
14448TIP3    H264836   3.960   3.026   3.293 -0.0808 -0.4881 -0.1564
14449TIP3   OH264837   3.148   1.186   3.721  0.1774 -0.0651 -0.0464
14449TIP3    H164838   3.104   1.270   3.726 -0.1895 -0.2289 -0.5029
14449TIP3    H264839   3.077   1.122   3.715  0.4563 -0.3966  0.1732
14450TIP3   OH264840   0.244   0.300  17.242 -0.2326  0.4674  0.0827
14450TIP3    H164841   0.266   0.244  17.167  1.9708  1.1655  0.1644
14450TIP3    H264842   0.219   0.238  17.311 -0.6349 -0.2585 -0.6946
14451TIP3   OH264843   3.594   0.879  10.736 -0.1556 -0.0465 -0.1264
14451TIP3    H164844   3.608   0.954  10.678  1.0278  0.5812  0.9441
14451TIP3    H264845   3.583   0.805  10.676 -1.0016  0.9139 -1.1913
14452TIP3   OH264846   6.088   4.276   2.057 -0.0184  0.2772 -0.1619
14452TIP3    H164847   6.135   4.197   2.085 -0.1893  0.0020 -0.6388
14452TIP3    H264848   6.038   4.248   1.980 -0.4978  0.7141 -0.0157
14453TIP3   OH264849   5.546   5.411  15.711  0.2626 -0.2900 -0.7736
14453TIP3    H164850   5.517   5.320  15.706 -0.0853 -0.1950 -0.5436
14453TIP3    H264851   5.553   5.440  15.620 -0.2873 -0.3397 -0.8320
14454TIP3   OH264852   2.201   0.119  11.649  0.0883 -0.1520  0.6067
14454TIP3    H164853   2.239   0.170  11.578 -1.5969 -0.0401 -0.2432
14454TIP3    H264854   2.128   0.073  11.609 -1.8470  1.0944  2.5767
14455TIP3   OH264855   3.060   3.181  15.834  0.0676  0.0585 -0.0292
14455TIP3    H164856   3.103   3.232  15.764  0.7051  0.0687  0.3617
14455TIP3    H264857   3.120   3.108  15.849 -0.2367 -0.1268  0.2754
14456TIP3   OH264858   5.877   5.971  16.012 -0.1146 -0.0604 -0.3506
14456TIP3    H164859   5.868   5.902  15.947 -0.7887  1.4337 -1.8866
14456TIP3    H264860   5.947   6.027  15.978 -0.3484  0.6386  0.2927
14457TIP3   OH264861   0.116   2.009  17.176 -0.8079 -0.4555  0.3440
14457TIP3    H164862   0.067   1.941  17.129  1.3400 -1.1033 -1.0785
14457TIP3    H264863   0.055   2.081  17.185 -2.9117 -2.3027  1.2339
14458TIP3   OH264864   4.877   4.382   1.420 -0.5775 -0.2027  0.3148
14458TIP3    H164865   4.814   4.343   1.481  0.1996 -0.3935  1.0002
14458TIP3    H264866   4.932   4.309   1.392  1.2441  0.4704  2.0434
14459TIP3   OH264867   5.221   1.744  11.534  0.1085  0.1681  0.2008
14459TIP3    H164868   5.225   1.840  11.527  0.6748  0.1340 -0.0030
14459TIP3    H264869   5.166   1.728  11.611  0.6781  0.6715  0.7209
14460TIP3   OH264870   2.176   0.145   4.621  0.2683  0.3186 -0.1596
14460TIP3    H164871   2.239   0.074   4.632  0.0843  0.3328  1.0234
14460TIP3    H264872   2.092   0.109   4.649  0.1242  0.9112  0.1916
14461TIP3   OH264873   0.606   4.619   2.801  0.1435 -0.2225  0.3980
14461TIP3    H164874   0.693   4.658   2.809  0.1342 -0.0466 -0.3409
14461TIP3    H264875   0.551   4.690   2.766  0.0951 -0.8474 -0.8325
14462TIP3   OH264876   6.265   5.765   3.121  0.3966  0.3589  0.1324
14462TIP3    H164877   6.321   5.766   3.199 -1.0554 -0.2851  1.2124
14462TIP3    H264878   6.311   5.708   3.059  1.8949  1.4148  0.2463
14463TIP3   OH264879   2.450   2.808  11.976  0.6178  0.0320 -0.3346
14463TIP3    H164880   2.395   2.779  12.049  0.2328  1.1902 -0.1524
14463TIP3    H264881   2.416   2.762  11.900  2.0333 -2.4286  0.4584
14464TIP3   OH264882   2.791   1.748   1.273 -0.8212  0.5794  0.6398
14464TIP3    H164883   2.741   1.779   1.348  0.7944 -0.3937  2.1435
14464TIP3    H264884   2.869   1.708   1.311  0.6693  1.2554 -1.6048
14465TIP3   OH264885   4.027   3.011   3.721  0.9283 -0.5072 -0.3357
14465TIP3    H164886   4.049   2.988   3.631  0.9343  1.5166 -0.8689
14465TIP3    H264887   4.108   3.043   3.759  0.3848  0.9149 -0.3526
14466TIP3   OH264888   5.074   4.675  11.079  0.4563 -0.1231 -0.3937
14466TIP3    H164889   5.068   4.771  11.072  2.4358  0.0787  0.3252
14466TIP3    H264890   5.053   4.658  11.171  1.0940 -0.2964 -0.2842
14467TIP3   OH264891   1.507   3.437  15.090  0.4815  0.2909  0.2209
14467TIP3    H164892   1.443   3.366  15.084  1.0921 -0.0953 -1.9791
14467TIP3    H264893   1.508   3.460  15.183 -0.1772 -2.1502  0.8670
14468TIP3   OH264894   4.562   2.739   2.378  0.6424 -0.1660 -0.0905
14468TIP3    H164895   4.540   2.832   2.381  0.3770 -0.1889 -1.2454
14468TIP3    H264896   4.512   2.699   2.449  1.8980  0.8016  1.3861
14469TIP3   OH264897   0.329   3.461   0.299 -0.2265 -0.2095 -0.5375
14469TIP3    H164898   0.257   3.426   0.247  0.1455  0.2407 -1.3575
14469TIP3    H264899   0.286   3.501   0.375 -0.9597  1.5513 -1.8633
14470TIP3   OH264900   2.871   3.804   5.009 -0.2460 -0.2474 -0.2151
14470TIP3    H164901   2.858   3.832   4.919  0.0134 -1.2901 -0.5745
14470TIP3    H264902   2.965   3.789   5.017 -0.3378 -0.6962  0.0683
14471TIP3   OH264903   1.020   5.270  15.883 -0.9111 -0.4133 -0.0540
14471TIP3    H164904   1.046   5.273  15.975 -0.4080  0.2776 -0.2060
14471TIP3    H264905   0.957   5.341  15.873 -0.3263  0.0679 -0.4198
14472TIP3   OH264906   5.019   3.948   0.597 -0.5084  0.0300 -0.6148
14472TIP3    H164907   4.995   3.896   0.674 -0.7007 -0.0849 -0.7511
14472TIP3    H264908   4.999   3.891   0.523  1.2005 -0.4922 -0.7003
14473TIP3   OH264909   6.652   1.977   1.016  0.0659  0.0691  0.0440
14473TIP3    H164910   6.667   1.971   1.110 -0.8846  0.8194  0.2422
14473TIP3    H264911   6.558   1.966   1.005  0.0199  1.1710 -0.7243
14474TIP3   OH264912   5.155   5.192  15.206 -0.2164 -0.0227  0.1727
14474TIP3    H164913   5.086   5.126  15.194  0.1017 -0.7962  2.2645
14474TIP3    H264914   5.218   5.173  15.137 -0.8122 -1.0362 -0.1177
14475TIP3   OH264915   1.137   3.968   5.087  0.7851 -0.6981  0.5952
14475TIP3    H164916   1.074   4.008   5.147  1.3273 -0.6186  1.1158
14475TIP3    H264917   1.138   4.027   5.011  0.5793 -0.4437  0.7877
14476TIP3   OH264918   6.572   1.412  11.903  0.3812 -0.0162 -0.4610
14476TIP3    H164919   6.533   1.459  11.829 -1.4325 -0.9934 -0.1705
14476TIP3    H264920   6.620   1.479  11.952 -0.8418  1.2255 -0.9184
14477TIP3   OH264921   2.171   4.037  12.017  0.2067  0.1945  0.0594
14477TIP3    H164922   2.223   3.980  11.960  2.2340  1.4251  0.6196
14477TIP3    H264923   2.236   4.091  12.062 -1.4227 -0.0275  2.7720
14478TIP3   OH264924   1.332   1.452  16.126 -0.3101 -0.1281  0.4686
14478TIP3    H164925   1.266   1.507  16.083 -2.0717 -1.2747  1.6197
14478TIP3    H264926   1.283   1.375  16.156  1.6750 -1.2666  0.8764
14479TIP3   OH264927   6.162   6.714   5.308  0.3474  0.0051 -0.0867
14479TIP3    H164928   6.189   6.677   5.224  0.1309  0.0792 -0.1876
14479TIP3    H264929   6.070   6.691   5.317  0.0354  1.0862 -0.4556
14480TIP3   OH264930   1.528   1.166  10.336 -0.0858 -0.5542 -0.0929
14480TIP3    H164931   1.580   1.113  10.396  1.2811  2.4795  1.5072
14480TIP3    H264932   1.451   1.192  10.388  0.2638  0.6862 -0.1896
14481TIP3   OH264933   5.696   4.967   4.136  0.3485  0.1054  0.3051
14481TIP3    H164934   5.690   4.903   4.206 -2.2173 -1.2717 -1.1070
14481TIP3    H264935   5.685   5.052   4.179  1.0310 -0.5729  1.8240
14482TIP3   OH264936   4.183   6.158   2.963 -0.6729 -0.0081 -0.4002
14482TIP3    H164937   4.165   6.071   2.999 -0.3293 -0.4957 -1.3997
14482TIP3    H264938   4.139   6.160   2.879 -0.0377  0.5073 -0.7286
14483TIP3   OH264939   3.162   2.587  12.760 -0.1377 -0.1505 -0.4341
14483TIP3    H164940   3.069   2.567  12.748  0.4688 -3.1805 -0.4321
14483TIP3    H264941   3.183   2.558  12.849  0.5803  1.6231  0.0198
14484TIP3   OH264942   1.652   3.720  15.825  0.0885  0.2458 -0.6155
14484TIP3    H164943   1.628   3.628  15.810 -0.9078  0.2916  0.5994
14484TIP3    H264944   1.569   3.768  15.817  0.7445  1.1786 -2.1534
14485TIP3   OH264945   6.164   4.540   2.005  0.0890 -0.1381  0.7121
14485TIP3    H164946   6.134   4.454   2.033  0.5494 -0.5875 -0.1657
14485TIP3    H264947   6.205   4.525   1.920 -1.5643  1.2712 -0.3533
14486TIP3   OH264948   0.360   3.229  15.485  0.5611  0.0771  0.5563
14486TIP3    H164949   0.374   3.165  15.415  2.5170  0.0022  0.9889
14486TIP3    H264950   0.400   3.189  15.563 -2.0127 -0.0631  1.8605
14487TIP3   OH264951   6.202   5.688   4.800  0.5475 -0.0308  0.2916
14487TIP3    H164952   6.109   5.707   4.808  0.4525 -1.2723  2.8278
14487TIP3    H264953   6.206   5.594   4.780  1.2287 -0.1430  0.9025
14488TIP3   OH264954   4.214   5.248  16.171 -0.7895 -0.0214 -0.0515
14488TIP3    H164955   4.172   5.218  16.091  0.6384  0.4126 -0.9860
14488TIP3    H264956   4.284   5.185  16.187  0.8919  1.5859 -0.8787
14489TIP3   OH264957   5.558   4.034   2.329 -0.0728  0.0646 -0.7319
14489TIP3    H164958   5.614   4.018   2.405 -0.1490  1.1619 -0.4354
14489TIP3    H264959   5.562   3.952   2.279 -0.1737 -0.7461  0.5398
14490TIP3   OH264960   5.120   2.163   4.207 -0.1631  0.9303  0.1762
14490TIP3    H164961   5.061   2.131   4.276 -0.3625  1.7374  0.3947
14490TIP3    H264962   5.138   2.087   4.153  0.2441  0.2069  1.3055
14491TIP3   OH264963   2.193   3.884   1.893  0.1823 -0.1991 -0.5588
14491TIP3    H164964   2.106   3.875   1.854 -0.1525 -0.6686  0.2648
14491TIP3    H264965   2.251   3.837   1.833 -0.5572 -2.2083  0.2459
14492TIP3   OH264966   0.475   3.864   6.789 -0.3656 -0.2909 -0.3921
14492TIP3    H164967   0.428   3.795   6.835  2.0805 -1.0786  1.0256
14492TIP3    H264968   0.469   3.940   6.847  0.5092 -0.5395  0.0331
14493TIP3   OH264969   1.994   4.885   3.890  0.9468 -0.3555  0.3929
14493TIP3    H164970   1.911   4.876   3.842  0.3815 -1.0230  1.4839
14493TIP3    H264971   2.061   4.883   3.822 -0.0351  2.4694 -0.7347
14494TIP3   OH264972   6.654   5.136  12.569  0.9036  0.4248 -0.2873
14494TIP3    H164973   6.598   5.059  12.584 -0.9974  1.4931 -1.6414
14494TIP3    H264974   6.658   5.179  12.654 -0.0799  0.1592 -0.0969
14495TIP3   OH264975   6.029   6.147   0.424  1.1938 -0.3931 -0.4782
14495TIP3    H164976   6.087   6.162   0.498  1.3292  0.0469 -0.6717
14495TIP3    H264977   5.973   6.225   0.420  0.5719 -0.8248 -0.2759
14496TIP3   OH264978   5.129   1.160  14.299 -0.5534 -0.1467  0.7231
14496TIP3    H164979   5.124   1.217  14.376  0.4478  1.1131 -0.1233
14496TIP3    H264980   5.199   1.198  14.246  0.0553 -2.1241  0.0943
14497TIP3   OH264981   4.995   1.085   4.401  0.5477  0.5272 -0.7449
14497TIP3    H164982   4.997   1.181   4.407  0.5177  0.4914 -0.1220
14497TIP3    H264983   5.078   1.062   4.358  0.3848  0.8531 -1.2406
14498TIP3   OH264984   4.466   5.970  17.280  0.3029  0.2189 -0.5554
14498TIP3    H164985   4.380   5.944  17.249  0.1416  0.3889 -0.2545
14498TIP3    H264986   4.519   5.890  17.275 -0.1896 -0.1731  0.3731
14499TIP3   OH264987   2.739   0.190  16.027 -0.4214  0.2980  0.5287
14499TIP3    H164988   2.760   0.097  16.035  1.3339  0.6695  0.4611
14499TIP3    H264989   2.743   0.222  16.117 -0.5759  0.4038  0.4967
14500TIP3   OH264990   4.468   4.876   0.217  0.9066  0.6696 -0.9292
14500TIP3    H164991   4.435   4.841   0.134 -0.2945 -0.8350  0.1756
14500TIP3    H264992   4.395   4.926   0.253  1.1616  0.6634 -0.3940
14501TIP3   OH264993   5.587   0.040  16.650  0.4135 -0.0799  0.7563
14501TIP3    H164994   5.604  -0.052  16.669  0.6201  0.3666  2.8658
14501TIP3    H264995   5.645   0.060  16.576  2.6653 -0.8701  2.2304
14502TIP3   OH264996   4.512   1.542   3.970 -0.4162 -0.2134 -0.3743
14502TIP3    H164997   4.517   1.452   3.938  1.3703  0.4413 -1.9899
14502TIP3    H264998   4.425   1.572   3.942 -0.6465 -1.1100 -0.6422
14503TIP3   OH264999   1.030   0.268  14.416  0.2150 -0.0265 -0.1165
14503TIP3    H165000   1.024   0.334  14.486  0.4356 -1.3166  1.1364
14503TIP3    H265001   0.959   0.207  14.435  0.9355 -0.9630 -0.4140
14504TIP3   OH265002   4.322   0.123   5.613  0.5594 -0.5757 -0.5809
14504TIP3    H165003   4.276   0.196   5.653  2.0974  0.3301 -0.4096
14504TIP3    H265004   4.275   0.045   5.643 -0.4509  0.2870  0.0878
14505TIP3   OH265005   0.830   1.750  15.419 -0.0567  0.2575  0.7528
14505TIP3    H165006   0.819   1.688  15.491 -0.7759 -0.3847  0.1035
14505TIP3    H265007   0.792   1.706  15.343  1.7219  0.4664 -0.2853
14506TIP3   OH265008   5.894   3.071  16.642 -0.3864 -0.2387 -0.3635
14506TIP3    H165009   5.855   3.110  16.720 -1.1743 -0.8782 -0.4269
14506TIP3    H265010   5.939   2.993  16.673  0.5654  0.3094 -0.3423
14507TIP3   OH265011   5.354   3.838   4.344 -0.3228 -0.0977 -0.0673
14507TIP3    H165012   5.262   3.829   4.317 -0.0728 -1.1110 -0.6300
14507TIP3    H265013   5.350   3.884   4.427 -1.2827  0.8477 -0.6152
14508TIP3   OH265014   1.444   0.178   0.274  0.1644  0.8573  0.5960
14508TIP3    H165015   1.521   0.233   0.279  1.7523 -1.2227 -0.1612
14508TIP3    H265016   1.467   0.098   0.322 -0.8488 -0.4899 -1.0518
14509TIP3   OH265017   5.059   3.625   0.151  0.3875  0.7514  0.2589
14509TIP3    H165018   5.008   3.545   0.163 -1.2010  1.9334  1.6787
14509TIP3    H265019   5.108   3.635   0.233  2.0322  0.2528 -0.6396
14510TIP3   OH265020   3.665   2.912  16.161  0.3954 -0.0875  0.1184
14510TIP3    H165021   3.671   2.991  16.107 -0.3032 -0.9933 -1.3351
14510TIP3    H265022   3.736   2.856  16.129  0.5970 -0.2376  0.8196
14511TIP3   OH265023   4.089   5.289   1.872  0.2906  0.2063 -0.0522
14511TIP3    H165024   4.171   5.320   1.834 -0.5199  0.8705 -1.3131
14511TIP3    H265025   4.029   5.363   1.862 -1.1402 -1.0829 -1.3999
14512TIP3   OH265026   3.615   5.516  14.945 -0.3298  0.7744  0.0400
14512TIP3    H165027   3.598   5.448  15.010 -0.5315  0.9764  0.1992
14512TIP3    H265028   3.528   5.548  14.921 -0.3102  0.0074 -1.0655
14513TIP3   OH265029   3.387   0.146  15.153  0.8924  0.2589 -0.2544
14513TIP3    H165030   3.396   0.122  15.246  0.2708  0.6048 -0.1063
14513TIP3    H265031   3.294   0.135  15.134  0.4336  3.3065  0.0198
14514TIP3   OH265032   6.602   6.622  12.249  0.3214 -0.0335 -0.6418
14514TIP3    H165033   6.626   6.709  12.219  0.4124 -0.4282 -1.7084
14514TIP3    H265034   6.506   6.621  12.246  0.3690 -0.4547 -1.9869
14515TIP3   OH265035   4.916   4.056  11.893  0.2251 -0.0122  0.2149
14515TIP3    H165036   4.963   3.973  11.891  0.1067 -0.1332  1.7697
14515TIP3    H265037   4.825   4.034  11.875 -0.4121 -0.7116  3.8437
14516TIP3   OH265038   4.343   0.573  12.151  0.2183 -0.4372 -0.8597
14516TIP3    H165039   4.402   0.639  12.115 -0.3194 -0.1100 -1.1381
14516TIP3    H265040   4.259   0.617  12.159  1.1582  0.7064  4.4761
14517TIP3   OH265041   1.784   3.212   2.445  0.0197  0.3485  0.1440
14517TIP3    H165042   1.845   3.265   2.394 -1.0303  1.1852 -0.2775
14517TIP3    H265043   1.839   3.150   2.493  1.0873  0.2168 -1.2356
14518TIP3   OH265044   1.470   1.139   0.247 -0.0568  0.0554 -0.2868
14518TIP3    H165045   1.375   1.130   0.234 -0.1407  0.1194  0.2991
14518TIP3    H265046   1.479   1.194   0.324  0.4523 -0.6461  0.1676
14519TIP3   OH265047   2.773   4.572   3.990 -0.2745  0.2107  0.5285
14519TIP3    H165048   2.735   4.630   4.057 -0.2401  1.2865 -0.3626
14519TIP3    H265049   2.732   4.487   4.006  1.9174 -0.2869  3.7427
14520TIP3   OH265050   4.255   2.339  12.011  0.2322  0.4904 -0.0126
14520TIP3    H165051   4.230   2.388  11.933 -0.1023  1.2573  0.5644
14520TIP3    H265052   4.297   2.259  11.978 -0.1097  0.7050 -0.9660
14521TIP3   OH265053   0.754   3.115  11.230  0.0929  0.2030  0.3182
14521TIP3    H165054   0.764   3.122  11.135 -0.9043 -2.3272 -0.0180
14521TIP3    H265055   0.799   3.033  11.252 -1.7244 -0.4471  1.6814
14522TIP3   OH265056   2.548   4.528  12.396  0.0490 -0.1041  0.3664
14522TIP3    H165057   2.535   4.622  12.401 -0.9176 -0.2829  1.2747
14522TIP3    H265058   2.484   4.491  12.457 -0.5750 -1.4315 -1.0660
14523TIP3   OH265059   4.716   5.911  12.465 -0.0891 -0.7038  0.1029
14523TIP3    H165060   4.730   5.967  12.542 -0.4844 -0.3463 -0.0837
14523TIP3    H265061   4.621   5.908  12.455 -0.0903 -1.6797  0.3086
14524TIP3   OH265062   5.209   4.673   1.044 -0.4370  0.4139  0.2564
14524TIP3    H165063   5.300   4.671   1.074  0.2328 -2.9907 -1.6940
14524TIP3    H265064   5.192   4.765   1.026  2.7922  1.0770  0.2092
14525TIP3   OH265065   0.140   6.655  12.709  0.3793  0.3428  0.1798
14525TIP3    H165066   0.075   6.689  12.769 -0.4679  2.4773 -1.8624
14525TIP3    H265067   0.220   6.702  12.731  0.7400 -0.7836  1.3294
14526TIP3   OH265068   2.049   6.415   2.714  0.0926  0.2899  0.3555
14526TIP3    H165069   2.057   6.510   2.706 -2.4063  0.5187  0.1245
14526TIP3    H265070   2.138   6.384   2.727  1.0544  2.5719 -0.5973
14527TIP3   OH265071   3.548   2.200  16.937  0.1724 -0.0593 -0.1430
14527TIP3    H165072   3.475   2.262  16.933 -0.4255 -0.7370  0.2164
14527TIP3    H265073   3.512   2.118  16.904  1.0530 -0.1376 -0.9273
14528TIP3   OH265074   4.897   2.025   2.024 -0.2431  0.0058 -0.6113
14528TIP3    H165075   4.984   1.984   2.020 -0.3354 -0.5567  2.1382
14528TIP3    H265076   4.900   2.094   1.958  1.7505 -1.0221 -1.6424
14529TIP3   OH265077   3.420   2.561  11.689  0.1914  0.1029 -0.0652
14529TIP3    H165078   3.488   2.556  11.756 -0.8233 -0.2194  0.9368
14529TIP3    H265079   3.464   2.532  11.609  0.7782 -1.7864  0.9284
14530TIP3   OH265080   4.041   0.241  16.600 -0.2132  0.3598 -0.4432
14530TIP3    H165081   4.108   0.256  16.534 -0.2455  1.5698 -0.2172
14530TIP3    H265082   4.071   0.164  16.648 -1.0452 -1.5921 -2.9463
14531TIP3   OH265083   6.657   0.031   3.503  0.2006 -0.2260 -0.2015
14531TIP3    H165084   6.572   0.019   3.545 -0.0211 -0.4366 -0.7216
14531TIP3    H265085   6.692   0.111   3.543  0.5125 -1.0837  1.2821
14532TIP3   OH265086   1.086   2.122   1.991 -0.1748  0.0141 -0.0096
14532TIP3    H165087   1.075   2.215   1.968 -0.4239 -0.0803 -0.2703
14532TIP3    H265088   0.998   2.085   1.983  0.1865 -0.5606 -1.2986
14533TIP3   OH265089   3.733   0.683   2.046  0.3351  0.5888  0.4309
14533TIP3    H165090   3.811   0.661   2.097  0.5648  1.4217  0.4486
14533TIP3    H265091   3.744   0.776   2.025 -1.8371  1.3322  2.5130
14534TIP3   OH265092   1.202   5.005   1.812 -0.3370  0.2880  0.2882
14534TIP3    H165093   1.295   5.002   1.833 -0.2463 -0.4214 -0.2128
14534TIP3    H265094   1.158   4.994   1.896  0.0265 -0.0041  0.4395
14535TIP3   OH265095   0.009   0.017  12.020 -0.1415 -0.0360  0.4410
14535TIP3    H165096  -0.011   0.016  11.926  0.8989  1.2393  0.2049
14535TIP3    H265097  -0.042   0.090  12.054  2.2235  1.7303  0.2488
14536TIP3   OH265098   0.362   4.092  12.621  0.4979 -0.9804 -0.2498
14536TIP3    H165099   0.451   4.067  12.645  0.5003  0.0835  0.8488
14536TIP3    H265100   0.306   4.049  12.686  0.3313 -0.2628  0.0925
14537TIP3   OH265101   2.831   1.047   1.489  0.1093 -0.4990 -0.0580
14537TIP3    H165102   2.908   0.993   1.507  0.6606 -0.1224 -1.2333
14537TIP3    H265103   2.827   1.051   1.393 -0.1175  1.2499  0.0157
14538TIP3   OH265104   3.240   6.277   0.289  0.1326 -0.6818  0.1539
14538TIP3    H165105   3.273   6.355   0.245  1.3195 -0.7155  0.9570
14538TIP3    H265106   3.282   6.204   0.245  0.1732 -0.7939  0.3776
14539TIP3   OH265107   4.731   3.479  13.221 -0.4458  0.0897  0.7071
14539TIP3    H165108   4.747   3.571  13.200 -1.4551  0.3351  0.9465
14539TIP3    H265109   4.743   3.433  13.138 -1.6756  0.6787  0.1848
14540TIP3   OH265110   4.089   4.940   1.872  0.0052 -0.0618  0.0769
14540TIP3    H165111   4.002   4.903   1.884  0.3151 -0.9307 -0.2790
14540TIP3    H265112   4.077   5.015   1.814 -0.2370 -1.3525 -1.5560
14541TIP3   OH265113   0.571   2.511  14.640 -0.2230 -0.2743 -0.1607
14541TIP3    H165114   0.518   2.443  14.601  0.2138  0.5314 -2.2035
14541TIP3    H265115   0.626   2.466  14.705 -0.2399 -1.7762 -1.1904
14542TIP3   OH265116   5.213   0.857   1.599 -0.7300  0.0449 -0.0488
14542TIP3    H165117   5.147   0.821   1.659  0.5181 -1.6518  0.3087
14542TIP3    H265118   5.259   0.781   1.564 -0.3747  1.1052 -1.9666
14543TIP3   OH265119   3.949   2.499  16.157 -1.0399  0.3849 -0.4358
14543TIP3    H165120   4.022   2.545  16.116 -0.5731 -0.1036 -0.1664
14543TIP3    H265121   3.980   2.478  16.245 -1.4017 -0.0673 -0.4094
14544TIP3   OH265122   4.280   6.605  10.659  0.3060  0.1024  0.7374
14544TIP3    H165123   4.315   6.637  10.742  0.3602  0.7246  0.4809
14544TIP3    H265124   4.185   6.609  10.669  0.3132  0.0622  0.8164
14545TIP3   OH265125   5.095   0.533   0.341  0.6309  0.3298 -0.4781
14545TIP3    H165126   5.123   0.590   0.269  0.5668  1.4467  0.3714
14545TIP3    H265127   5.007   0.565   0.364  0.1004 -0.8772 -0.7766
14546TIP3   OH265128   6.578   2.205  14.638  0.1018  0.0261 -0.1048
14546TIP3    H165129   6.655   2.258  14.658  0.8666 -0.6362 -1.2057
14546TIP3    H265130   6.592   2.123  14.684  1.3362 -1.0819 -2.3662
14547TIP3   OH265131   6.217   1.919  15.569  0.3730 -0.6743 -0.4126
14547TIP3    H165132   6.300   1.872  15.575  0.2194 -1.3656 -2.9927
14547TIP3    H265133   6.240   2.001  15.524 -0.2040 -0.5275 -0.4339
14548TIP3   OH265134   2.944   5.602  13.934 -0.2310 -0.3980  0.1074
14548TIP3    H165135   2.921   5.661  13.863 -1.1763 -0.8369  0.0484
14548TIP3    H265136   2.962   5.659  14.009  2.5713  0.1853 -0.9540
14549TIP3   OH265137   4.699   5.787  11.193  0.3680  0.3606  0.2723
14549TIP3    H165138   4.672   5.826  11.275  1.4528  1.8046 -0.0343
14549TIP3    H265139   4.765   5.722  11.217 -0.3690 -0.2584  0.6492
14550TIP3   OH265140   6.645   0.375  12.442  0.0471 -0.0386 -0.2850
14550TIP3    H165141   6.572   0.392  12.383 -0.8464  1.1502  1.1264
14550TIP3    H265142   6.646   0.280  12.453 -2.5070  0.0586  1.1564
14551TIP3   OH265143   5.315   0.455   1.821  0.0249 -0.8766  0.8747
14551TIP3    H165144   5.225   0.423   1.812 -0.0369 -0.0801 -1.8226
14551TIP3    H265145   5.309   0.548   1.801  1.3390 -0.6418  1.5588
14552TIP3   OH265146   1.104   2.241   1.285  0.0737  0.7413  0.5297
14552TIP3    H165147   1.009   2.243   1.290  0.1298  1.0042  1.5370
14552TIP3    H265148   1.127   2.148   1.298  0.0227  0.8806  1.6888
14553TIP3   OH265149   0.558   3.546  16.052 -0.5004  0.2422  0.7073
14553TIP3    H165150   0.604   3.609  16.108  2.4631  0.2150 -1.5724
14553TIP3    H265151   0.501   3.599  15.997  0.3667  0.7314  0.2815
14554TIP3   OH265152   1.647   2.826   2.418  0.0345 -0.1684  0.5101
14554TIP3    H165153   1.559   2.860   2.405  0.8540  1.9299  0.2148
14554TIP3    H265154   1.652   2.807   2.512 -0.6826 -0.1583  0.5533
14555TIP3   OH265155   5.626   1.514   2.130  0.8461  0.2667 -0.4235
14555TIP3    H165156   5.670   1.497   2.214  1.2997  1.6586 -0.3693
14555TIP3    H265157   5.630   1.430   2.084 -0.6709 -0.9055  1.5250
14556TIP3   OH265158   4.519   0.608  11.212  0.5026  0.0124  0.4213
14556TIP3    H165159   4.434   0.568  11.201  0.2288  0.3834  1.1155
14556TIP3    H265160   4.501   0.702  11.218  0.5730 -0.1187  3.9875
14557TIP3   OH265161   1.853   4.179  17.060 -0.6953  0.1985 -0.6270
14557TIP3    H165162   1.921   4.221  17.113 -0.9266 -0.0966 -0.0952
14557TIP3    H265163   1.788   4.248  17.045  0.2495  0.8026 -2.0843
14558TIP3   OH265164   1.271   0.414   1.770  0.1695 -0.1579 -0.1973
14558TIP3    H165165   1.362   0.385   1.763 -0.5057 -2.2754 -0.4654
14558TIP3    H265166   1.245   0.389   1.859  0.0113  0.9900  0.0927
14559TIP3   OH265167   2.585   2.714  15.895 -0.1757 -0.3503 -0.1985
14559TIP3    H165168   2.549   2.801  15.879 -3.2543 -1.6607 -0.7118
14559TIP3    H265169   2.543   2.685  15.976  1.3299 -1.0971  0.3253
14560TIP3   OH265170   4.464   1.690   1.654  0.7480  0.4587 -0.4095
14560TIP3    H165171   4.370   1.701   1.642  0.4176  0.5807  1.9188
14560TIP3    H265172   4.471   1.634   1.732  2.5908  0.7906 -0.3242
14561TIP3   OH265173   1.492   4.357  14.769 -0.6518  0.2275 -0.3792
14561TIP3    H165174   1.561   4.341  14.833 -0.7770  0.6749 -0.1319
14561TIP3    H265175   1.528   4.422  14.710 -0.8036  0.3554 -0.3343
14562TIP3   OH265176   6.740   0.747   3.584  0.7312  0.6858 -0.1518
14562TIP3    H165177   6.715   0.789   3.502  0.1104  1.1905  0.2970
14562TIP3    H265178   6.697   0.662   3.582  2.5654 -0.2604 -1.3903
14563TIP3   OH265179   5.657   3.147   4.442 -0.2076 -0.0499  0.2345
14563TIP3    H165180   5.639   3.215   4.507  1.0857  2.7259 -2.2069
14563TIP3    H265181   5.645   3.191   4.358 -1.2937 -3.4042 -1.4483
14564TIP3   OH265182   0.016   4.041   2.422 -0.4102 -0.3366 -0.1040
14564TIP3    H165183   0.032   3.947   2.436  0.4625 -0.9510 -4.3077
14564TIP3    H265184   0.098   4.083   2.447  0.5861 -1.1776 -1.8401
14565TIP3   OH265185   4.279   6.193  11.464 -0.0411  0.2862 -0.4328
14565TIP3    H165186   4.302   6.134  11.393  1.4199  1.1894 -0.7343
14565TIP3    H265187   4.252   6.136  11.536 -2.6512 -0.5913 -2.0825
14566TIP3   OH265188   3.147   4.177  11.854 -0.0900 -0.2241 -0.0161
14566TIP3    H165189   3.219   4.121  11.826 -1.6209 -0.9956 -2.5852
14566TIP3    H265190   3.118   4.222  11.775  0.0369  3.0158  1.7025
14567TIP3   OH265191   1.326   1.477   5.976 -0.6487 -0.1588  0.7394
14567TIP3    H165192   1.244   1.520   5.951  0.3151  1.9736  1.1917
14567TIP3    H265193   1.361   1.442   5.895 -1.2647  0.2356  0.3025
14568TIP3   OH265194   5.316   0.552   4.681 -0.0173  0.1479  0.0863
14568TIP3    H165195   5.278   0.571   4.767 -0.9200 -3.0517  0.4479
14568TIP3    H265196   5.401   0.513   4.699  0.7436  1.4531 -0.5690
14569TIP3   OH265197   0.574   4.483   5.688 -0.1337 -0.6854  0.6932
14569TIP3    H165198   0.633   4.410   5.673 -0.2049 -0.8707  1.2963
14569TIP3    H265199   0.573   4.531   5.605 -0.0452 -1.3338  0.3176
14570TIP3   OH265200   5.235   6.781  14.621  0.1251  0.0017  0.2888
14570TIP3    H165201   5.303   6.783  14.554  1.1804  0.1625  1.3424
14570TIP3    H265202   5.262   6.712  14.681 -0.9167 -0.2754  0.4630
14571TIP3   OH265203   3.739   2.749   2.869 -0.6390  0.5344 -0.2713
14571TIP3    H165204   3.764   2.676   2.925 -1.1737  0.2311 -0.4211
14571TIP3    H265205   3.643   2.743   2.864 -0.3120 -2.4126 -5.2988
14572TIP3   OH265206   0.065   2.554   0.836  0.1894  0.4987  0.2323
14572TIP3    H165207   0.066   2.546   0.741  0.6377 -2.6634  0.4367
14572TIP3    H265208   0.158   2.564   0.860  0.0924  1.1231  0.3631
14573TIP3   OH265209   0.463   0.626  16.421 -0.4745 -0.1278  0.4202
14573TIP3    H165210   0.370   0.612  16.438 -0.8482  1.4985 -0.1965
14573TIP3    H265211   0.468   0.715  16.386  1.2962 -0.2572  0.2959
14574TIP3   OH265212   0.640   3.954   3.905 -1.0781 -0.2758  0.1358
14574TIP3    H165213   0.695   3.993   3.973 -0.5974  0.3843 -0.6271
14574TIP3    H265214   0.595   4.028   3.865 -0.8578 -0.5889 -0.7031
14575TIP3   OH265215   0.591   1.088  12.628  0.0716 -0.2550  0.0139
14575TIP3    H165216   0.509   1.057  12.588  0.3180 -1.4640  0.4090
14575TIP3    H265217   0.577   1.075  12.722  0.6745 -0.3568  0.0892
14576TIP3   OH265218   4.842   5.793  11.885  0.7113  0.6017  0.4942
14576TIP3    H165219   4.897   5.867  11.858  0.3281  1.3095  1.5701
14576TIP3    H265220   4.756   5.833  11.900  0.5194 -0.0574  1.1439
14577TIP3   OH265221   5.491   3.507   2.768  0.5581 -0.0688  0.6449
14577TIP3    H165222   5.403   3.470   2.758  0.1948  1.1002 -0.8650
14577TIP3    H265223   5.479   3.581   2.828  0.6707 -0.4544  1.1379
14578TIP3   OH265224   2.864   3.248  14.822 -0.2542  0.4912 -0.5189
14578TIP3    H165225   2.839   3.284  14.907 -0.7584 -0.1202 -0.4064
14578TIP3    H265226   2.785   3.206  14.789  0.9300 -2.7112  0.4879
14579TIP3   OH265227   2.696   0.929   2.747 -0.1332  0.3122 -0.0933
14579TIP3    H165228   2.705   0.966   2.835 -4.0786  0.4074  0.3796
14579TIP3    H265229   2.640   0.853   2.759  2.3707 -1.9180 -2.0471
14580TIP3   OH265230   1.955   6.524  14.899 -0.0306  0.0224  0.2300
14580TIP3    H165231   2.030   6.579  14.919  0.8410 -1.4320  1.0789
14580TIP3    H265232   1.980   6.437  14.931 -1.4810 -0.8038 -0.7985
14581TIP3   OH265233   2.385   5.072  11.443  0.4101  0.0043  0.0547
14581TIP3    H165234   2.391   5.166  11.459  0.4903  0.1807 -0.9473
14581TIP3    H265235   2.452   5.055  11.376  2.3412 -1.2579  2.2034
14582TIP3   OH265236   0.022   2.821  16.948  0.3911  0.4364  0.5404
14582TIP3    H165237  -0.030   2.746  16.976 -0.2857  0.0580 -1.6592
14582TIP3    H265238  -0.040   2.877  16.901  1.9673 -0.0775 -2.2295
14583TIP3   OH265239   3.864   2.009   3.975  0.1052 -0.0190  0.6605
14583TIP3    H165240   3.820   1.932   3.938  0.1921 -0.0265  0.5738
14583TIP3    H265241   3.930   2.033   3.910  0.4123 -0.1719  0.9122
14584TIP3   OH265242   5.971   5.137  16.974 -0.3169 -0.1953  0.0433
14584TIP3    H165243   5.965   5.051  17.014 -0.8838 -0.0821  0.1957
14584TIP3    H265244   6.006   5.194  17.043 -2.8275  0.3491  0.8939
14585TIP3   OH265245   5.183   5.507   1.631 -0.0461 -0.1282  0.4191
14585TIP3    H165246   5.278   5.510   1.624 -0.0091  0.3959  1.0862
14585TIP3    H265247   5.157   5.432   1.577  0.8029 -0.7095  0.8008
14586TIP3   OH265248   5.788   1.305  11.772  0.4742 -0.2131  0.5549
14586TIP3    H165249   5.750   1.244  11.835 -1.6242  1.1352  0.6357
14586TIP3    H265250   5.816   1.380  11.825  1.9258 -0.5587  0.3008
14587TIP3   OH265251   4.275   2.896  13.161 -0.2791 -0.0427  0.4407
14587TIP3    H165252   4.364   2.913  13.191 -1.0072  3.3543  0.9211
14587TIP3    H265253   4.233   2.982  13.162 -2.8516 -1.1917 -2.1232
14588TIP3   OH265254   5.837   0.574   6.422  0.5282  0.2326 -0.0278
14588TIP3    H165255   5.869   0.495   6.466  1.6569 -0.6472 -2.3008
14588TIP3    H265256   5.759   0.545   6.375 -0.1291  0.9244  0.6424
14589TIP3   OH265257   2.809   6.651   4.862  0.1352  0.1819  0.0449
14589TIP3    H165258   2.719   6.680   4.848 -0.2725 -0.8565  0.5059
14589TIP3    H265259   2.862   6.718   4.819 -0.8891  0.1976 -1.2330
14590TIP3   OH265260   1.788   1.442   3.047  0.4254  0.3284 -0.2208
14590TIP3    H165261   1.851   1.461   2.978  0.5176  0.2298 -0.1625
14590TIP3    H265262   1.833   1.464   3.128  0.4813 -0.0062 -0.1620
14591TIP3   OH265263   6.131   0.310   5.986  0.0553 -0.0936 -0.0008
14591TIP3    H165264   6.102   0.252   5.915 -0.8144 -0.1914  0.4258
14591TIP3    H265265   6.199   0.364   5.946 -0.4558 -0.1134 -0.9215
14592TIP3   OH265266   2.594   2.803   6.360 -0.4134  0.1791 -0.1770
14592TIP3    H165267   2.641   2.840   6.286 -0.1553 -0.7509 -0.4908
14592TIP3    H265268   2.605   2.708   6.350  0.0032  0.0641  1.2995
14593TIP3   OH265269   0.982   5.430   3.473  0.1371  0.0012  0.2718
14593TIP3    H165270   1.041   5.355   3.468 -1.1510 -1.1648  2.0314
14593TIP3    H265271   0.917   5.413   3.405  0.2946 -0.0747  0.1383
14594TIP3   OH265272   0.256   3.676  10.747  0.2527 -0.0069 -0.0155
14594TIP3    H165273   0.174   3.642  10.782 -0.0719 -0.8460 -1.5431
14594TIP3    H265274   0.320   3.607  10.764 -0.4206 -1.5278 -3.1797
14595TIP3   OH265275   6.665   0.703  16.787 -0.2448 -0.4673 -0.2638
14595TIP3    H165276   6.673   0.756  16.866 -1.9881  1.7761 -1.5195
14595TIP3    H265277   6.716   0.750  16.721 -2.0030 -0.1971 -1.4665
14596TIP3   OH265278   2.138   2.905   3.111 -0.1561 -0.7861  0.0642
14596TIP3    H165279   2.065   2.860   3.153  0.8212 -1.4180  1.1032
14596TIP3    H265280   2.136   2.874   3.020 -0.4666 -1.6864  0.3709
14597TIP3   OH265281   6.742   1.851  11.835 -0.1793 -0.3967 -0.4561
14597TIP3    H165282   6.810   1.902  11.791  0.3922 -1.2207 -0.5308
14597TIP3    H265283   6.680   1.828  11.766  0.9706 -2.1118 -0.9574
14598TIP3   OH265284   1.614   4.652   5.225  0.2032  0.3898  0.4175
14598TIP3    H165285   1.605   4.732   5.277 -0.8146  0.6087 -0.0732
14598TIP3    H265286   1.637   4.584   5.288  2.6766  1.3752  0.6240
14599TIP3   OH265287   1.396   2.967  15.009  0.6492 -0.4937  0.4140
14599TIP3    H165288   1.393   2.981  15.104 -0.6167 -1.1824  0.4816
14599TIP3    H265289   1.318   2.916  14.990  1.7795 -1.8280 -0.7772
14600TIP3   OH265290   3.238   4.182   0.005  0.5230 -0.2096 -0.3279
14600TIP3    H165291   3.291   4.103   0.017  0.4214 -0.2070  0.1383
14600TIP3    H265292   3.298   4.254   0.025  0.5992 -0.1688 -0.6972
14601TIP3   OH265293   3.982   6.565  10.380  0.5269 -0.1012  0.2478
14601TIP3    H165294   3.933   6.640  10.347 -0.5641 -0.6163  0.6829
14601TIP3    H265295   4.025   6.528  10.302  0.6982  0.6917 -0.0369
14602TIP3   OH265296   3.212   0.468  14.370  0.3772 -0.1029 -0.2842
14602TIP3    H165297   3.279   0.465  14.301 -0.5776 -1.9130 -1.1664
14602TIP3    H265298   3.187   0.377  14.383 -1.5054  0.4965  0.4516
14603TIP3   OH265299   1.120   1.292   5.810  0.0316  0.6028  0.3072
14603TIP3    H165300   1.182   1.355   5.771 -0.1569  0.1648 -0.6916
14603TIP3    H265301   1.167   1.209   5.808 -0.3175  0.4114  0.2130
14604TIP3   OH265302   1.760   5.479  12.294 -0.3424 -0.1384 -0.4548
14604TIP3    H165303   1.761   5.383  12.290 -1.8979 -0.2035  0.4785
14604TIP3    H265304   1.754   5.499  12.387 -0.0002  0.8671 -0.6506
14605TIP3   OH265305   0.601   0.872   1.190 -0.1364 -0.1975  0.2577
14605TIP3    H165306   0.650   0.796   1.159  0.5234  0.9228 -1.5746
14605TIP3    H265307   0.640   0.893   1.275  1.1741 -0.5759 -0.2388
14606TIP3   OH265308   4.258   3.633  14.511  0.0075 -0.0262  0.3220
14606TIP3    H165309   4.227   3.717  14.546 -0.1310 -0.6472  1.7476
14606TIP3    H265310   4.326   3.606  14.572 -0.5648 -1.3716  0.3842
14607TIP3   OH265311   5.328   5.281  16.574  0.1987  0.1007  0.5766
14607TIP3    H165312   5.235   5.298  16.586  0.1330  0.4305 -0.3857
14607TIP3    H265313   5.369   5.313  16.655 -0.3736  1.1983  0.4423
14608TIP3   OH265314   5.868   5.663  15.695 -0.6458  0.0834  0.4472
14608TIP3    H165315   5.806   5.592  15.675 -0.6869 -0.0993  1.2135
14608TIP3    H265316   5.821   5.719  15.757 -0.7308  0.9612 -0.3877
14609TIP3   OH265317   4.777   6.141  12.243 -0.0536  0.1925 -0.0972
14609TIP3    H165318   4.804   6.065  12.295 -1.5109  1.3985  2.5442
14609TIP3    H265319   4.699   6.112  12.196  0.0995 -0.3153 -0.0401
14610TIP3   OH265320   3.653   2.612  10.611  0.0819 -0.0140  0.3143
14610TIP3    H165321   3.600   2.548  10.563 -2.2101  1.5311  0.6717
14610TIP3    H265322   3.649   2.582  10.702  0.1890 -0.1552  0.2727
14611TIP3   OH265323   4.370   1.437   0.312  0.3912 -0.5521 -0.6996
14611TIP3    H165324   4.444   1.472   0.262  0.5397 -1.3698 -1.0508
14611TIP3    H265325   4.293   1.464   0.262  0.4221  0.5762 -0.1663
14612TIP3   OH265326   3.751   4.652   4.378 -0.2852  0.1713  0.0944
14612TIP3    H165327   3.773   4.644   4.470  1.6163  1.3739 -0.2251
14612TIP3    H265328   3.771   4.743   4.356 -0.8339 -0.0669 -1.4732
14613TIP3   OH265329   0.008   5.552   5.873 -0.9568  0.6184  0.1158
14613TIP3    H165330   0.018   5.568   5.967  0.2397 -0.3947  0.1711
14613TIP3    H265331  -0.085   5.530   5.862 -1.0049  0.2878  1.1299
14614TIP3   OH265332   5.551   1.147  14.872  0.4780 -0.1400  0.6648
14614TIP3    H165333   5.498   1.087  14.820  1.5806 -0.1324 -0.5038
14614TIP3    H265334   5.614   1.091  14.918  1.0127  0.0426  0.1663
14615TIP3   OH265335   4.318   2.495  17.175 -0.2413 -0.4310  0.3518
14615TIP3    H165336   4.230   2.457  17.167 -0.2218 -0.0679 -2.1520
14615TIP3    H265337   4.359   2.444  17.245 -2.0271 -1.4417  0.7138
14616TIP3   OH265338   6.599   3.137   5.507  0.1054 -0.1792  0.4864
14616TIP3    H165339   6.534   3.122   5.439 -1.1339  0.7932  1.4342
14616TIP3    H265340   6.559   3.104   5.588  0.7378  0.5142  1.0977
14617TIP3   OH265341   0.931   0.752   2.580 -0.7664  0.1444  0.2602
14617TIP3    H165342   0.851   0.769   2.629 -1.2146  2.0494 -1.1029
14617TIP3    H265343   0.906   0.764   2.489  0.9953  0.3959 -0.2049
14618TIP3   OH265344   1.289   6.010   2.626 -0.2706  0.0379 -0.6065
14618TIP3    H165345   1.355   5.954   2.584  2.5861  1.5205  1.7374
14618TIP3    H265346   1.256   5.957   2.699 -0.7810 -0.2473 -1.0448
14619TIP3   OH265347   5.550   6.736  14.891  0.2763 -0.7989  0.0445
14619TIP3    H165348   5.641   6.718  14.915 -0.1056 -2.1184  0.5018
14619TIP3    H265349   5.523   6.805  14.951  0.8534 -0.6663  0.1585
14620TIP3   OH265350   2.935   3.289   3.529 -0.2644  0.3618  0.5333
14620TIP3    H165351   3.004   3.294   3.463 -0.3383  0.8792  0.4970
14620TIP3    H265352   2.970   3.335   3.605 -1.1759  2.0005 -0.0208
14621TIP3   OH265353   4.718   6.043   2.890  0.0080 -0.5138  0.2170
14621TIP3    H165354   4.730   5.951   2.870 -0.3182 -0.6872  0.7940
14621TIP3    H265355   4.627   6.050   2.920 -0.5025  0.2990 -1.4767
14622TIP3   OH265356   0.636   2.079   5.454  0.5179  0.7837  0.5348
14622TIP3    H165357   0.556   2.049   5.411  0.0402 -0.2075  2.0591
14622TIP3    H265358   0.680   2.133   5.389 -1.0676  0.7879 -0.5529
14623TIP3   OH265359   0.153   4.595   2.162 -0.5375 -0.6700 -0.6561
14623TIP3    H165360   0.149   4.546   2.080 -1.5729 -0.4609 -0.7405
14623TIP3    H265361   0.069   4.578   2.204 -0.2716 -0.2508  0.0613
14624TIP3   OH265362   1.999   6.009  14.840  0.0003  0.1490  0.0083
14624TIP3    H165363   2.082   5.971  14.812  1.2811  2.0037  1.2701
14624TIP3    H265364   1.944   6.006  14.761  1.1972 -1.1955 -0.7987
14625TIP3   OH265365   1.192   0.163  15.618  0.6366  0.2167  0.1498
14625TIP3    H165366   1.114   0.215  15.634 -0.4013 -1.2184 -0.1729
14625TIP3    H265367   1.165   0.073  15.636  2.2301 -0.2816  0.1067
14626TIP3   OH265368   3.081   2.419  17.182 -0.0309  0.2378 -0.1141
14626TIP3    H165369   3.004   2.365  17.196  0.7540 -1.7744 -3.1361
14626TIP3    H265370   3.047   2.504  17.154 -1.1855  0.2163  1.1899
14627TIP3   OH265371   5.915   5.558  13.201 -0.2025 -0.2828 -0.0080
14627TIP3    H165372   5.957   5.619  13.139  0.2698  0.5097  1.0661
14627TIP3    H265373   5.823   5.558  13.176 -0.1139  0.4732 -0.3485
14628TIP3   OH265374   3.734   5.264   2.840 -0.2605 -1.1647 -0.3177
14628TIP3    H165375   3.647   5.225   2.831  0.1761 -1.8843 -1.5030
14628TIP3    H265376   3.768   5.227   2.922 -1.3507 -0.2984  0.5467
14629TIP3   OH265377   5.997   5.411   4.803 -0.8102  0.2370 -0.2421
14629TIP3    H165378   6.047   5.367   4.872 -0.2408 -2.2346 -2.1657
14629TIP3    H265379   5.967   5.492   4.843  1.9421  0.2052  2.0083
14630TIP3   OH265380   5.454   2.572  15.667 -0.0856 -0.4816  0.5515
14630TIP3    H165381   5.449   2.648  15.725  1.5288  0.9622 -1.1186
14630TIP3    H265382   5.417   2.602  15.584  1.9053 -1.0013 -0.5757
14631TIP3   OH265383   4.967   4.088  11.007  0.0598  0.2312  0.0136
14631TIP3    H165384   4.894   4.075  10.945  0.0736 -0.2810  0.0989
14631TIP3    H265385   4.969   4.182  11.022 -0.4467  0.2733 -0.1630
14632TIP3   OH265386   6.474   2.342  15.543 -0.6356  0.5428  0.1089
14632TIP3    H165387   6.496   2.409  15.479 -3.1022  1.2695 -0.0074
14632TIP3    H265388   6.532   2.360  15.617  0.2014  1.4765 -0.7587
14633TIP3   OH265389   6.355   6.632   6.105 -0.5237  1.1144  0.2093
14633TIP3    H165390   6.393   6.717   6.127  0.4711  0.5952  0.5486
14633TIP3    H265391   6.326   6.596   6.189 -0.9672  1.1276  0.0640
14634TIP3   OH265392   3.742   1.476   4.134 -0.0962 -0.6318 -0.3427
14634TIP3    H165393   3.731   1.383   4.154  0.3958 -0.0222  2.9827
14634TIP3    H265394   3.655   1.505   4.107 -1.1440 -1.2905  2.1662
14635TIP3   OH265395   3.271   1.594  10.526 -0.0613 -0.0460  0.2623
14635TIP3    H165396   3.346   1.538  10.548  0.2345 -0.0975 -0.8471
14635TIP3    H265397   3.232   1.615  10.611  0.1187 -1.5182  0.7260
14636TIP3   OH265398   1.409   3.903  16.099  0.3604  0.0555  0.4910
14636TIP3    H165399   1.346   3.975  16.100  0.6686  0.3326 -0.1163
14636TIP3    H265400   1.453   3.910  16.015 -0.2680 -1.4259  0.0191
14637TIP3   OH265401   1.273   0.561  14.071 -0.0409  0.1902  0.2274
14637TIP3    H165402   1.291   0.468  14.084 -0.2773  0.2989  1.4041
14637TIP3    H265403   1.221   0.564  13.991  2.4272 -0.4009 -1.4569
14638TIP3   OH265404   0.259   1.494   6.382  0.6430 -0.5776 -0.0682
14638TIP3    H165405   0.342   1.515   6.339  1.0687 -0.6837  0.6810
14638TIP3    H265406   0.271   1.404   6.414 -0.1559 -0.9778 -0.8750
14639TIP3   OH265407   3.209   3.924  10.470 -0.0146  0.1768 -0.0797
14639TIP3    H165408   3.246   3.976  10.541  0.3464 -0.8483  0.5010
14639TIP3    H265409   3.284   3.879  10.431 -0.3748 -0.2868 -0.2493
14640TIP3   OH265410   1.684   0.069   2.342  0.1470 -0.4354 -0.0436
14640TIP3    H165411   1.691   0.152   2.294  1.8299  1.2256  2.9517
14640TIP3    H265412   1.771   0.056   2.381 -0.5765 -2.7996  0.8896
14641TIP3   OH265413   6.512   4.240  11.536  0.3128  0.7094 -0.2868
14641TIP3    H165414   6.513   4.164  11.594  0.8952  1.4312  0.6627
14641TIP3    H265415   6.419   4.257  11.519  0.1951 -0.4474 -0.8200
14642TIP3   OH265416   2.104   1.668  16.186  0.0017 -0.0077  0.0795
14642TIP3    H165417   2.059   1.679  16.270 -2.4253  1.4909 -1.3324
14642TIP3    H265418   2.149   1.752  16.171  0.0881 -0.1170 -0.2890
14643TIP3   OH265419   1.275   1.345  15.553 -0.3047  0.3441  0.2380
14643TIP3    H165420   1.202   1.365  15.494 -0.7161  0.9337  0.9498
14643TIP3    H265421   1.347   1.400  15.523  0.0940 -0.7702 -0.9318
14644TIP3   OH265422   0.855   4.311   0.891 -0.1081  0.0508  0.0740
14644TIP3    H165423   0.915   4.317   0.817 -0.7180  0.5862 -0.3786
14644TIP3    H265424   0.790   4.247   0.865  0.6490 -1.0643  0.8505
14645TIP3   OH265425   0.777   6.446  15.175 -0.3707  0.0348  0.3138
14645TIP3    H165426   0.838   6.510  15.139 -0.4279  0.3300  0.7417
14645TIP3    H265427   0.709   6.437  15.108  1.1399 -1.7429 -1.0404
14646TIP3   OH265428   6.163   2.361  14.925  0.1688 -0.4167 -0.3700
14646TIP3    H165429   6.154   2.396  15.014 -0.2975 -0.4110 -0.4191
14646TIP3    H265430   6.255   2.378  14.902 -0.5643  2.7555 -1.2166
14647TIP3   OH265431   4.367   2.410  12.940 -0.2150 -0.1704  0.4426
14647TIP3    H165432   4.285   2.378  12.978  0.2509 -0.1033  1.5026
14647TIP3    H265433   4.424   2.333  12.938 -0.0877 -0.0722  0.2777
14648TIP3   OH265434   4.461   3.206  14.356  0.5075  0.0864 -0.6774
14648TIP3    H165435   4.474   3.151  14.432  1.3375 -1.5581 -1.9741
14648TIP3    H265436   4.368   3.231  14.359  0.2306 -1.0195  0.1638
14649TIP3   OH265437   1.728   4.304  12.260  0.1452  0.3893 -0.4017
14649TIP3    H165438   1.794   4.293  12.328 -0.2024 -2.7319 -0.4874
14649TIP3    H265439   1.777   4.320  12.180  0.6317  1.6436  0.1303
14650TIP3   OH265440   6.479   5.481  14.941 -1.0798  0.2342  0.4450
14650TIP3    H165441   6.491   5.429  15.021  0.5705 -1.4426 -0.8180
14650TIP3    H265442   6.491   5.417  14.870  0.4228  2.2448 -1.1650
14651TIP3   OH265443   0.415   2.584  15.301 -0.1370  0.3049  0.3308
14651TIP3    H165444   0.453   2.527  15.367  0.1728 -0.8856 -0.8696
14651TIP3    H265445   0.322   2.561  15.301 -0.1187  0.2330  0.2657
14652TIP3   OH265446   5.043   0.532  14.060  0.0160 -0.8759  0.0194
14652TIP3    H165447   4.949   0.534  14.079 -0.0344  2.7574 -0.3177
14652TIP3    H265448   5.049   0.552  13.966  1.0836 -3.1690 -0.4611
14653TIP3   OH265449   4.017   4.778  11.736 -0.0580  0.1059  0.3768
14653TIP3    H165450   3.980   4.734  11.659 -0.5325  0.1070  0.5994
14653TIP3    H265451   4.108   4.795  11.713  0.3825 -1.8141  0.6170
14654TIP3   OH265452   5.391   5.707  15.691 -0.1369  0.1510 -0.4004
14654TIP3    H165453   5.380   5.615  15.716 -0.9440  0.8182  1.8032
14654TIP3    H265454   5.356   5.757  15.765 -0.3908  2.2464 -1.8864
14655TIP3   OH265455   5.172   0.452  16.122  0.0982 -0.4133  0.0533
14655TIP3    H165456   5.081   0.423  16.117 -0.1875  0.5087 -0.2551
14655TIP3    H265457   5.184   0.479  16.213  0.1441 -0.7886  0.1576
14656TIP3   OH265458   3.140   2.921  15.865 -0.5357  0.4282  0.1726
14656TIP3    H165459   3.079   2.870  15.918 -0.5976 -0.3563 -0.6339
14656TIP3    H265460   3.145   2.874  15.782  0.2511  1.1419 -0.1988
14657TIP3   OH265461   0.788   5.756  11.979  0.1158 -0.3940 -0.6555
14657TIP3    H165462   0.732   5.812  12.032 -0.4273 -0.6778 -0.9228
14657TIP3    H265463   0.730   5.721  11.911  0.8208  0.0171 -1.4754
14658TIP3   OH265464   3.866   4.527   5.523 -0.0770  0.4824 -0.1153
14658TIP3    H165465   3.945   4.475   5.537 -0.4172  0.2702  1.0367
14658TIP3    H265466   3.898   4.617   5.514  0.2669  0.4456  0.7103
14659TIP3   OH265467   4.935   4.865  17.023  0.0066  0.5205 -1.0679
14659TIP3    H165468   4.942   4.905  17.110  0.5806  0.3323 -1.0226
14659TIP3    H265469   5.014   4.894  16.978  0.2137 -0.2269 -1.1829
14660TIP3   OH265470   4.979   4.105  16.221 -0.1443  0.1639 -0.0161
14660TIP3    H165471   4.918   4.048  16.267  0.9770 -0.0375  1.2694
14660TIP3    H265472   5.035   4.142  16.291  0.2344  1.5031 -0.9981
14661TIP3   OH265473   6.658   3.546  14.602 -0.5567 -0.1430  0.0980
14661TIP3    H165474   6.583   3.490  14.623 -1.3322  0.8315 -0.0661
14661TIP3    H265475   6.620   3.628  14.571  0.5445  1.2596  2.3112
14662TIP3   OH265476   0.166   1.178   5.551  0.6395 -0.6300  0.0412
14662TIP3    H165477   0.189   1.087   5.534  0.6188 -0.6008 -0.1478
14662TIP3    H265478   0.097   1.174   5.617  1.3696 -0.7070  0.8103
14663TIP3   OH265479   6.094   3.322   1.011 -0.0754  0.0138 -0.4177
14663TIP3    H165480   6.104   3.240   0.963  0.4759 -0.2936  0.2161
14663TIP3    H265481   6.019   3.307   1.069  1.6389 -0.9828  1.6005
14664TIP3   OH265482   4.491   0.538   6.494 -0.0588  0.3702  0.2949
14664TIP3    H165483   4.409   0.496   6.471  0.0476 -0.1287  0.8154
14664TIP3    H265484   4.534   0.555   6.410 -1.6270  2.5611 -0.0994
14665TIP3   OH265485   0.409   2.506   5.929  0.1643 -0.1108 -0.3946
14665TIP3    H165486   0.493   2.509   5.977  0.3506  0.2519 -0.7410
14665TIP3    H265487   0.377   2.596   5.932 -1.1127 -0.5815  1.3099
14666TIP3   OH265488   6.299   6.107  10.945 -0.3948 -0.0465 -0.4078
14666TIP3    H165489   6.210   6.096  10.912  0.3176 -0.2023 -2.3060
14666TIP3    H265490   6.338   6.020  10.939 -0.0066  0.0897  0.1144
14667TIP3   OH265491   6.724   1.285   1.753 -0.2196 -0.1480 -0.2120
14667TIP3    H165492   6.669   1.223   1.800 -0.6809 -0.1148 -0.7116
14667TIP3    H265493   6.694   1.371   1.782 -1.3571 -0.0909 -1.5122
14668TIP3   OH265494   6.802   3.541  11.634 -0.1006 -0.5028 -0.0039
14668TIP3    H165495   6.894   3.554  11.611 -0.5130 -0.9231 -1.9752
14668TIP3    H265496   6.778   3.621  11.681  1.5757 -0.9015  1.6361
14669TIP3   OH265497   4.828   1.480  13.740 -0.0406  0.4282 -0.1206
14669TIP3    H165498   4.921   1.489  13.718  0.2109  2.5764  1.6289
14669TIP3    H265499   4.798   1.570  13.753 -1.7440 -0.3748  1.7767
14670TIP3   OH265500   5.624   2.974  12.379  0.0423  0.3566 -0.3314
14670TIP3    H165501   5.634   3.008  12.290  0.7618 -0.3048 -0.5126
14670TIP3    H265502   5.578   3.043  12.426  0.9063  1.3038 -0.8539
14671TIP3   OH265503   0.495   4.629  12.301 -0.0546  0.1978  0.0868
14671TIP3    H165504   0.544   4.675  12.232 -0.5126  1.3163  0.4883
14671TIP3    H265505   0.503   4.686  12.378 -0.3722 -0.5602  0.6898
14672TIP3   OH265506   3.813   4.742  15.511  0.4200 -0.0702 -0.9384
14672TIP3    H165507   3.864   4.739  15.429 -1.3039 -1.1098 -1.9895
14672TIP3    H265508   3.733   4.788  15.487  0.3878  0.6056  0.4599
14673TIP3   OH265509   5.097   3.403  12.914 -0.2384  0.3722  0.4190
14673TIP3    H165510   5.092   3.345  12.990 -0.6386  2.1829  1.7966
14673TIP3    H265511   5.155   3.358  12.853 -1.1958 -1.8768  1.1073
14674TIP3   OH265512   3.022   0.902   3.288 -0.6079  0.2566  0.1778
14674TIP3    H165513   2.928   0.916   3.295 -0.5315  1.2244 -0.5881
14674TIP3    H265514   3.053   0.973   3.232  0.5191 -0.2827  0.0914
14675TIP3   OH265515   1.301   3.315   0.988  0.0684  0.3385  0.2832
14675TIP3    H165516   1.245   3.393   0.983 -0.6160 -0.2131 -1.0647
14675TIP3    H265517   1.343   3.311   0.902  0.3857 -0.5728  0.4840
14676TIP3   OH265518   1.946   2.606  13.464 -0.6392 -0.0228 -0.7131
14676TIP3    H165519   1.905   2.543  13.404 -1.4002 -1.6275  1.4352
14676TIP3    H265520   2.016   2.646  13.412  0.1378 -2.9337 -2.0016
14677TIP3   OH265521   0.971   5.395   2.581 -0.2556 -0.4259  0.4290
14677TIP3    H165522   0.980   5.485   2.549 -1.8645 -0.4483 -0.1115
14677TIP3    H265523   0.936   5.346   2.507  0.5328 -1.4841  0.7486
14678TIP3   OH265524   5.274   4.403   0.562 -0.0346  0.2119  0.2330
14678TIP3    H165525   5.361   4.379   0.529  1.0658  1.1561  2.3390
14678TIP3    H265526   5.224   4.322   0.559 -0.0226  0.2543 -3.7564
14679TIP3   OH265527   0.115   5.159   5.156 -0.3695 -0.2062  0.0047
14679TIP3    H165528   0.137   5.066   5.156  0.3471 -0.0367 -0.5682
14679TIP3    H265529   0.047   5.167   5.223 -0.7330 -1.2107 -0.2330
14680TIP3   OH265530   0.061   3.743   4.172  0.4839 -0.1787 -0.0380
14680TIP3    H165531   0.001   3.702   4.235 -1.8676  1.1764 -1.3159
14680TIP3    H265532   0.091   3.822   4.216  2.0973 -1.3087  0.9592
14681TIP3   OH265533   4.100   1.724  12.965 -0.0897 -0.3816 -0.3482
14681TIP3    H165534   4.145   1.735  12.881 -0.3992  1.6439 -0.2751
14681TIP3    H265535   4.019   1.774  12.956 -0.5549 -0.8853  0.8610
14682TIP3   OH265536   0.144   3.855   2.719  0.2071 -0.3449 -0.0422
14682TIP3    H165537   0.179   3.779   2.765  0.7792 -0.5415 -0.7996
14682TIP3    H265538   0.218   3.889   2.669 -0.5637 -0.4972 -1.3113
14683TIP3   OH265539   3.202   1.844   5.665  0.2058  0.0563 -0.1408
14683TIP3    H165540   3.259   1.767   5.666  0.6136  0.3499 -0.6147
14683TIP3    H265541   3.161   1.845   5.751  1.9071  0.5888  0.6793
14684TIP3   OH265542   1.435   4.656  13.020 -0.4638 -0.1938 -0.0383
14684TIP3    H165543   1.398   4.673  13.106  2.4658 -2.1885  1.6854
14684TIP3    H265544   1.496   4.729  13.005  0.3835 -0.8219  0.3724
14685TIP3   OH265545   6.689   2.885   4.242  0.1252 -0.1487  0.0416
14685TIP3    H165546   6.750   2.920   4.176  1.3496  0.4710  1.4843
14685TIP3    H265547   6.664   2.799   4.207  0.4410  0.3357 -1.4401
14686TIP3   OH265548   4.845   5.498   5.663 -0.3548 -0.0747  0.0409
14686TIP3    H165549   4.848   5.430   5.731 -2.0689 -0.1136  0.1077
14686TIP3    H265550   4.845   5.580   5.712  1.2088 -0.0250 -0.0225
14687TIP3   OH265551   6.540   6.692   4.938  0.2907  0.3557 -0.0849
14687TIP3    H165552   6.534   6.778   4.897  1.6541 -0.0732 -1.2416
14687TIP3    H265553   6.620   6.695   4.990  0.5297 -0.3170 -0.4044
14688TIP3   OH265554   5.421   0.767   4.920  0.4206  0.7725  0.2086
14688TIP3    H165555   5.454   0.695   4.974  1.2521  0.7113 -0.3630
14688TIP3    H265556   5.335   0.737   4.890  1.5507 -0.8362 -1.5736
14689TIP3   OH265557   6.583   2.275   6.228 -0.6045  0.2135 -0.4561
14689TIP3    H165558   6.523   2.341   6.261  0.2880  1.5268 -1.3897
14689TIP3    H265559   6.585   2.290   6.133  1.2810  0.3077 -0.4318
14690TIP3   OH265560   6.487   3.196  12.533 -0.6473  1.0993  0.5676
14690TIP3    H165561   6.405   3.153  12.558 -0.3971 -0.8102 -1.6930
14690TIP3    H265562   6.553   3.154  12.587 -0.5494 -0.7598 -0.9220
14691TIP3   OH265563   1.756   5.190  11.910 -0.0848 -0.3794 -0.6165
14691TIP3    H165564   1.697   5.265  11.917 -0.9349 -1.0817  0.0592
14691TIP3    H265565   1.792   5.195  11.822 -0.0773  0.8524 -0.5566
14692TIP3   OH265566   0.768   6.667  16.515 -0.2033  0.3031 -1.0720
14692TIP3    H165567   0.755   6.753  16.473 -1.7608  0.5009 -0.2081
14692TIP3    H265568   0.855   6.640  16.486  0.9859  2.8974 -0.1102
14693TIP3   OH265569   1.666   0.456   3.250  0.5932 -0.1112 -0.5809
14693TIP3    H165570   1.589   0.491   3.295  0.8484  0.0215 -0.2481
14693TIP3    H265571   1.675   0.367   3.283  1.0585  0.1427 -0.0106
14694TIP3   OH265572   1.232   2.236   2.198  0.3289  0.1329 -0.7323
14694TIP3    H165573   1.170   2.192   2.139 -0.2383 -2.3464  1.6417
14694TIP3    H265574   1.316   2.233   2.151 -0.5288 -0.0458 -2.2709
14695TIP3   OH265575   5.344   2.226  16.773  0.2786  0.2706 -0.3340
14695TIP3    H165576   5.292   2.221  16.693 -1.5952 -0.6330  0.8830
14695TIP3    H265577   5.431   2.196  16.747 -0.8208 -1.9823 -1.6334
14696TIP3   OH265578   3.494   6.281   1.435 -0.2136  0.0255  0.1737
14696TIP3    H165579   3.482   6.190   1.462 -0.4341  0.0811  0.2616
14696TIP3    H265580   3.453   6.286   1.349  1.5796 -0.4595 -0.7254
14697TIP3   OH265581   6.181   5.539   4.126 -0.1575  0.2445 -0.3529
14697TIP3    H165582   6.161   5.485   4.202  0.8821 -0.1360 -0.3389
14697TIP3    H265583   6.225   5.616   4.161 -0.6540  0.5865 -0.4744
14698TIP3   OH265584   5.326   5.361   5.262 -0.3868  0.5517  0.2313
14698TIP3    H165585   5.323   5.339   5.169 -2.1521  0.7768  0.2197
14698TIP3    H265586   5.345   5.278   5.306 -0.9826  0.1687 -0.2304
14699TIP3   OH265587   6.430   1.037  14.441 -0.1560 -0.2464 -0.3950
14699TIP3    H165588   6.516   1.077  14.456  0.0855 -0.5613 -0.9414
14699TIP3    H265589   6.368   1.102  14.472  0.2692  0.0931 -0.2441
14700TIP3   OH265590   1.960   0.941   4.715  0.0154 -0.0677 -0.3459
14700TIP3    H165591   1.914   0.937   4.631  1.5211  0.6876 -1.2233
14700TIP3    H265592   1.898   0.904   4.778 -1.9172  1.1941 -1.4507
14701TIP3   OH265593   2.994   0.994  11.694  0.4645  0.0361  0.7937
14701TIP3    H165594   2.999   0.944  11.776  1.5082 -0.2498  0.5732
14701TIP3    H265595   3.083   0.988  11.658 -0.0531 -0.0761 -0.4948
14702TIP3   OH265596   1.932   4.386  14.739 -0.5236 -0.0470 -0.1559
14702TIP3    H165597   2.019   4.426  14.743 -0.2039 -0.7806  0.1972
14702TIP3    H265598   1.892   4.407  14.824  0.4023 -2.1933  0.8394
14703TIP3   OH265599   3.126   4.233  12.111 -0.3107 -0.2681  0.6533
14703TIP3    H165600   3.141   4.199  12.022 -2.8394 -1.5193  0.6372
14703TIP3    H265601   3.199   4.292  12.127  0.7497 -0.8136 -1.8764
14704TIP3   OH265602   2.938   1.868  12.731 -0.3432  0.0386 -0.5697
14704TIP3    H165603   2.918   1.780  12.765  0.0854  0.4997  0.9215
14704TIP3    H265604   2.857   1.917  12.744  0.1556  0.5121  0.7921
14705TIP3   OH265605   3.824   4.674  11.199  0.0380 -0.1837  0.5680
14705TIP3    H165606   3.856   4.704  11.114  1.5962 -1.3520  0.7024
14705TIP3    H265607   3.826   4.752  11.254 -1.0899  0.6016 -0.4929
14706TIP3   OH265608   0.997   6.548   0.669 -0.3263 -0.0555  0.2927
14706TIP3    H165609   0.930   6.596   0.622 -0.5776  1.2967  1.9756
14706TIP3    H265610   1.078   6.568   0.623 -0.4108  2.0876  0.9976
14707TIP3   OH265611   5.564   6.470  15.374  0.4185  0.3306 -0.0506
14707TIP3    H165612   5.622   6.394  15.368 -0.6173 -0.4429 -0.3727
14707TIP3    H265613   5.593   6.527  15.302  0.3698 -0.3395 -0.6114
14708TIP3   OH265614   1.252   2.861   1.934  0.4173 -0.5214 -0.2288
14708TIP3    H165615   1.184   2.797   1.914  1.2051 -1.0684 -1.2328
14708TIP3    H265616   1.330   2.808   1.949  0.4791  0.0613  1.6028
14709TIP3   OH265617   4.435   3.905   6.445  0.6909 -0.1549 -0.2105
14709TIP3    H165618   4.482   3.916   6.528 -1.6896  1.2904  1.0246
14709TIP3    H265619   4.457   3.817   6.416 -0.1784 -1.5659  3.1412
14710TIP3   OH265620   2.469   3.739  17.031 -1.1719  0.0751 -0.2774
14710TIP3    H165621   2.507   3.826  17.023  1.5015 -1.1561 -1.6800
14710TIP3    H265622   2.411   3.730  16.956 -0.2989  0.1304 -0.9732
14711TIP3   OH265623   1.047   5.417  14.244  0.5556 -0.3299  0.2936
14711TIP3    H165624   0.961   5.376  14.234  0.9374 -0.9526 -0.4906
14711TIP3    H265625   1.104   5.346  14.275  0.9662 -0.1206  0.0185
14712TIP3   OH265626   4.902   5.697   5.240  0.1052 -0.2871  0.2819
14712TIP3    H165627   4.890   5.757   5.313 -1.7505 -0.6899  0.3470
14712TIP3    H265628   4.846   5.622   5.261  2.4646 -2.1083  0.2579
14713TIP3   OH265629   2.042   1.544  12.766  0.2760 -0.1121  0.1127
14713TIP3    H165630   2.009   1.634  12.761  0.8565  0.1578  1.0029
14713TIP3    H265631   1.972   1.495  12.808 -0.7723 -0.4605 -1.9491
14714TIP3   OH265632   3.129   0.310   4.915 -0.2684 -0.2617 -0.2095
14714TIP3    H165633   3.061   0.372   4.886  0.8679  0.1839 -2.0113
14714TIP3    H265634   3.089   0.224   4.900 -0.6840  0.0006 -0.6651
14715TIP3   OH265635   0.524   2.372  12.257 -0.2819  0.5359 -0.0327
14715TIP3    H165636   0.578   2.427  12.202 -1.1349 -0.9361 -2.4300
14715TIP3    H265637   0.465   2.327  12.196 -0.9866 -1.4558  2.0325
14716TIP3   OH265638   6.545   4.030  15.485 -0.1132  0.0432 -0.6535
14716TIP3    H165639   6.567   4.074  15.568  0.3985  0.0984 -0.8185
14716TIP3    H265640   6.458   4.062  15.464  0.6121  1.6969 -1.2415
14717TIP3   OH265641   4.046   5.692  15.334 -0.5722  0.1489  0.1744
14717TIP3    H165642   4.018   5.638  15.260  0.2413 -1.0151  0.7039
14717TIP3    H265643   3.990   5.665  15.406  0.6096 -0.8599  0.7457
14718TIP3   OH265644   5.743   6.114  14.472 -0.0163 -0.2263  0.0304
14718TIP3    H165645   5.792   6.132  14.392  2.4721  0.8544  1.7427
14718TIP3    H265646   5.755   6.193  14.526 -2.2795 -0.6164  1.1740
14719TIP3   OH265647   3.451   2.803   2.876  0.3032  0.2845  0.3091
14719TIP3    H165648   3.401   2.783   2.796  1.0657 -0.1616 -0.0608
14719TIP3    H265649   3.451   2.899   2.881  1.1122  0.3473 -0.7830
14720TIP3   OH265650   1.570   5.958   2.434 -0.0240  0.2953 -0.3273
14720TIP3    H165651   1.540   5.895   2.369 -0.2391 -2.4138  2.2632
14720TIP3    H265652   1.663   5.939   2.446 -0.3665 -0.4453  1.3734
14721TIP3   OH265653   2.008   2.179  12.977  0.3172 -0.3480 -0.2361
14721TIP3    H165654   2.036   2.147  12.891  0.6625  3.8936 -1.8027
14721TIP3    H265655   1.922   2.217  12.961  0.4707  0.6504  1.2769
14722TIP3   OH265656   0.037   2.733  16.414 -0.4715 -0.1583  0.4000
14722TIP3    H165657   0.064   2.724  16.506 -0.3362 -0.1654  0.3586
14722TIP3    H265658   0.070   2.819  16.388  1.5080 -1.1136 -0.3262
14723TIP3   OH265659   4.527   2.622  11.015  0.4024  0.0765 -0.4644
14723TIP3    H165660   4.560   2.590  10.931  0.8624  1.6897 -0.9059
14723TIP3    H265661   4.605   2.642  11.066  0.1222 -0.8492  0.3575
14724TIP3   OH265662   0.932   5.750  14.809  0.1793  0.7124  0.5121
14724TIP3    H165663   1.010   5.797  14.837 -0.6771  2.0256  0.7519
14724TIP3    H265664   0.861   5.790  14.860 -0.5081 -1.1984  1.1109
14725TIP3   OH265665   6.324   2.074   3.911 -0.2407 -0.0642  0.0279
14725TIP3    H165666   6.412   2.108   3.897  0.1396 -0.6218  1.0440
14725TIP3    H265667   6.317   2.001   3.848  0.3473 -0.5851  0.5587
14726TIP3   OH265668   4.191   6.779   1.899  0.9671 -0.1124  0.4884
14726TIP3    H165669   4.227   6.694   1.874  2.3247  0.0389  1.8539
14726TIP3    H265670   4.186   6.776   1.994 -0.2424  0.8401  0.4594
14727TIP3   OH265671   3.106   3.887  13.278 -0.1301  0.0148 -0.1159
14727TIP3    H165672   3.020   3.846  13.278 -0.3196  0.3708  1.6351
14727TIP3    H265673   3.089   3.979  13.259 -0.1766  0.1195  0.4020
14728TIP3   OH265674   2.165   2.751  16.636  0.3297  0.3184 -0.1776
14728TIP3    H165675   2.214   2.683  16.589 -1.4610 -0.0678 -1.5552
14728TIP3    H265676   2.154   2.821  16.572  1.7946  1.7749  1.1103
14729TIP3   OH265677   4.368   6.233  12.332  0.0215  0.6238  0.2818
14729TIP3    H165678   4.307   6.225  12.259  0.0593  0.1681  0.3042
14729TIP3    H265679   4.312   6.250  12.408 -0.3227 -2.6238  0.8259
14730TIP3   OH265680   2.382   6.115   2.852  0.4046 -0.2607 -1.1871
14730TIP3    H165681   2.351   6.045   2.910  0.8096 -0.4066 -1.1465
14730TIP3    H265682   2.476   6.101   2.846  0.4625  0.1858 -1.3106
14731TIP3   OH265683   0.445   0.261   1.840  0.3737  0.1836  0.4488
14731TIP3    H165684   0.488   0.205   1.775  0.5301 -0.0762  0.7752
14731TIP3    H265685   0.517   0.311   1.880  0.5329 -1.1892  1.9053
14732TIP3   OH265686   2.040   6.007  16.409 -0.3339  0.0145  0.2820
14732TIP3    H165687   2.131   5.984  16.428 -0.1360 -0.4784 -1.2308
14732TIP3    H265688   2.039   6.025  16.315 -1.3908  1.9794  0.6325
14733TIP3   OH265689   6.625   4.472  14.847  0.7914  0.0986  0.1956
14733TIP3    H165690   6.589   4.554  14.813  0.1638  0.3686  1.4777
14733TIP3    H265691   6.719   4.487  14.851  0.7704  0.4308 -0.4330
14734TIP3   OH265692   2.916   2.498  12.800 -0.2382  0.4326  0.2489
14734TIP3    H165693   2.849   2.444  12.758  0.7256  0.6515 -1.6022
14734TIP3    H265694   2.939   2.450  12.879  0.1482 -1.5968 -1.0557
14735TIP3   OH265695   5.400   5.141   3.369 -0.2306  0.5857 -0.0260
14735TIP3    H165696   5.414   5.194   3.291 -0.8784 -1.3796 -1.5014
14735TIP3    H265697   5.306   5.123   3.370  0.0199 -0.7667  0.2918
14736TIP3   OH265698   5.233   5.568  11.059  0.3250 -0.3931  0.5281
14736TIP3    H165699   5.316   5.539  11.021 -0.6689 -2.0325 -0.4218
14736TIP3    H265700   5.167   5.545  10.995 -0.6330  3.4332  0.0158
14737TIP3   OH265701   4.136   4.946  13.670  0.2886  0.6781 -0.0691
14737TIP3    H165702   4.076   4.973  13.739 -0.1221  1.4443 -0.7289
14737TIP3    H265703   4.197   4.887  13.714 -1.7521 -1.2146  0.3192
14738TIP3   OH265704   1.236   5.971  13.841  0.2775 -0.1466  0.0207
14738TIP3    H165705   1.324   5.957  13.875  0.9438  0.7793 -1.2769
14738TIP3    H265706   1.189   6.015  13.913  0.1634 -2.7324  1.5709
14739TIP3   OH265707   4.495   3.002   2.528 -0.5427 -0.7131  0.0301
14739TIP3    H165708   4.472   3.080   2.579  3.1919  0.3538  0.2426
14739TIP3    H265709   4.462   3.021   2.440 -1.7853  0.0290  0.6311
14740TIP3   OH265710   1.988   1.516  11.996  0.0270  0.0431 -0.6655
14740TIP3    H165711   1.927   1.445  12.014  0.2290  0.0168 -0.0960
14740TIP3    H265712   1.947   1.566  11.925 -0.0648 -0.6988 -1.1396
14741TIP3   OH265713   0.491   4.836  12.517 -0.4639 -0.0533 -0.3967
14741TIP3    H165714   0.525   4.902  12.577 -0.3982 -0.5856  0.1543
14741TIP3    H265715   0.407   4.870  12.489 -0.0062  0.7089 -0.8438
14742TIP3   OH265716   3.628   4.793   3.328  0.2974  0.3374  0.2206
14742TIP3    H165717   3.599   4.792   3.419 -1.1975 -0.5802 -0.2515
14742TIP3    H265718   3.639   4.701   3.306  1.8007  0.5988 -0.1875
14743TIP3   OH265719   0.969   2.403  13.931  0.1024  0.2647  0.6360
14743TIP3    H165720   0.960   2.307  13.929  0.7262  0.1642  1.8631
14743TIP3    H265721   1.014   2.425  13.850  2.9924 -0.8481  1.8807
14744TIP3   OH265722   5.055   0.124  10.345  0.1983  0.1612 -0.3857
14744TIP3    H165723   4.970   0.133  10.303 -0.5554  1.0320  1.2966
14744TIP3    H265724   5.082   0.214  10.365  0.8274 -0.1989  0.4188
14745TIP3   OH265725   4.465   4.444   6.475 -0.1283  0.1676  0.2641
14745TIP3    H165726   4.497   4.419   6.388 -2.1645 -0.2226 -0.4029
14745TIP3    H265727   4.454   4.361   6.521  0.8090  0.3661  0.8474
14746TIP3   OH265728   0.993   4.191   4.223  0.1093  0.2029 -0.2197
14746TIP3    H165729   1.030   4.275   4.251  0.0948  0.7742 -1.8184
14746TIP3    H265730   1.070   4.134   4.212  0.1203 -0.0011  0.8494
14747TIP3   OH265731   2.793   2.459  16.395  0.1091  0.7125  0.0333
14747TIP3    H165732   2.808   2.518  16.321 -0.8549  0.0888 -0.6801
14747TIP3    H265733   2.876   2.456  16.442  0.9639  0.5153 -1.4732
14748TIP3   OH265734   4.672   0.668  14.160  0.1751 -0.2039 -0.1892
14748TIP3    H165735   4.738   0.661  14.229 -0.2904  1.1696  0.4145
14748TIP3    H265736   4.601   0.612  14.189  0.4099 -0.4315 -0.0521
14749TIP3   OH265737   4.466   3.096  14.979  0.7300  0.7535 -0.7040
14749TIP3    H165738   4.549   3.080  14.934  0.5230 -0.0117 -0.8112
14749TIP3    H265739   4.456   3.021  15.038  0.8793  1.6167  0.4458
14750TIP3   OH265740   1.278   4.206  15.064  0.0802 -0.2792 -0.0490
14750TIP3    H165741   1.209   4.270  15.082  0.4810  0.3643 -0.7956
14750TIP3    H265742   1.250   4.127  15.111  0.9936  1.2665  3.2930
14751TIP3   OH265743   3.304   0.857   1.007 -0.5040  0.4510  0.1542
14751TIP3    H165744   3.325   0.949   0.990 -1.1212  0.3997 -0.9283
14751TIP3    H265745   3.270   0.824   0.923  3.2695 -1.7813 -0.6469
14752TIP3   OH265746   3.097   5.580  11.640 -0.0549 -0.3527  0.1376
14752TIP3    H165747   3.024   5.642  11.640 -0.0625 -0.3584 -0.7520
14752TIP3    H265748   3.111   5.560  11.733 -1.3855 -0.5914  0.3003
14753TIP3   OH265749   3.870   0.566  13.918  0.2927 -0.6353  0.0822
14753TIP3    H165750   3.916   0.523  13.991  4.4367 -0.4561 -2.2640
14753TIP3    H265751   3.877   0.659  13.937  1.2360 -0.5949 -0.4353
14754TIP3   OH265752   2.253   0.741   0.436 -0.0885 -0.4984  0.2195
14754TIP3    H165753   2.295   0.718   0.519 -0.9495 -2.5721  0.1033
14754TIP3    H265754   2.162   0.760   0.459  0.4207  2.1872  0.2031
14755TIP3   OH265755   6.703   5.304  10.742  0.3891 -0.0471 -0.0561
14755TIP3    H165756   6.768   5.235  10.758 -0.7386 -0.7762  1.6222
14755TIP3    H265757   6.679   5.294  10.650  0.8316 -1.3805 -0.0353
14756TIP3   OH265758   3.914   1.974  16.962  0.1838 -0.7789  0.1309
14756TIP3    H165759   3.878   2.050  17.008 -0.5322 -0.1538 -1.4493
14756TIP3    H265760   3.862   1.900  16.996 -0.9847 -0.2013 -0.3562
14757TIP3   OH265761   3.231   0.045   1.153  0.7719 -0.0581 -0.2857
14757TIP3    H165762   3.281   0.070   1.230  0.3152 -0.4274  0.1308
14757TIP3    H265763   3.193   0.127   1.121 -1.7321 -0.3747  1.7856
14758TIP3   OH265764   6.361   4.219   2.776 -0.0359  0.2648  0.0675
14758TIP3    H165765   6.379   4.171   2.857 -2.1275  3.3808  2.4623
14758TIP3    H265766   6.280   4.180   2.743  0.4600 -0.5603 -0.1963
14759TIP3   OH265767   0.723   5.007  11.955 -0.1279  0.0488 -0.1834
14759TIP3    H165768   0.804   5.042  11.993  0.3452 -0.7651 -0.4308
14759TIP3    H265769   0.727   5.031  11.863  0.6892 -1.5140 -0.5760
14760TIP3   OH265770   2.530   6.385  16.429 -0.0262 -0.0968  0.1170
14760TIP3    H165771   2.575   6.395  16.346 -1.1420  0.2082 -0.4531
14760TIP3    H265772   2.497   6.295  16.428  0.7952 -0.4167  0.6616
14761TIP3   OH265773   4.491   3.276   2.509 -0.3662 -0.5428  0.1818
14761TIP3    H165774   4.448   3.341   2.565 -1.9920 -0.5809 -1.0085
14761TIP3    H265775   4.451   3.288   2.423  0.4189 -2.1067 -0.4112
14762TIP3   OH265776   6.436   1.535  11.640 -0.6368 -0.0393  0.0888
14762TIP3    H165777   6.469   1.625  11.648 -1.9924  0.1961  4.6473
14762TIP3    H265778   6.341   1.545  11.630 -0.6967 -0.9600 -0.3310
14763TIP3   OH265779   6.756   6.650  15.083 -0.6275  0.3745  0.4001
14763TIP3    H165780   6.809   6.584  15.038  0.4729  1.3851  0.2115
14763TIP3    H265781   6.684   6.669  15.022 -0.6554 -0.2511  0.2347
14764TIP3   OH265782   5.381   5.313   4.197 -0.2483  0.0481 -0.0875
14764TIP3    H165783   5.306   5.254   4.205 -1.7548  2.0397  0.9106
14764TIP3    H265784   5.402   5.312   4.103 -1.6943 -0.3697 -0.4276
14765TIP3   OH265785   2.955   1.713  11.277  0.1906 -0.1576 -0.3056
14765TIP3    H165786   2.966   1.803  11.309 -1.1873  0.4324 -1.4301
14765TIP3    H265787   2.867   1.711  11.241  0.8530 -1.4779 -1.9257
14766TIP3   OH265788   1.578   3.073   5.800  0.5901  0.1151 -0.4729
14766TIP3    H165789   1.526   3.058   5.879 -1.6526 -0.5472 -2.0263
14766TIP3    H265790   1.603   3.165   5.805  0.0708  0.2031  0.7819
14767TIP3   OH265791   2.022   3.047   5.753  0.4001  0.0215 -0.0815
14767TIP3    H165792   2.042   2.997   5.832 -0.1077  0.2761  0.2166
14767TIP3    H265793   1.968   2.989   5.701  2.9007 -1.1357 -1.4610
14768TIP3   OH265794   3.290   5.870   0.387 -0.0130  0.0168  0.2118
14768TIP3    H165795   3.298   5.789   0.336 -0.6623  0.3733 -0.4885
14768TIP3    H265796   3.315   5.939   0.325 -0.9911  0.4711  0.3126
14769TIP3   OH265797   1.072   3.035  13.457  0.2451 -0.4464 -0.3017
14769TIP3    H165798   1.061   3.120  13.415 -0.7967 -0.6473 -0.4384
14769TIP3    H265799   1.005   3.033  13.525  0.1229 -1.2561 -0.4468
14770TIP3   OH265800   1.682   0.841  16.071 -0.5392  0.0591  0.4288
14770TIP3    H165801   1.685   0.936  16.058 -0.4611  0.1502  1.0569
14770TIP3    H265802   1.628   0.808  16.000  0.5111  0.4339 -0.5448
14771TIP3   OH265803   5.604   2.545   2.414  0.1402 -0.0126  0.0946
14771TIP3    H165804   5.582   2.465   2.462 -0.7764 -0.5682 -1.2122
14771TIP3    H265805   5.679   2.581   2.460  1.1442 -2.1316  0.1618
14772TIP3   OH265806   5.766   5.482   0.763  0.5000  0.0320  0.0565
14772TIP3    H165807   5.713   5.541   0.709  0.2594  0.3329  0.6176
14772TIP3    H265808   5.704   5.420   0.800  0.2690  1.4614  2.1276
14773TIP3   OH265809   6.642   4.420  11.379  0.0474 -0.2655  0.9606
14773TIP3    H165810   6.595   4.367  11.443 -1.1846  0.2348  0.4861
14773TIP3    H265811   6.652   4.364  11.302 -4.6598  1.3592 -0.9896
14774TIP3   OH265812   1.072   0.681   4.200  0.5438 -0.3640 -0.4440
14774TIP3    H165813   1.130   0.605   4.203  1.5595  0.4546  1.5671
14774TIP3    H265814   1.129   0.755   4.219 -0.5155  0.8666 -2.0052
14775TIP3   OH265815   0.953   3.333  15.543 -0.0970 -0.1938 -0.9600
14775TIP3    H165816   1.016   3.352  15.612  0.1979 -0.8691 -1.0345
14775TIP3    H265817   0.986   3.378  15.466 -0.8885  1.2856 -0.4542
14776TIP3   OH265818   4.257   5.972  11.308  0.1715 -0.4643  0.9727
14776TIP3    H165819   4.177   5.933  11.273  1.0989 -1.4170 -0.1182
14776TIP3    H265820   4.321   5.901  11.307  1.2645  0.5030  1.0650
14777TIP3   OH265821   5.264   5.795  12.341 -0.4211 -0.3485 -0.3927
14777TIP3    H165822   5.298   5.869  12.290 -1.8368  1.1025  0.6795
14777TIP3    H265823   5.316   5.796  12.421 -1.0227  0.0472 -0.0026
14778TIP3   OH265824   4.465   0.528  14.225 -0.1499  0.0482  0.2115
14778TIP3    H165825   4.436   0.450  14.177 -0.2817  0.9242 -1.1853
14778TIP3    H265826   4.384   0.567  14.259 -0.0305 -0.7236  1.3914
14779TIP3   OH265827   0.052   3.138   0.338 -0.0130  0.3188 -0.0685
14779TIP3    H165828   0.083   3.049   0.321  2.7920  1.2834 -0.1690
14779TIP3    H265829  -0.043   3.132   0.329 -0.0560 -3.0454  1.6502
14780TIP3   OH265830   0.137   0.852   1.301  0.2263  0.4798  0.9499
14780TIP3    H165831   0.186   0.923   1.260  0.7625  0.7910  2.1073
14780TIP3    H265832   0.194   0.822   1.372 -0.9243  0.3120  1.8152
14781TIP3   OH265833   5.093   5.748   1.531 -0.0586  0.0006 -0.1173
14781TIP3    H165834   5.140   5.666   1.541 -0.9825 -0.4048  1.0011
14781TIP3    H265835   5.133   5.807   1.595 -0.0693  0.1220 -0.2208
14782TIP3   OH265836   6.058   1.559  12.924  0.4578 -0.0742  0.2147
14782TIP3    H165837   6.072   1.649  12.895 -0.8477  0.2076  0.4342
14782TIP3    H265838   6.137   1.538  12.974  2.0270 -0.0256 -2.1588
14783TIP3   OH265839   4.812   0.729   0.082  0.1094  0.0357 -0.5930
14783TIP3    H165840   4.753   0.682   0.140  0.6928 -0.3094 -0.2791
14783TIP3    H265841   4.766   0.812   0.064 -0.1104  0.1151  0.2909
14784TIP3   OH265842   4.464   5.446  15.599  0.1092  0.1482  0.1781
14784TIP3    H165843   4.373   5.473  15.589 -0.2969 -1.1584  0.2806
14784TIP3    H265844   4.506   5.520  15.644 -1.0592  0.4627  0.7750
14785TIP3   OH265845   0.290   3.375  13.272  0.0078 -0.0708 -0.3212
14785TIP3    H165846   0.256   3.417  13.193  0.3010 -1.6792 -1.3256
14785TIP3    H265847   0.272   3.282  13.259 -1.5742 -0.1917  2.3203
14786TIP3   OH265848   0.897   1.119   4.600  0.1174  0.6228  0.0274
14786TIP3    H165849   0.870   1.093   4.512  1.5327  1.2398 -0.6124
14786TIP3    H265850   0.928   1.209   4.589  0.4665  0.6392  1.1244
14787TIP3   OH265851   0.090   3.796   3.896  0.2589 -0.7006  0.6590
14787TIP3    H165852   0.090   3.769   3.988  1.1180 -0.9338  0.5928
14787TIP3    H265853  -0.003   3.801   3.873  0.0491 -1.5357  1.2761
14788TIP3   OH265854   1.770   3.265  16.950 -0.1755 -0.2155 -0.5849
14788TIP3    H165855   1.794   3.294  17.037 -1.0154 -0.0570 -0.4017
14788TIP3    H265856   1.823   3.318  16.891 -0.8306  0.8660 -0.2210
14789TIP3   OH265857   2.053   4.669  17.065 -0.7244 -0.2841  0.1830
14789TIP3    H165858   2.064   4.762  17.087 -1.3078 -0.1277 -0.1429
14789TIP3    H265859   2.000   4.633  17.136 -1.7929 -0.0036 -0.4539
14790TIP3   OH265860   1.170   6.600  11.731 -0.2922 -0.4107  0.0001
14790TIP3    H165861   1.232   6.530  11.750 -0.4068 -0.4972  0.0549
14790TIP3    H265862   1.207   6.644  11.655  0.3901  0.2076  0.6827
14791TIP3   OH265863   6.086   3.114  17.181  0.2103 -0.3546 -0.4097
14791TIP3    H165864   6.172   3.076  17.166  0.9065  0.2804  1.8186
14791TIP3    H265865   6.025   3.041  17.166  1.2237 -1.2084 -0.4735
14792TIP3   OH265866   3.512   0.869   3.232 -0.1136  0.1148 -0.3314
14792TIP3    H165867   3.428   0.840   3.197  0.1182  0.5368 -1.2371
14792TIP3    H265868   3.572   0.865   3.158  0.4437  0.7510  0.0813
14793TIP3   OH265869   5.676   2.851   6.030 -0.1486 -0.3009 -0.3544
14793TIP3    H165870   5.681   2.776   5.970 -0.8271 -0.4706 -0.2078
14793TIP3    H265871   5.589   2.889   6.014  0.5755  1.0555 -1.1363
14794TIP3   OH265872   3.947   1.611   4.835  0.0530 -0.5871 -0.8979
14794TIP3    H165873   3.944   1.627   4.740  1.4970  2.5845 -0.4824
14794TIP3    H265874   3.896   1.683   4.873  0.6209 -1.0649  0.8075
14795TIP3   OH265875   1.438   4.813  12.688  0.4335 -0.1719  0.3072
14795TIP3    H165876   1.465   4.877  12.622 -0.3782 -0.3810 -0.2286
14795TIP3    H265877   1.493   4.832  12.764  0.7260  0.6703 -0.1155
14796TIP3   OH265878   0.416   4.221   2.511  0.0271 -1.1041  0.4337
14796TIP3    H165879   0.321   4.227   2.523  0.2785 -0.5176  2.3350
14796TIP3    H265880   0.448   4.187   2.595  1.9137  2.7140  1.3645
14797TIP3   OH265881   0.766   2.923   5.012 -0.0438  0.1774 -0.4123
14797TIP3    H165882   0.762   2.842   4.962 -0.4844  0.5156 -0.9393
14797TIP3    H265883   0.790   2.990   4.947  2.4882  0.1376  0.4119
14798TIP3   OH265884   1.334   6.017  14.612 -0.0197 -0.4686 -0.1777
14798TIP3    H165885   1.362   5.927  14.596  0.5461 -0.4375  0.5620
14798TIP3    H265886   1.338   6.027  14.708  1.1753  0.7173 -0.3281
14799TIP3   OH265887   3.871   6.485   0.867  0.3170  0.0510 -0.1200
14799TIP3    H165888   3.856   6.477   0.961 -0.0412 -0.0371 -0.1810
14799TIP3    H265889   3.964   6.467   0.855  0.3296 -0.0928  0.1987
14800TIP3   OH265890   6.567   6.670   3.857  0.1720  0.3835  0.2045
14800TIP3    H165891   6.546   6.587   3.899  0.6020  0.6036  0.8682
14800TIP3    H265892   6.586   6.730   3.929  1.7071  0.5555 -0.3053
14801TIP3   OH265893   6.728   2.009  15.340 -0.7198  0.2377 -0.2892
14801TIP3    H165894   6.665   1.946  15.375 -1.3799  1.0486 -0.0016
14801TIP3    H265895   6.809   1.960  15.332 -0.9095 -0.3212  1.1090
14802TIP3   OH265896   1.587   3.728   2.187 -0.4107 -0.0184  0.1680
14802TIP3    H165897   1.542   3.706   2.105  0.4500  0.8202 -0.5474
14802TIP3    H265898   1.676   3.753   2.159  0.2417 -0.8277  1.4641
14803TIP3   OH265899   3.567   3.116  16.733  0.1437 -0.2905  0.2104
14803TIP3    H165900   3.480   3.080  16.713  0.5305 -1.6214  0.8342
14803TIP3    H265901   3.592   3.074  16.816  0.6835  1.3386  0.8946
14804TIP3   OH265902   3.746   4.813   2.095  0.9092  0.0476 -0.6380
14804TIP3    H165903   3.753   4.883   2.160  0.0161 -0.2376 -0.2132
14804TIP3    H265904   3.655   4.818   2.065  0.2084 -2.2161  0.9236
14805TIP3   OH265905   2.773   1.044  16.051  0.2253  0.4703 -0.4733
14805TIP3    H165906   2.789   1.031  15.957 -0.4551 -0.5343 -0.4590
14805TIP3    H265907   2.824   0.976  16.094 -0.1963  0.3442 -0.1681
14806TIP3   OH265908   0.537   1.381  14.113 -0.8207 -0.7969 -0.3975
14806TIP3    H165909   0.535   1.290  14.144 -0.9293 -0.8117 -0.4501
14806TIP3    H265910   0.533   1.434  14.192 -1.0589 -0.8348 -0.3842
14807TIP3   OH265911   4.763   1.656  12.836  0.4788 -0.4257 -0.7357
14807TIP3    H165912   4.833   1.691  12.891  1.3261 -2.4681 -0.4455
14807TIP3    H265913   4.725   1.586  12.889  0.1010 -1.2013 -2.0073
14808TIP3   OH265914   4.185   0.400  11.336  0.0155 -0.0805 -0.2951
14808TIP3    H165915   4.108   0.350  11.361  0.1005  0.2114  0.5909
14808TIP3    H265916   4.170   0.487  11.374  1.0356 -0.1864  0.3793
14809TIP3   OH265917   4.223   1.502  16.564  0.2105 -0.0101  0.0201
14809TIP3    H165918   4.180   1.586  16.582 -0.3272 -0.4737  0.9016
14809TIP3    H265919   4.228   1.458  16.649  2.3444 -0.0161 -0.0862
14810TIP3   OH265920   1.350   4.391  13.615 -0.3865  0.1806 -0.0905
14810TIP3    H165921   1.402   4.429  13.686  0.3325  0.1032 -0.5693
14810TIP3    H265922   1.402   4.317  13.585  0.1764  1.2744 -1.8950
14811TIP3   OH265923   0.673   2.656   5.794  0.1754  0.1964  0.3593
14811TIP3    H165924   0.746   2.676   5.734  0.4822 -1.9262 -0.0106
14811TIP3    H265925   0.610   2.609   5.739 -0.4659  0.0602  1.2133
14812TIP3   OH265926   5.710   2.672  10.643 -0.0438  0.1209  0.1463
14812TIP3    H165927   5.652   2.678  10.567  1.1899  0.6617 -0.7821
14812TIP3    H265928   5.732   2.763  10.663  0.0144 -0.0494  0.8442
14813TIP3   OH265929   0.017   2.304  15.878 -0.7977  0.1890 -0.0698
14813TIP3    H165930   0.106   2.321  15.845 -0.6995  0.2717  0.2404
14813TIP3    H265931   0.021   2.326  15.971 -1.2632  0.6188 -0.1499
14814TIP3   OH265932   0.001   1.229  16.904 -0.9291 -0.1393 -0.1114
14814TIP3    H165933   0.084   1.205  16.946  0.1232  0.9428 -1.5195
14814TIP3    H265934  -0.007   1.323  16.919 -1.5106 -0.0982 -0.6684
14815TIP3   OH265935   6.396   2.876  12.539  0.1390  0.3496  0.8026
14815TIP3    H165936   6.322   2.936  12.540  0.8373  1.2541  3.7880
14815TIP3    H265937   6.359   2.792  12.564  0.0173  0.6715  1.7111
14816TIP3   OH265938   1.905   1.489  14.151 -0.0057 -0.0141 -0.4445
14816TIP3    H165939   1.841   1.419  14.137 -0.7749  0.3132  1.3125
14816TIP3    H265940   1.917   1.491  14.246  2.0936  0.4066 -0.7011
14817TIP3   OH265941   3.888   0.416  16.023 -0.3582  0.2067  0.1856
14817TIP3    H165942   3.947   0.488  16.001  1.4433 -1.1978  0.2749
14817TIP3    H265943   3.863   0.378  15.939 -0.3817  0.2300  0.1827
14818TIP3   OH265944   2.380   0.477  17.133 -0.1062 -0.1476  0.3452
14818TIP3    H165945   2.329   0.424  17.072  2.9918 -0.6279 -1.9365
14818TIP3    H265946   2.354   0.567  17.113 -0.1137 -0.3846 -0.7822
14819TIP3   OH265947   4.602   6.813  11.737 -0.0047 -0.3132 -0.0881
14819TIP3    H165948   4.532   6.754  11.764 -1.6086  2.4283  2.1322
14819TIP3    H265949   4.560   6.899  11.732  2.6073  0.9496 -1.4837
14820TIP3   OH265950   1.713   6.220   5.454 -0.2920  0.4356  0.1743
14820TIP3    H165951   1.620   6.239   5.448 -0.1626  1.3041  0.7676
14820TIP3    H265952   1.755   6.289   5.402 -0.1026 -1.2785 -2.0126
14821TIP3   OH265953   6.545   1.150  15.932 -0.0593  0.1546 -0.3843
14821TIP3    H165954   6.637   1.132  15.914  0.1253 -2.5395  2.8096
14821TIP3    H265955   6.497   1.102  15.864  0.8240 -1.2625 -0.0253
14822TIP3   OH265956   3.936   6.487  14.609 -0.2379 -0.6241  0.6621
14822TIP3    H165957   3.955   6.402  14.570 -0.9249 -0.4439 -0.0871
14822TIP3    H265958   3.977   6.550  14.549 -0.5255 -0.3871  0.7112
14823TIP3   OH265959   5.344   6.365  11.545  0.0832 -0.4409  0.5171
14823TIP3    H165960   5.320   6.275  11.567 -1.8600 -0.0726 -0.0039
14823TIP3    H265961   5.262   6.404  11.515  0.8958  1.5387  0.8547
14824TIP3   OH265962   6.363   1.470   4.857 -0.4596  0.0277 -0.5138
14824TIP3    H165963   6.440   1.524   4.840 -0.6549 -0.0123 -1.6087
14824TIP3    H265964   6.383   1.423   4.938  0.7951 -0.2359 -0.9647
14825TIP3   OH265965   2.713   1.689   1.569  0.4298  0.4605 -0.6837
14825TIP3    H165966   2.698   1.668   1.662  1.4316 -1.3798 -0.9179
14825TIP3    H265967   2.714   1.785   1.566  4.1898  0.5835  1.8312
14826TIP3   OH265968   3.006   4.817  13.778 -0.6320 -0.7714 -0.3883
14826TIP3    H165969   2.988   4.726  13.803  0.1538 -1.2368 -1.4157
14826TIP3    H265970   3.046   4.809  13.691 -3.5882  0.7779 -1.9638
14827TIP3   OH265971   2.987   1.774   5.890 -0.1584  0.3367  0.0975
14827TIP3    H165972   3.025   1.693   5.857  0.4216  0.5745  0.1781
14827TIP3    H265973   3.059   1.818   5.935 -0.9377 -0.0154  1.7462
14828TIP3   OH265974   2.191   4.258   4.144  0.0069 -0.0415 -0.1988
14828TIP3    H165975   2.102   4.231   4.165  0.1574 -1.2806 -1.0739
14828TIP3    H265976   2.245   4.183   4.170  0.6219  0.0877 -1.0791
14829TIP3   OH265977   2.408   4.761  14.628 -0.6830  0.0556 -0.1025
14829TIP3    H165978   2.315   4.781  14.643 -1.4698 -3.2697  0.0273
14829TIP3    H265979   2.409   4.714  14.545  0.8703  0.0185 -0.0696
14830TIP3   OH265980   4.130   0.229  15.366  0.6020 -0.2395  0.6060
14830TIP3    H165981   4.173   0.234  15.451 -1.0000  0.3520  1.4052
14830TIP3    H265982   4.091   0.141  15.364  2.3695 -1.0506 -0.4141
14831TIP3   OH265983   2.710   5.165   4.384  1.0153  0.3376 -0.1362
14831TIP3    H165984   2.699   5.163   4.479  1.6799  1.5346 -0.0309
14831TIP3    H265985   2.655   5.094   4.352  2.1702 -1.2405  1.2831
14832TIP3   OH265986   2.074   2.562   4.537  0.3663  0.3017 -0.7561
14832TIP3    H165987   2.042   2.592   4.622  1.7143  0.5650 -0.3240
14832TIP3    H265988   2.010   2.596   4.474 -0.5532  0.2512  0.1294
14833TIP3   OH265989   2.040   4.254   5.265  0.0505 -0.6082 -0.1509
14833TIP3    H165990   1.958   4.239   5.220  0.0869 -0.3684 -0.3006
14833TIP3    H265991   2.018   4.248   5.358 -0.6938  2.1132 -0.1051
14834TIP3   OH265992   0.212   6.448   5.710 -0.0729  0.2850 -0.4633
14834TIP3    H165993   0.247   6.462   5.798 -1.5119  2.6988 -0.2017
14834TIP3    H265994   0.125   6.412   5.724  0.5714 -1.5199 -0.9845
14835TIP3   OH265995   4.470   4.495   1.718  0.6536  0.4993 -0.1085
14835TIP3    H165996   4.516   4.416   1.746 -2.4287 -0.3367  2.9967
14835TIP3    H265997   4.454   4.544   1.799 -1.1642  2.2354 -1.4500
14836TIP3   OH265998   2.095   5.944  17.192 -0.0185  0.2540  0.4115
14836TIP3    H165999   2.155   5.994  17.246 -1.6004  0.7096  1.7580
14836TIP3    H266000   2.078   5.864  17.242 -0.6581  0.1966  0.1090
14837TIP3   OH266001   1.355   3.484  15.932 -0.5610 -0.2810 -0.5036
14837TIP3    H166002   1.349   3.392  15.960 -2.1502  0.1897  0.7740
14837TIP3    H266003   1.435   3.516  15.974 -0.2505 -0.9465 -0.5752
14838TIP3   OH266004   3.482   5.001   3.845  0.3887 -0.4762  0.3189
14838TIP3    H166005   3.437   4.922   3.814 -0.3191 -0.4225  1.1988
14838TIP3    H266006   3.414   5.052   3.889  0.9585  0.3881  0.2141
14839TIP3   OH266007   5.830   2.045   1.519 -0.3904 -0.0100 -0.3197
14839TIP3    H166008   5.816   2.038   1.425  0.1956  2.2229 -0.5801
14839TIP3    H266009   5.783   1.970   1.555 -1.7570 -0.1281 -2.2676
14840TIP3   OH266010   3.002   1.839   0.451 -0.0059  0.2253  0.0170
14840TIP3    H166011   2.926   1.791   0.484  0.2895 -0.6068 -0.5062
14840TIP3    H266012   3.064   1.840   0.524 -0.5829  1.0658  0.5065
14841TIP3   OH266013   3.304   2.817   1.002 -0.3275  0.3246  0.3921
14841TIP3    H166014   3.294   2.887   1.066  0.7007 -1.7854  3.0071
14841TIP3    H266015   3.296   2.859   0.917  2.4170  3.9776  1.8050
14842TIP3   OH266016   2.853   5.485  15.326  0.7833 -0.4183  0.5621
14842TIP3    H166017   2.920   5.419  15.311 -0.1829 -1.5489  1.1755
14842TIP3    H266018   2.901   5.568  15.325  1.8229 -0.9852 -1.5385
14843TIP3   OH266019   3.683   2.864  14.686 -0.3929 -0.1161 -0.5058
14843TIP3    H166020   3.591   2.867  14.713 -1.0845  2.4916 -2.9143
14843TIP3    H266021   3.714   2.954  14.697  0.8432 -0.1981 -3.0772
14844TIP3   OH266022   5.548   3.243   4.199  0.2233 -0.1313  0.1253
14844TIP3    H166023   5.461   3.248   4.238 -0.5883 -0.5209 -1.6314
14844TIP3    H266024   5.570   3.333   4.176  2.2462  0.7067  4.6948
14845TIP3   OH266025   2.834   3.414  12.819  0.3748 -0.3518 -0.2203
14845TIP3    H166026   2.739   3.407  12.831  0.3684  0.9475  0.6201
14845TIP3    H266027   2.871   3.375  12.898  0.5075  0.4371  0.1107
14846TIP3   OH266028   2.877   5.842  12.738  0.2929 -0.6659 -0.4161
14846TIP3    H166029   2.831   5.926  12.746 -2.6593 -2.1993 -0.4672
14846TIP3    H266030   2.920   5.830  12.822  1.4075  1.2430 -0.6816
14847TIP3   OH266031   6.617   6.289   1.458  0.0818 -0.1204 -0.0712
14847TIP3    H166032   6.619   6.228   1.532 -0.2898  1.2664  1.1055
14847TIP3    H266033   6.618   6.376   1.499  2.2333  0.6969 -1.7371
14848TIP3   OH266034   1.882   1.638   0.245 -0.3554 -0.2367  0.0971
14848TIP3    H166035   1.928   1.700   0.189 -1.2491 -0.2174 -0.6260
14848TIP3    H266036   1.866   1.562   0.188 -0.5545 -0.5424  0.5576
14849TIP3   OH266037   0.960   5.162  12.067 -0.0432 -0.7330  0.6091
14849TIP3    H166038   1.016   5.155  11.990 -0.5772 -1.7220  0.3030
14849TIP3    H266039   1.010   5.122  12.138  1.0390  1.4578  1.1121
14850TIP3   OH266040   6.072   6.024  15.125  0.1886  0.1717  0.4051
14850TIP3    H166041   6.006   6.044  15.057 -1.8708 -0.3140  2.1962
14850TIP3    H266042   6.059   5.931  15.143  2.7639 -0.4212 -0.6082
14851TIP3   OH266043   2.069   0.644   5.671 -0.5567 -0.0555  0.7127
14851TIP3    H166044   2.104   0.558   5.694  0.5291  0.7568  2.1758
14851TIP3    H266045   2.115   0.668   5.591  1.1415  0.3445  1.7948
14852TIP3   OH266046   6.284   0.218  12.098  0.3692 -0.0191  0.3601
14852TIP3    H166047   6.322   0.165  12.028  0.3399 -0.3991  0.6293
14852TIP3    H266048   6.207   0.258  12.059  2.5115  2.9251 -1.0285
14853TIP3   OH266049   0.162   1.182   4.135 -0.3565 -0.3135 -0.2343
14853TIP3    H166050   0.107   1.115   4.178 -1.3796 -0.5185 -1.8302
14853TIP3    H266051   0.162   1.158   4.043  2.4226 -0.2852 -0.2921
14854TIP3   OH266052   6.008   4.810  15.660  0.3853  0.0581 -0.2106
14854TIP3    H166053   6.010   4.888  15.716  0.3423 -2.3027  3.1815
14854TIP3    H266054   6.068   4.749  15.701  0.8734 -1.5456 -3.1597
14855TIP3   OH266055   3.534   1.656   5.172 -0.1898  0.0501  0.6255
14855TIP3    H166056   3.577   1.737   5.145 -0.9585  1.1835  2.7279
14855TIP3    H266057   3.444   1.666   5.140 -0.8844  1.0379  2.8413
14856TIP3   OH266058   1.329   6.490  16.378 -0.5275 -0.3185 -0.1066
14856TIP3    H166059   1.267   6.502  16.306  0.7065 -1.7864 -1.4543
14856TIP3    H266060   1.402   6.441  16.339  0.6670 -0.1790  1.8758
14857TIP3   OH266061   2.593   6.653  12.993  0.1797 -0.3267  0.3059
14857TIP3    H166062   2.665   6.706  13.027  0.0383 -0.2469  0.4887
14857TIP3    H266063   2.534   6.643  13.068  1.0510 -2.2191  0.7695
14858TIP3   OH266064   4.332   0.131  11.410 -0.3047 -0.4056  0.0655
14858TIP3    H166065   4.364   0.167  11.493 -1.4153  0.0864  0.2964
14858TIP3    H266066   4.397   0.065  11.386  0.3338 -0.1466  1.0311
14859TIP3   OH266067   5.944   1.921  11.197  0.2804 -1.0936 -0.0326
14859TIP3    H166068   5.996   2.001  11.190  2.1100 -2.2801 -0.6902
14859TIP3    H266069   5.955   1.878  11.111  0.3522 -2.6217  0.7177
14860TIP3   OH266070   1.942   2.096  10.582 -0.5629 -0.3279  0.8611
14860TIP3    H166071   2.014   2.121  10.640 -0.3551 -0.3996  0.6359
14860TIP3    H266072   1.889   2.175  10.573  1.5347  0.8244 -1.9738
14861TIP3   OH266073   1.336   4.003  16.925 -0.2429  0.0040  0.2306
14861TIP3    H166074   1.273   4.015  16.996 -0.7544  1.9698 -0.5261
14861TIP3    H266075   1.420   3.989  16.969 -0.3357  2.4291  1.2578
14862TIP3   OH266076   3.351   6.189   5.310  0.0464 -0.2436 -0.2343
14862TIP3    H166077   3.277   6.248   5.293 -0.2092 -0.1981  1.0032
14862TIP3    H266078   3.317   6.102   5.289 -0.7431 -0.3565  1.4711
14863TIP3   OH266079   1.516   4.030  13.276 -0.4412  0.4660  0.2654
14863TIP3    H166080   1.585   4.094  13.257 -0.0481 -0.5619 -1.8988
14863TIP3    H266081   1.537   3.955  13.220 -1.5811 -1.0930  1.8817
14864TIP3   OH266082   1.147   0.800   2.819  0.2501 -0.2764  0.5841
14864TIP3    H166083   1.161   0.711   2.851 -0.0773  0.6749  3.4959
14864TIP3    H266084   1.061   0.797   2.776  0.8584 -1.6607 -0.5731
14865TIP3   OH266085   5.734   5.787  16.270  0.0246 -0.5313 -0.3827
14865TIP3    H166086   5.823   5.773  16.238  0.2278 -0.3169  0.0799
14865TIP3    H266087   5.693   5.701  16.269  0.7934 -0.9319  1.0446
14866TIP3   OH266088   3.046   1.787  16.837  0.5938 -0.0075 -0.1273
14866TIP3    H166089   3.023   1.723  16.770  1.9744  1.3091 -1.9015
14866TIP3    H266090   3.109   1.741  16.893  0.8064 -0.5530 -0.8005
14867TIP3   OH266091   5.840   0.607  15.885  0.7161 -0.7179  0.1941
14867TIP3    H166092   5.839   0.668  15.812  0.4914  0.6528  1.3249
14867TIP3    H266093   5.747   0.587  15.901  0.6379  0.5140  1.3497
14868TIP3   OH266094   0.747   0.791  16.535 -0.0061  0.0104  0.3152
14868TIP3    H166095   0.828   0.837  16.558 -0.6261  1.2961 -0.0563
14868TIP3    H266096   0.769   0.698  16.546  0.5044  0.4504  3.5559
14869TIP3   OH266097   0.244   6.763   0.344  0.3454  0.5088 -0.3540
14869TIP3    H166098   0.189   6.691   0.313 -0.9222  0.1758  2.5613
14869TIP3    H266099   0.315   6.720   0.392  0.4522  1.1522  0.0650
14870TIP3   OH266100   1.657   4.619  14.860  0.2143  0.4783  0.6029
14870TIP3    H166101   1.584   4.612  14.921 -0.0010  1.0741  0.4176
14870TIP3    H266102   1.616   4.644  14.777  0.5626  0.2100  0.3507
14871TIP3   OH266103   3.085   6.226   1.616  0.2095 -0.3519 -0.4040
14871TIP3    H166104   3.163   6.241   1.670  0.0029  0.2213 -0.2586
14871TIP3    H266105   3.057   6.138   1.640  0.2467 -0.1875  0.2793
14872TIP3   OH266106   0.209   4.624  10.350  0.4201  1.0958 -0.1752
14872TIP3    H166107   0.128   4.601  10.396  0.9617 -0.1146  0.2166
14872TIP3    H266108   0.263   4.545  10.358  1.4515  1.7324 -0.8324
14873TIP3   OH266109   4.310   4.223   3.919  0.1475 -0.4450 -0.4723
14873TIP3    H166110   4.273   4.169   3.988  1.0398  1.4109  1.5394
14873TIP3    H266111   4.384   4.172   3.886  0.3199 -0.9354  0.6362
14874TIP3   OH266112   4.143   1.580   0.194  0.6694 -0.1763  0.2270
14874TIP3    H166113   4.186   1.663   0.215 -0.0170  0.3548 -0.4099
14874TIP3    H266114   4.081   1.567   0.266  1.3449 -0.5600  0.7512
14875TIP3   OH266115   4.936   1.111   4.902 -0.3847  0.0513  0.3909
14875TIP3    H166116   4.913   1.151   4.986  0.4403  0.1856  0.5637
14875TIP3    H266117   4.853   1.088   4.862 -0.8056  0.5020  1.0010
14876TIP3   OH266118   5.494   0.068  11.174 -0.0028 -0.6977 -0.4219
14876TIP3    H166119   5.539   0.125  11.112  1.6130 -2.2727 -0.7193
14876TIP3    H266120   5.539   0.083  11.257 -0.8948 -0.0646 -0.0358
14877TIP3   OH266121   3.400   2.879  16.536  0.0360 -0.2643 -0.4397
14877TIP3    H166122   3.347   2.944  16.580 -0.2140 -0.9277  0.2559
14877TIP3    H266123   3.339   2.809  16.513  0.5070 -0.7988 -0.0959
14878TIP3   OH266124   2.209   1.678  11.492 -0.2615  0.0865  0.6055
14878TIP3    H166125   2.177   1.711  11.408  2.1157  2.1773  0.4655
14878TIP3    H266126   2.236   1.588  11.474 -0.2177  0.3679 -0.7763
14879TIP3   OH266127   2.595   3.313  15.888  0.3002  0.5976  0.0221
14879TIP3    H166128   2.504   3.338  15.872  0.8774  1.5632 -1.9383
14879TIP3    H266129   2.637   3.394  15.917  0.8009  0.4460 -0.2714
14880TIP3   OH266130   1.778   2.364  16.321 -0.6443 -0.0260  0.3585
14880TIP3    H166131   1.808   2.274  16.338 -2.8360 -1.7302 -3.8749
14880TIP3    H266132   1.683   2.355  16.312 -1.0476  3.0086  1.3156
14881TIP3   OH266133   6.169   4.094   1.108  0.6645  0.5265  0.0307
14881TIP3    H166134   6.220   4.170   1.138  3.5217 -1.8256  1.3903
14881TIP3    H266135   6.223   4.055   1.039 -1.6140  0.6466 -1.9056
14882TIP3   OH266136   5.405   1.521  17.120  0.1522  0.0805  0.2555
14882TIP3    H166137   5.342   1.477  17.063  1.8509 -1.9379 -0.1328
14882TIP3    H266138   5.417   1.461  17.193 -0.7807  1.9246  1.9622
14883TIP3   OH266139   4.606   0.414   5.191 -0.3518 -0.4151 -0.0325
14883TIP3    H166140   4.655   0.419   5.109  2.1642  0.5073  1.4870
14883TIP3    H266141   4.593   0.505   5.216 -0.1609 -0.7069  1.1374
14884TIP3   OH266142   4.667   5.507   2.109 -0.1126  0.0182 -0.0917
14884TIP3    H166143   4.701   5.562   2.179 -1.1890  0.5325  0.0317
14884TIP3    H266144   4.723   5.528   2.033 -0.5177  1.2941 -0.0537
14885TIP3   OH266145   1.168   6.137  13.595  0.2444  0.0877 -0.0983
14885TIP3    H166146   1.212   6.113  13.676  1.8921  0.1782 -0.9471
14885TIP3    H266147   1.209   6.219  13.568 -2.7231  1.9109  0.7908
14886TIP3   OH266148   2.689   3.208   3.463 -0.3240  0.0946 -0.2871
14886TIP3    H166149   2.634   3.276   3.425 -1.6657 -0.4582  0.6303
14886TIP3    H266150   2.758   3.256   3.510 -0.4750  0.7929 -0.7669
14887TIP3   OH266151   5.748   3.991  15.789 -0.1436  0.0536 -0.0171
14887TIP3    H166152   5.817   3.970  15.852 -0.3116  0.0927  0.1806
14887TIP3    H266153   5.702   3.908  15.774  1.2787 -0.4446 -1.7755
14888TIP3   OH266154   4.043   3.465  16.860  0.1699  0.2960 -0.3425
14888TIP3    H166155   4.115   3.494  16.804 -0.6723  0.6253 -1.2663
14888TIP3    H266156   4.081   3.460  16.948  1.7933 -1.2546 -1.1058
14889TIP3   OH266157   5.206   3.736  16.828  0.2619 -0.1450 -0.5806
14889TIP3    H166158   5.220   3.828  16.848  1.4604 -0.3600 -0.3731
14889TIP3    H266159   5.255   3.689  16.896 -1.8312 -0.9630  0.4016
14890TIP3   OH266160   2.785   0.235  12.806  1.2707 -0.2160  0.0153
14890TIP3    H166161   2.856   0.211  12.746  1.5956  0.8788 -0.0514
14890TIP3    H266162   2.829   0.254  12.889  1.2242  1.7918 -0.3909
14891TIP3   OH266163   4.209   5.845   1.533  0.0061 -0.2247  0.3702
14891TIP3    H166164   4.116   5.856   1.554  0.1489  0.8196  0.5042
14891TIP3    H266165   4.228   5.917   1.472  0.0185 -2.1301 -1.9442
14892TIP3   OH266166   2.159   3.343  12.442  0.1714  0.9055 -0.3055
14892TIP3    H166167   2.176   3.346  12.536 -0.2176 -2.3192 -0.0879
14892TIP3    H266168   2.243   3.315  12.404 -0.5365 -0.9248 -0.5775
14893TIP3   OH266169   5.138   6.349   5.396 -0.2258  0.0793  0.0503
14893TIP3    H166170   5.083   6.294   5.453 -0.6976  0.4128 -0.0837
14893TIP3    H266171   5.124   6.438   5.428  2.1090 -0.0672  1.5888
14894TIP3   OH266172   5.194   0.565   4.940  0.2150  0.3708  0.3055
14894TIP3    H166173   5.187   0.480   4.983  0.0102  1.5313  2.6476
14894TIP3    H266174   5.169   0.629   5.007 -0.1907  2.2547 -1.5665
14895TIP3   OH266175   3.865   4.978  11.195  0.3202  0.1120 -1.1991
14895TIP3    H166176   3.921   5.047  11.232 -0.5574 -1.0638  2.5883
14895TIP3    H266177   3.833   5.015  11.113  2.8267  2.7182 -1.1007
14896TIP3   OH266178   4.431   1.301   5.263  0.2201 -0.2025  0.2413
14896TIP3    H166179   4.472   1.300   5.349 -0.7928  1.1637  0.7461
14896TIP3    H266180   4.394   1.213   5.254  1.7053 -0.8759  0.5113
14897TIP3   OH266181   2.648   5.866  14.481 -0.1472 -0.5099 -0.3734
14897TIP3    H166182   2.729   5.910  14.459 -0.9114  1.5089  0.6618
14897TIP3    H266183   2.615   5.830  14.399 -0.7957  3.1194 -1.7703
14898TIP3   OH266184   6.205   4.258  14.451  0.3922 -0.4687 -0.5446
14898TIP3    H166185   6.180   4.347  14.427  1.5002 -0.1512 -0.5062
14898TIP3    H266186   6.231   4.217  14.368 -0.6322 -0.9419 -0.6534
14899TIP3   OH266187   3.769   1.693   1.813  0.0877 -0.5740 -0.2737
14899TIP3    H166188   3.775   1.786   1.834  0.1165 -0.9764  1.6034
14899TIP3    H266189   3.836   1.679   1.747  1.4294  0.3579  0.8459
14900TIP3   OH266190   4.097   4.444  12.135  0.0241  0.1316 -1.0053
14900TIP3    H166191   4.029   4.437  12.067 -1.6028  1.3902  0.4538
14900TIP3    H266192   4.173   4.399  12.097 -1.2353 -0.2703 -3.1561
14901TIP3   OH266193   1.351   0.846   4.924  0.1348 -0.0136 -0.2469
14901TIP3    H166194   1.334   0.789   4.999 -0.0834 -1.2538 -1.2419
14901TIP3    H266195   1.357   0.787   4.849  1.2873  1.1300 -1.0734
14902TIP3   OH266196   0.212   6.109   5.853 -0.1907  0.3095 -1.1503
14902TIP3    H166197   0.120   6.104   5.830 -0.6188  1.1901  0.2917
14902TIP3    H266198   0.229   6.202   5.863  1.1717  0.2396 -2.5560
14903TIP3   OH266199   4.408   1.752   0.472 -0.0833  0.3408 -0.7306
14903TIP3    H166200   4.437   1.687   0.408  0.9963  2.1095 -2.0932
14903TIP3    H266201   4.335   1.798   0.428 -0.5966  0.2934  0.0651
14904TIP3   OH266202   1.214   6.478  13.203  0.5419 -0.1567  0.0788
14904TIP3    H166203   1.252   6.524  13.278  1.4026 -2.4009  1.0754
14904TIP3    H266204   1.262   6.511  13.127  0.0626  1.7060  0.5765
14905TIP3   OH266205   4.483   6.561  11.826 -0.7469  0.0863  0.3685
14905TIP3    H166206   4.398   6.562  11.869 -0.4555  1.0605  0.9503
14905TIP3    H266207   4.482   6.482  11.772 -2.1801  0.3113  0.0400
14906TIP3   OH266208   2.599   5.203  14.126  0.1688 -0.7136 -0.1445
14906TIP3    H166209   2.522   5.207  14.183  0.7263 -1.9431  0.7084
14906TIP3    H266210   2.659   5.268  14.161  1.3513 -2.8838  1.9414
14907TIP3   OH266211   3.234   1.164  16.990  0.1691 -0.0623 -0.2253
14907TIP3    H166212   3.205   1.103  17.058 -1.5717  2.1608  1.1065
14907TIP3    H266213   3.156   1.215  16.968  1.4757  1.4453 -1.5519
14908TIP3   OH266214   1.077   6.120  14.019  0.2834 -0.0175 -0.1808
14908TIP3    H166215   1.028   6.138  13.939  0.4539  0.4622 -0.1789
14908TIP3    H266216   1.048   6.186  14.081  1.6716  0.9102 -0.4930
14909TIP3   OH266217   1.436   6.575  11.584 -0.3083  0.6738  0.2335
14909TIP3    H166218   1.492   6.517  11.636 -1.1233  0.1678  0.5653
14909TIP3    H266219   1.391   6.517  11.523 -0.6960  1.0271  0.1784
14910TIP3   OH266220   4.650   3.402   1.932  0.2584 -0.3355  0.0367
14910TIP3    H166221   4.564   3.432   1.958  0.0402  0.6199 -1.7354
14910TIP3    H266222   4.707   3.479   1.942  0.8995 -0.9430  1.1487
14911TIP3   OH266223   2.333   2.755  12.231  0.8022 -0.3210 -0.2457
14911TIP3    H166224   2.410   2.781  12.281 -0.8104  0.7347  1.7976
14911TIP3    H266225   2.323   2.661  12.248  0.7793 -0.1483  0.7066
14912TIP3   OH266226   6.314   5.975   5.753 -0.3882 -0.0267  0.1106
14912TIP3    H166227   6.384   5.910   5.750 -0.5667 -0.2364  0.4670
14912TIP3    H266228   6.343   6.039   5.817  1.1965  1.8810 -2.4393
14913TIP3   OH266229   0.588   2.915   3.337 -0.3318  0.0894 -0.0577
14913TIP3    H166230   0.567   2.839   3.392  1.9123  0.9866  2.1413
14913TIP3    H266231   0.542   2.898   3.255 -0.1690 -3.5091  0.4884
14914TIP3   OH266232   2.092   0.268   5.411 -0.1208  0.3024  0.2181
14914TIP3    H166233   2.114   0.295   5.322 -0.3195 -1.2576 -0.3149
14914TIP3    H266234   2.176   0.261   5.456  0.0629  0.0577 -0.1595
14915TIP3   OH266235   1.290   3.356   2.184 -0.4724 -0.0992 -0.1857
14915TIP3    H166236   1.292   3.293   2.112  1.9359 -0.6950  0.3572
14915TIP3    H266237   1.350   3.425   2.157 -0.6132  0.3579  0.6403
14916TIP3   OH266238   1.269   5.310   5.310  0.3763 -0.2114 -0.0963
14916TIP3    H166239   1.199   5.361   5.269  2.0776  1.5846 -0.8473
14916TIP3    H266240   1.300   5.251   5.241 -0.2775 -0.8765  0.1807
14917TIP3   OH266241   4.002   6.143  16.083  0.3084 -0.1799  0.4086
14917TIP3    H166242   3.972   6.073  16.024  1.9415  0.0363 -0.7304
14917TIP3    H266243   3.957   6.126  16.166 -1.7408 -0.7268 -0.7710
14918TIP3   OH266244   1.487   3.190   1.760 -0.3808 -0.4770  0.3925
14918TIP3    H166245   1.435   3.164   1.684 -0.2926 -2.1832  0.9093
14918TIP3    H266246   1.467   3.283   1.771  0.9182  0.2409 -2.7351
14919TIP3   OH266247   2.073   0.702  10.836  0.6564  0.4048  0.0288
14919TIP3    H166248   2.073   0.774  10.772 -0.3765  0.3527 -0.0340
14919TIP3    H266249   2.027   0.631  10.792 -0.3150  0.4667  0.9267
14920TIP3   OH266250   5.520   5.317   5.581 -0.2782  0.2653  0.0848
14920TIP3    H166251   5.519   5.401   5.534 -0.2919  1.1462  1.6203
14920TIP3    H266252   5.599   5.321   5.635  0.1759 -1.0879 -0.4683
14921TIP3   OH266253   6.550   2.291  11.351  0.6891  0.3650 -0.0849
14921TIP3    H166254   6.472   2.263  11.399 -0.0825 -0.5581 -1.8170
14921TIP3    H266255   6.607   2.328  11.418 -0.4162 -0.7356  1.5094
14922TIP3   OH266256   4.066   2.883   3.505  0.9308 -0.2782  0.2897
14922TIP3    H166257   4.156   2.852   3.517  0.6936 -1.0675  0.0112
14922TIP3    H266258   4.012   2.805   3.514  0.3203  0.0860 -0.2173
14923TIP3   OH266259   2.109   0.947  11.874 -0.6413 -0.0890 -0.3139
14923TIP3    H166260   2.110   0.998  11.792  4.5621  0.3574 -0.1374
14923TIP3    H266261   2.119   1.012  11.943  3.4951 -1.0075  0.0699
14924TIP3   OH266262   3.116   2.098   2.477  0.2804 -0.0514  0.5486
14924TIP3    H166263   3.063   2.137   2.547 -0.1688 -0.1471  0.2679
14924TIP3    H266264   3.162   2.026   2.519 -0.4986 -0.5248  0.6028
14925TIP3   OH266265   4.625   5.804  16.363  0.1578 -0.0350  0.2271
14925TIP3    H166266   4.545   5.834  16.407  0.4904 -1.8074  2.0896
14925TIP3    H266267   4.597   5.729  16.310  0.1118  0.9742 -1.2259
14926TIP3   OH266268   1.685   4.708  17.253 -0.2576  0.0656  0.4002
14926TIP3    H166269   1.752   4.642  17.271  0.4478  0.9279  1.0540
14926TIP3    H266270   1.602   4.661  17.258  0.3401 -1.2122 -1.3387
14927TIP3   OH266271   5.412   6.632  11.062 -0.3979  0.3183 -0.1980
14927TIP3    H166272   5.442   6.576  11.133  1.2894 -2.7464 -3.1621
14927TIP3    H266273   5.430   6.721  11.092  0.0623 -0.8617  3.2321
14928TIP3   OH266274   5.625   4.072  16.260 -0.1264 -0.6122  0.5788
14928TIP3    H166275   5.529   4.063  16.262 -0.1331 -0.9070 -0.3781
14928TIP3    H266276   5.656   3.984  16.237  0.4679 -0.9171  2.5269
14929TIP3   OH266277   1.089   6.395   4.614  0.2536  0.4425  0.3109
14929TIP3    H166278   1.036   6.470   4.586  1.6722  1.1250 -0.6472
14929TIP3    H266279   1.145   6.431   4.683  0.7280  0.1891  0.0570
14930TIP3   OH266280   0.054   1.745   2.590  0.2109  0.1632 -0.0118
14930TIP3    H166281   0.128   1.783   2.542  0.9316 -0.5210  0.5364
14930TIP3    H266282   0.089   1.664   2.628 -0.7581 -0.0495  0.4517
14931TIP3   OH266283   3.683   6.270   1.847 -0.2848  0.2274 -0.4576
14931TIP3    H166284   3.709   6.358   1.819  0.8669  0.1327  0.2710
14931TIP3    H266285   3.697   6.215   1.769  0.3023  0.4557 -0.5211
14932TIP3   OH266286   0.792   6.119  12.680  0.4317 -0.3162  0.0316
14932TIP3    H166287   0.702   6.087  12.673  0.5366 -0.5947 -0.0312
14932TIP3    H266288   0.846   6.040  12.683  0.7159 -0.1410 -0.4601
14933TIP3   OH266289   2.915   4.146   4.872  0.2580 -0.4940 -0.0435
14933TIP3    H166290   2.911   4.052   4.854 -0.4140 -0.5079  0.1874
14933TIP3    H266291   2.905   4.153   4.967 -1.1434 -0.1026 -0.2048
14934TIP3   OH266292   1.891   1.871   5.335 -0.2411  0.6664  0.3121
14934TIP3    H166293   1.983   1.890   5.351 -0.5701  1.6079  1.1410
14934TIP3    H266294   1.858   1.947   5.287 -0.9478  1.0481  1.3778
14935TIP3   OH266295   5.826   6.355  13.955  0.3121 -0.2072 -0.1063
14935TIP3    H166296   5.891   6.416  13.989  0.2080 -0.4697  0.5821
14935TIP3    H266297   5.794   6.309  14.033 -1.8185  1.0104 -0.1964
14936TIP3   OH266298   2.959   4.960   1.655 -0.5514  0.0517  0.1902
14936TIP3    H166299   2.970   5.052   1.680 -0.4972  0.0022  0.3495
14936TIP3    H266300   2.865   4.945   1.663 -0.8535  0.6976 -1.9603
14937TIP3   OH266301   6.231   0.481  15.727  0.6448 -0.6143  0.3394
14937TIP3    H166302   6.247   0.575  15.734 -3.4111  0.2368 -0.1180
14937TIP3    H266303   6.232   0.448  15.817 -0.6209  0.4345  0.7503
14938TIP3   OH266304   5.454   1.600   1.561 -0.2814 -0.2177 -0.0311
14938TIP3    H166305   5.386   1.577   1.498 -0.2318 -0.8925  0.1574
14938TIP3    H266306   5.407   1.643   1.632 -0.8125 -2.5567  1.0807
14939TIP3   OH266307   4.834   0.304   5.762  0.0222 -0.2624  0.2866
14939TIP3    H166308   4.851   0.214   5.788 -2.0052 -0.9173 -0.4970
14939TIP3    H266309   4.746   0.301   5.723  1.2291  1.4161 -2.7683
14940TIP3   OH266310   0.637   6.383  15.440  0.2857  0.4620  0.1252
14940TIP3    H166311   0.675   6.410  15.356  2.3660  1.4764  1.3483
14940TIP3    H266312   0.604   6.465  15.478 -0.6807  0.0008  0.3029
14941TIP3   OH266313   3.798   4.289  13.627  0.3149  0.1153  0.6033
14941TIP3    H166314   3.846   4.208  13.613  0.9889  0.4680  0.8379
14941TIP3    H266315   3.714   4.262  13.664  1.0700 -0.3982  1.9974
14942TIP3   OH266316   0.767   5.677   1.577 -0.0144 -0.4760 -0.0784
14942TIP3    H166317   0.726   5.600   1.616  0.2494 -0.2205  0.7215
14942TIP3    H266318   0.852   5.645   1.545  0.1483 -0.4983  0.3647
14943TIP3   OH266319   6.601   3.348   3.373 -0.3951  0.4662  0.0201
14943TIP3    H166320   6.594   3.427   3.427 -3.2952 -0.3748  0.9589
14943TIP3    H266321   6.579   3.276   3.432  1.3146 -0.9968 -1.0605
14944TIP3   OH266322   0.156   6.345  15.157 -0.2056 -0.2500  0.3850
14944TIP3    H166323   0.226   6.352  15.092 -0.7849  2.2007 -0.0153
14944TIP3    H266324   0.111   6.263  15.135  0.6048 -0.2628 -1.2875
14945TIP3   OH266325   1.242   2.787   4.451  0.0846 -0.5417 -0.1651
14945TIP3    H166326   1.240   2.784   4.546  0.9140 -1.2090 -0.1611
14945TIP3    H266327   1.264   2.877   4.430 -1.8943  0.0415  0.2398
14946TIP3   OH266328   5.544   5.754  11.748 -0.6387 -0.4741  0.6558
14946TIP3    H166329   5.559   5.822  11.813 -0.9819  0.7187 -0.4955
14946TIP3    H266330   5.449   5.751  11.737 -0.5324 -0.0545 -0.4241
14947TIP3   OH266331   5.188   4.850  11.644  0.3771 -0.3106  0.8063
14947TIP3    H166332   5.102   4.892  11.638  1.8071  2.4176 -1.5653
14947TIP3    H266333   5.224   4.857  11.556  3.1404 -1.2148  1.8364
14948TIP3   OH266334   4.499   0.804  12.092 -0.4415 -0.0730 -0.3370
14948TIP3    H166335   4.592   0.819  12.109 -0.2605 -0.0543 -1.3316
14948TIP3    H266336   4.456   0.882  12.127  0.1654  1.1266 -2.2044
14949TIP3   OH266337   4.960   1.948  10.599  0.1652  0.2618  0.1420
14949TIP3    H166338   5.015   2.025  10.585 -0.1537  1.0448  2.8324
14949TIP3    H266339   4.871   1.980  10.585  0.2196 -0.3917 -1.7608
14950TIP3   OH266340   4.020   2.796   4.650  0.6407  0.1195  0.2715
14950TIP3    H166341   4.115   2.799   4.660  0.6240 -3.4896  2.2882
14950TIP3    H266342   4.006   2.778   4.557  1.7671  3.6489 -0.6661
14951TIP3   OH266343   2.029   3.586  12.479 -0.7004  0.7930  0.0544
14951TIP3    H166344   2.086   3.626  12.545 -2.5179 -0.6735  2.6245
14951TIP3    H266345   2.055   3.494  12.477  0.6134  1.1802 -2.7271
14952TIP3   OH266346   1.991   1.375  10.846 -0.5185 -0.0436 -0.1847
14952TIP3    H166347   1.936   1.372  10.768 -1.5011 -0.5857  0.5238
14952TIP3    H266348   2.037   1.291  10.846 -2.9826 -1.4439  1.5755
14953TIP3   OH266349   2.701   1.779  15.915 -0.0893  0.4206 -0.2197
14953TIP3    H166350   2.772   1.785  15.852  0.1659 -0.5376 -0.0281
14953TIP3    H266351   2.622   1.765  15.862  0.2046 -0.9636 -0.3020
14954TIP3   OH266352   4.131   0.829   1.887  0.4748  0.7020  0.0925
14954TIP3    H166353   4.206   0.878   1.854  0.3186  1.7344  1.2488
14954TIP3    H266354   4.105   0.875   1.967 -0.9402 -0.0737  0.0933
14955TIP3   OH266355   1.877   1.079  12.988  0.0698 -0.2415  0.4037
14955TIP3    H166356   1.847   0.996  13.025 -0.0945 -0.7842 -0.9574
14955TIP3    H266357   1.865   1.070  12.894  2.5312  0.3227  0.0064
14956TIP3   OH266358   1.173   3.069   0.902  0.3235  0.4052  0.0800
14956TIP3    H166359   1.078   3.073   0.910  0.3457  2.4039 -0.3746
14956TIP3    H266360   1.203   3.156   0.930  2.0633 -0.3888  0.7592
14957TIP3   OH266361   5.072   0.711  13.402  0.6403 -0.0497 -0.1690
14957TIP3    H166362   4.978   0.705  13.388  0.4915 -1.9449  1.3662
14957TIP3    H266363   5.093   0.633  13.454  2.9900  0.5482 -0.1694
14958TIP3   OH266364   5.441   3.696   1.510 -0.1108 -0.6863  0.2517
14958TIP3    H166365   5.494   3.776   1.505 -0.8007 -0.2365  0.1288
14958TIP3    H266366   5.442   3.673   1.604  1.1453 -1.2643  0.1192
14959TIP3   OH266367   5.096   5.876   3.198 -0.3587  0.3388 -0.6767
14959TIP3    H166368   5.002   5.882   3.181 -0.0607 -0.4580 -2.8332
14959TIP3    H266369   5.104   5.867   3.293 -2.4497  0.5656 -0.4752
14960TIP3   OH266370   5.066   1.353   4.901 -0.5792  0.2769 -0.9870
14960TIP3    H166371   5.009   1.276   4.892 -0.4073  0.1858 -1.2903
14960TIP3    H266372   5.093   1.352   4.993 -2.5969  1.3904 -0.3337
14961TIP3   OH266373   0.826   3.915   5.405 -0.0298 -0.0788  0.0020
14961TIP3    H166374   0.811   3.828   5.442  1.3204 -0.1387  0.4421
14961TIP3    H266375   0.740   3.957   5.407 -0.8067 -1.5992 -0.7465
14962TIP3   OH266376   1.462   3.355   0.024  0.7136  0.2406 -0.0130
14962TIP3    H166377   1.440   3.344  -0.068  2.5045 -1.9242 -0.2163
14962TIP3    H266378   1.386   3.321   0.071  0.5465 -0.3645 -0.7072
14963TIP3   OH266379   1.297   1.015   1.478  0.0295 -0.0620 -0.1631
14963TIP3    H166380   1.281   0.958   1.403  1.1291 -2.0021  1.0310
14963TIP3    H266381   1.338   0.958   1.543  0.6763  1.9774  1.2734
14964TIP3   OH266382   4.789   0.217   5.472  0.1353  0.1167 -0.1454
14964TIP3    H166383   4.803   0.191   5.381 -0.1128 -1.9495  0.3681
14964TIP3    H266384   4.869   0.263   5.497  0.2352  0.6217 -1.3806
14965TIP3   OH266385   2.606   3.770   3.934 -0.4760  0.0131  0.8892
14965TIP3    H166386   2.545   3.828   3.979 -2.3068 -1.5329  0.5253
14965TIP3    H266387   2.665   3.738   4.002  0.5172  2.2452  1.0847
14966TIP3   OH266388   0.991   2.547   4.876 -0.2186 -1.0258 -0.1058
14966TIP3    H166389   0.965   2.504   4.957  3.2701 -3.1135 -0.0330
14966TIP3    H266390   0.997   2.477   4.811 -2.5684  0.5549 -2.1525
14967TIP3   OH266391   3.692   0.724   4.501  0.9502  0.2835  0.6189
14967TIP3    H166392   3.677   0.699   4.592  2.7353 -0.5185  0.7199
14967TIP3    H266393   3.708   0.642   4.455 -4.1164  0.1817 -1.3674
14968TIP3   OH266394   1.968   1.249   4.206 -0.0899 -0.0999 -0.0745
14968TIP3    H166395   2.049   1.200   4.189  0.3765 -0.2500  2.3229
14968TIP3    H266396   1.998   1.332   4.242 -0.9812  0.2694 -0.1787
14969TIP3   OH266397   4.904   3.877  13.919  0.1709  0.1626 -0.8232
14969TIP3    H166398   4.864   3.819  13.854 -1.6022  0.5332 -0.0898
14969TIP3    H266399   4.831   3.929  13.952  1.2634  0.7734  0.6513
14970TIP3   OH266400   4.216   1.285  14.832 -0.0222  0.3805 -0.1488
14970TIP3    H166401   4.302   1.241  14.828 -0.4618 -0.4128 -0.8965
14970TIP3    H266402   4.237   1.377  14.842  0.9334  0.2472 -0.8458
14971TIP3   OH266403   0.264   4.409  14.684 -0.4419 -0.0414  0.0361
14971TIP3    H166404   0.345   4.376  14.723 -1.1486 -1.0112  0.7090
14971TIP3    H266405   0.204   4.335  14.687 -1.2117  0.5334 -0.8892
14972TIP3   OH266406   4.363   3.394  10.406  0.6902 -0.6053 -0.4634
14972TIP3    H166407   4.415   3.383  10.485 -0.3318  0.4615  0.3698
14972TIP3    H266408   4.358   3.306  10.368  0.8033 -1.1960  0.8846
14973TIP3   OH266409   3.249   4.371  11.375  0.2169 -0.3702 -0.0727
14973TIP3    H166410   3.247   4.446  11.316  0.9236 -1.0841 -1.0142
14973TIP3    H266411   3.199   4.303  11.329 -0.7661 -0.3556  0.9515
14974TIP3   OH266412   3.216   3.305  14.707 -0.2365  0.6232  0.0978
14974TIP3    H166413   3.309   3.284  14.709  0.2203  2.4811 -1.2850
14974TIP3    H266414   3.201   3.356  14.787  0.0004  0.6721  0.1097
14975TIP3   OH266415   2.844   5.634   3.222  0.1281 -0.4117 -0.1467
14975TIP3    H166416   2.783   5.626   3.149  1.4277 -2.5016 -1.0537
14975TIP3    H266417   2.928   5.657   3.182  0.5321 -0.0866  0.8444
14976TIP3   OH266418   1.893   2.303  15.771 -0.2334  0.2349  0.2495
14976TIP3    H166419   1.962   2.288  15.836 -0.8175 -1.4247  0.4995
14976TIP3    H266420   1.811   2.287  15.819 -0.7654  1.1781 -0.3215
14977TIP3   OH266421   3.929   0.274  16.342  0.2710  0.4625 -0.5689
14977TIP3    H166422   3.870   0.347  16.323 -0.2300 -0.0581 -1.0481
14977TIP3    H266423   3.928   0.266  16.437  0.9405  1.5870 -0.4724
14978TIP3   OH266424   3.032   4.854   3.596 -0.3045 -0.7722  0.1392
14978TIP3    H166425   2.962   4.821   3.653 -0.1978 -0.3169  0.5404
14978TIP3    H266426   3.033   4.949   3.612 -0.3449 -0.6260 -0.7058
14979TIP3   OH266427   1.344   0.905  12.851  0.2388  0.2989  0.6314
14979TIP3    H166428   1.277   0.876  12.790 -0.4165  2.0509  0.4919
14979TIP3    H266429   1.416   0.937  12.796  0.3906  0.1945  0.7675
14980TIP3   OH266430   3.632   4.510   3.236  0.1913  0.0881  0.1112
14980TIP3    H166431   3.676   4.435   3.276  1.0510  0.4531 -0.1238
14980TIP3    H266432   3.632   4.490   3.142 -1.8290 -0.7716  0.2763
14981TIP3   OH266433   3.760   4.275   2.675  0.3572  0.0542 -0.3836
14981TIP3    H166434   3.717   4.225   2.744 -0.1470  0.3139 -0.5060
14981TIP3    H266435   3.692   4.334   2.643  1.0265  1.0195 -0.0468
14982TIP3   OH266436   0.625   2.540  12.047 -0.0671  0.5414 -0.6143
14982TIP3    H166437   0.645   2.587  11.966  0.6145 -1.2773 -1.5391
14982TIP3    H266438   0.623   2.608  12.114  0.2199  1.9701 -2.0155
14983TIP3   OH266439   3.076   3.099  14.955 -0.0261  0.4015  0.5019
14983TIP3    H166440   3.055   3.162  14.886 -0.9414 -1.0666 -0.5874
14983TIP3    H266441   3.012   3.118  15.024 -1.3538 -0.3562 -0.4838
14984TIP3   OH266442   0.130   2.371  13.260 -0.0978  0.5234 -0.0470
14984TIP3    H166443   0.195   2.322  13.209 -1.0185  0.1866 -0.9257
14984TIP3    H266444   0.121   2.323  13.342  1.5426  1.1757  0.5310
14985TIP3   OH266445   3.032   2.750  14.509 -0.5159 -0.2351  0.0691
14985TIP3    H166446   3.003   2.673  14.460  0.2526 -0.2344 -0.3976
14985TIP3    H266447   3.108   2.782  14.461 -1.0875  1.0839  0.0016
14986TIP3   OH266448   3.237   4.116   1.411 -0.3119 -0.2422 -0.1258
14986TIP3    H166449   3.262   4.206   1.433 -0.4701 -0.5458  1.3721
14986TIP3    H266450   3.278   4.100   1.326 -1.1890  1.6162 -0.9276
14987TIP3   OH266451   5.458   0.163  14.996 -0.0813 -0.8001  0.7047
14987TIP3    H166452   5.540   0.199  14.961 -1.3711  0.9200 -0.6379
14987TIP3    H266453   5.428   0.229  15.058 -1.0082 -0.9154  0.3793
14988TIP3   OH266454   2.398   3.431  14.004 -0.0716 -0.1741  0.2179
14988TIP3    H166455   2.335   3.361  13.989  1.1670 -1.0118 -1.1650
14988TIP3    H266456   2.467   3.417  13.939  0.8271  1.5805  0.7415
14989TIP3   OH266457   1.774   3.651  13.928 -0.4461 -0.2513  0.5157
14989TIP3    H166458   1.685   3.668  13.897 -0.7049 -0.3336  1.2022
14989TIP3    H266459   1.762   3.602  14.010  0.2468 -1.2402  0.0415
14990TIP3   OH266460   6.775   6.004  12.437  0.0646  0.4019 -0.3422
14990TIP3    H166461   6.870   5.991  12.432  0.1655  1.0376 -0.0941
14990TIP3    H266462   6.756   6.070  12.370 -0.1355  0.6184 -0.0724
14991TIP3   OH266463   0.846   4.854   0.512 -0.6664 -0.0946  0.0735
14991TIP3    H166464   0.815   4.925   0.456  1.0037  0.7436  0.1862
14991TIP3    H266465   0.882   4.789   0.452 -0.8007 -0.1587  0.0612
14992TIP3   OH266466   0.061   1.634   5.444  0.0166  0.0897  0.4006
14992TIP3    H166467   0.097   1.681   5.369 -2.0687  1.7295  0.4092
14992TIP3    H266468   0.054   1.700   5.513  0.5494 -1.0809  1.6019
14993TIP3   OH266469   5.522   6.711   3.273 -0.5184 -0.3950 -0.3432
14993TIP3    H166470   5.608   6.675   3.251 -0.2326 -0.0340  0.1559
14993TIP3    H266471   5.472   6.705   3.192 -0.4489 -1.8248 -0.2819
14994TIP3   OH266472   5.111   1.517   1.319 -0.5704 -0.3179 -0.3931
14994TIP3    H166473   5.036   1.566   1.352 -1.2343 -0.8801 -1.0485
14994TIP3    H266474   5.127   1.554   1.231  0.2759  0.1847 -0.0375
14995TIP3   OH266475   4.091   3.495   4.396  0.3415 -0.2781 -0.1250
14995TIP3    H166476   4.045   3.540   4.325  0.2691  0.4067  0.3406
14995TIP3    H266477   4.176   3.537   4.400  0.4082 -0.4337  0.0768
14996TIP3   OH266478   0.038   2.610   0.257 -0.2402 -0.0957 -0.2187
14996TIP3    H166479  -0.027   2.632   0.190  0.4564 -0.0736 -0.9055
14996TIP3    H266480  -0.005   2.546   0.313 -1.0355  0.3281 -0.3478
14997TIP3   OH266481   2.897   2.751   2.433 -0.0716  0.0330  0.3535
14997TIP3    H166482   2.843   2.780   2.506  1.5547  3.0616  0.4041
14997TIP3    H266483   2.981   2.727   2.473  0.7690  1.5450 -0.4466
14998TIP3   OH266484   6.604   4.987  16.932 -0.4126  0.4584  0.0487
14998TIP3    H166485   6.643   4.904  16.903 -2.6178 -0.9240  0.9373
14998TIP3    H266486   6.604   4.982  17.027 -1.6707  0.9348  0.0828
14999TIP3   OH266487   4.925   3.545  12.760 -0.1824 -0.2846 -0.6987
14999TIP3    H166488   4.972   3.485  12.818  0.1900  1.3677  0.7621
14999TIP3    H266489   4.958   3.524  12.673  1.0027 -1.2380 -0.0452
15000TIP3   OH266490   3.299   3.425   5.211 -0.5427  0.7350  0.1606
15000TIP3    H166491   3.317   3.420   5.305  0.1087  2.7505  0.1661
15000TIP3    H266492   3.216   3.379   5.200 -0.5318  0.3126  1.6833
15001TIP3   OH266493   5.785   4.137  14.727 -0.1029  0.1291 -0.1874
15001TIP3    H166494   5.852   4.146  14.660  0.0231  1.3990  0.0897
15001TIP3    H266495   5.703   4.153  14.682  0.0200  1.4935  0.0381
15002TIP3   OH266496   1.565   6.390   5.785  0.1695  0.1751  0.1379
15002TIP3    H166497   1.534   6.352   5.703 -0.5436  3.2459 -1.0804
15002TIP3    H266498   1.660   6.384   5.779  0.1894  1.6500 -1.6058
15003TIP3   OH266499   1.499   0.636  11.389  0.1540  0.1158 -0.4272
15003TIP3    H166500   1.419   0.583  11.394  1.9504 -2.6412  0.2088
15003TIP3    H266501   1.497   0.675  11.302 -2.1953  0.6061 -0.1859
15004TIP3   OH266502   0.317   6.334  10.381  0.1399 -0.4976 -0.0899
15004TIP3    H166503   0.248   6.338  10.315  1.2632 -0.3271 -1.2649
15004TIP3    H266504   0.303   6.412  10.435 -0.6857 -0.5563 -0.2153
15005TIP3   OH266505   2.746   2.113   2.431 -0.0809  0.5781 -0.1410
15005TIP3    H166506   2.784   2.201   2.422 -0.8553  0.7357 -2.1467
15005TIP3    H266507   2.651   2.128   2.430 -0.2083 -0.2040  0.3331
15006TIP3   OH266508   6.021   5.680   1.635 -0.1174  0.2301 -0.8768
15006TIP3    H166509   5.960   5.612   1.665  0.4603 -0.0067 -0.2282
15006TIP3    H266510   6.103   5.632   1.619  0.2749  0.7710 -0.4755
15007TIP3   OH266511   0.616   1.446   1.080 -0.1200  0.5792 -0.3654
15007TIP3    H166512   0.565   1.366   1.066  0.7500  0.0151 -0.3585
15007TIP3    H266513   0.676   1.424   1.151  1.7660  0.4403 -1.9554
15008TIP3   OH266514   5.887   5.017   4.639  0.2079 -0.5420 -0.2143
15008TIP3    H166515   5.876   4.923   4.624  0.2226 -0.6906  0.6910
15008TIP3    H266516   5.829   5.058   4.575 -0.5779 -1.1850  0.0831
15009TIP3   OH266517   2.734   0.697   3.907  0.0765 -0.0288  0.2234
15009TIP3    H166518   2.719   0.779   3.954  1.7525 -0.4904  1.6121
15009TIP3    H266519   2.658   0.643   3.929  0.2683  0.1952  1.4713
15010TIP3   OH266520   4.719   6.205   4.741 -0.2190 -0.2281 -0.7061
15010TIP3    H166521   4.641   6.149   4.747 -0.1805 -0.5199 -2.5114
15010TIP3    H266522   4.767   6.188   4.822 -0.7959 -1.9379 -0.7017
15011TIP3   OH266523   6.374   3.658  12.721  0.1200 -0.0968 -0.1209
15011TIP3    H166524   6.282   3.668  12.696 -0.4609  0.3451  2.1318
15011TIP3    H266525   6.422   3.697  12.648 -1.4637 -0.2635 -1.2932
15012TIP3   OH266526   2.256   1.803  12.547 -0.0677 -0.0883 -0.5279
15012TIP3    H166527   2.189   1.816  12.615 -1.2259  1.0224 -1.8523
15012TIP3    H266528   2.230   1.721  12.504  0.4446 -0.5868  0.0990
15013TIP3   OH266529   4.126   2.586   4.212  0.0763 -0.3661  0.0082
15013TIP3    H166530   4.182   2.648   4.259 -0.6191  0.5043 -0.2928
15013TIP3    H266531   4.143   2.502   4.254 -0.1017  0.2957  1.4225
15014TIP3   OH266532   5.981   3.633   0.323 -0.2073 -0.0969 -0.1157
15014TIP3    H166533   5.962   3.691   0.250  0.0127  0.5562  0.3372
15014TIP3    H266534   6.045   3.570   0.289 -0.6845 -0.2734 -0.6977
15015TIP3   OH266535   2.261   0.358   4.816  0.0284 -0.1947  0.0785
15015TIP3    H166536   2.197   0.313   4.762 -0.5252  2.2945 -1.4561
15015TIP3    H266537   2.345   0.320   4.791 -0.7092 -2.7032  1.3007
15016TIP3   OH266538   1.757   5.985  17.196  0.3172  0.5140 -0.3262
15016TIP3    H166539   1.789   5.901  17.229 -0.6168  0.4231  0.3843
15016TIP3    H266540   1.732   6.033  17.275 -1.2772  0.5770 -0.8566
15017TIP3   OH266541   6.700   3.966   2.027  0.2293  0.9674  0.0233
15017TIP3    H166542   6.708   4.051   2.070  0.7897  1.2146 -0.5570
15017TIP3    H266543   6.667   3.987   1.939 -2.0319  0.3783  0.6783
15018TIP3   OH266544   2.353   2.072  11.531 -0.5243 -0.2957 -0.1139
15018TIP3    H166545   2.388   2.020  11.603 -1.6454 -1.8151 -0.6307
15018TIP3    H266546   2.427   2.122  11.499  0.9498 -2.5974 -0.4460
15019TIP3   OH266547   2.264   2.669   2.620  0.0500  0.1117  0.5626
15019TIP3    H166548   2.203   2.613   2.573  0.3794  1.1448 -1.1611
15019TIP3    H266549   2.348   2.624   2.614  0.2731  0.6606 -0.6476
15020TIP3   OH266550   5.215   4.460  10.890  0.3285 -0.4152 -0.1653
15020TIP3    H166551   5.264   4.414  10.959  0.1234 -1.3477 -0.6369
15020TIP3    H266552   5.268   4.449  10.812  1.2493  1.8046  0.0996
15021TIP3   OH266553   2.552   3.565  12.371  0.5053  0.0502 -0.9915
15021TIP3    H166554   2.615   3.623  12.327 -0.3925  1.8462  0.0361
15021TIP3    H266555   2.467   3.606  12.356 -0.1996 -1.2490 -0.6193
15022TIP3   OH266556   6.410   3.089   4.620 -0.1677 -0.0324 -0.2076
15022TIP3    H166557   6.490   3.054   4.580  0.1514  0.7161 -0.2192
15022TIP3    H266558   6.356   3.011   4.635  0.6788 -0.5755  0.0625
15023TIP3   OH266559   0.549   3.497   4.607  0.0010  0.4526 -0.1826
15023TIP3    H166560   0.613   3.467   4.543  0.4882  0.5510  0.2525
15023TIP3    H266561   0.465   3.465   4.575  0.2070  0.7586 -1.0194
15024TIP3   OH266562   4.577   1.583  14.325 -0.1155 -0.2431  0.3404
15024TIP3    H166563   4.584   1.513  14.389 -1.7116 -0.0681  0.7234
15024TIP3    H266564   4.560   1.538  14.242  0.7800 -0.4072  0.2457
15025TIP3   OH266565   2.691   0.887   0.959 -0.2892  0.5912 -0.3938
15025TIP3    H166566   2.772   0.861   1.004 -0.1792 -0.5655 -1.2320
15025TIP3    H266567   2.622   0.844   1.009 -0.3152  0.7984 -0.2497
15026TIP3   OH266568   0.166   5.786  13.813 -0.7338 -0.3580 -0.2936
15026TIP3    H166569   0.127   5.865  13.778  0.1341  0.4264  0.4820
15026TIP3    H266570   0.152   5.720  13.745 -1.0035  0.5840 -1.1613
15027TIP3   OH266571   3.264   4.924   2.418 -0.1205  0.2068 -0.2471
15027TIP3    H166572   3.338   4.945   2.360 -0.6725 -0.9802 -1.3973
15027TIP3    H266573   3.284   4.837   2.452  0.2421  0.9290  1.4426
15028TIP3   OH266574   3.878   1.844   6.694  0.6588 -0.5057  0.3813
15028TIP3    H166575   3.783   1.848   6.690  0.7774  2.7530 -3.9152
15028TIP3    H266576   3.901   1.760   6.654 -0.3691 -1.3244  1.4890
15029TIP3   OH266577   6.557   0.392  13.282  0.2406 -0.0890 -0.0907
15029TIP3    H166578   6.557   0.297  13.276  1.6834 -0.0627 -0.6940
15029TIP3    H266579   6.644   0.418  13.252 -0.3350  1.4510 -0.4883
15030TIP3   OH266580   0.980   6.708  13.371  0.4090  0.3965  0.9229
15030TIP3    H166581   1.042   6.663  13.429  3.3486  0.9260 -1.6674
15030TIP3    H266582   0.973   6.796  13.407  0.8640  0.2335  1.4272
15031TIP3   OH266583   2.435   5.507  13.785 -0.3538  0.2744  0.3626
15031TIP3    H166584   2.383   5.427  13.793  0.6963 -0.1781  3.3118
15031TIP3    H266585   2.497   5.488  13.715 -1.2000 -0.8533 -0.1003
15032TIP3   OH266586   0.456   5.767  10.561 -0.4468  0.3732 -0.0333
15032TIP3    H166587   0.371   5.811  10.551 -1.0617 -0.5300  1.1484
15032TIP3    H266588   0.434   5.677  10.585  0.8578  0.3016  0.9229
15033TIP3   OH266589   1.403   6.101   0.840  0.0449 -0.8720 -0.0933
15033TIP3    H166590   1.308   6.086   0.834  0.1780 -1.7590 -0.0221
15033TIP3    H266591   1.435   6.090   0.751  0.1667 -1.1325 -0.0157
15034TIP3   OH266592   3.106   6.785   1.544  0.0937 -0.3379  0.4498
15034TIP3    H166593   3.013   6.767   1.530  0.0042  1.9933 -2.6343
15034TIP3    H266594   3.108   6.877   1.572  1.4548 -0.4507  0.7447
15035TIP3   OH266595   2.140   5.590  12.545  0.4524  0.4945 -0.2289
15035TIP3    H166596   2.098   5.666  12.505 -0.0202 -0.0115 -0.7008
15035TIP3    H266597   2.140   5.524  12.476  0.1004 -0.2107  0.4376
15036TIP3   OH266598   4.193   2.754   2.344  0.0230 -0.3143  0.7796
15036TIP3    H166599   4.199   2.828   2.405  1.2356  0.5990 -0.4055
15036TIP3    H266600   4.254   2.689   2.379  0.6164  0.1543  0.6207
15037TIP3   OH266601   4.109   6.499  11.686  0.0544 -0.0552  0.1345
15037TIP3    H166602   4.085   6.590  11.704 -3.2936 -0.7589 -0.3821
15037TIP3    H266603   4.159   6.502  11.605  0.9815  1.4498  0.7631
15038TIP3   OH266604   3.550   4.029   0.814  0.3014  0.3943  0.1735
15038TIP3    H166605   3.635   4.009   0.775  0.3053  0.5291  0.1123
15038TIP3    H266606   3.487   3.980   0.762  0.0267  2.5939 -1.6504
15039TIP3   OH266607   0.972   6.370  16.049  0.2397  0.2517  0.1075
15039TIP3    H166608   0.902   6.311  16.077 -0.2611  0.5139 -0.5712
15039TIP3    H266609   0.949   6.394  15.959  2.3237 -1.3217 -0.8926
15040TIP3   OH266610   1.284   5.146   1.583 -0.5913  0.0253 -0.3619
15040TIP3    H166611   1.232   5.115   1.657  1.4515 -0.5140  0.9055
15040TIP3    H266612   1.220   5.168   1.515 -2.4897  0.3405  1.4881
15041TIP3   OH266613   3.845   0.855  16.920  0.0518 -0.7064  0.6397
15041TIP3    H166614   3.873   0.764  16.930 -2.0179 -1.6705 -1.9949
15041TIP3    H266615   3.756   0.857  16.953 -0.3045  0.1261 -0.3629
15042TIP3   OH266616   4.897   5.472  14.240  0.4842  0.0573 -0.0353
15042TIP3    H166617   4.858   5.490  14.154  2.5548 -0.1445 -1.0491
15042TIP3    H266618   4.917   5.558  14.276  0.3720  0.1182 -0.1179
15043TIP3   OH266619   2.025   6.399  16.989  0.1829 -0.1650  0.3219
15043TIP3    H166620   1.976   6.456  16.930 -0.0149 -0.5143  0.1497
15043TIP3    H266621   2.107   6.382  16.943  0.1908 -0.1226  0.3192
15044TIP3   OH266622   4.738   1.975   2.248 -0.4198 -0.1434  0.5366
15044TIP3    H166623   4.756   2.067   2.269  1.7272 -0.9493  2.3547
15044TIP3    H266624   4.795   1.956   2.173 -0.5698 -0.1143  0.4143
15045TIP3   OH266625   3.106   1.286  10.945  0.2389 -0.3763 -0.3615
15045TIP3    H166626   3.072   1.217  10.888 -0.5961 -0.8263  0.6684
15045TIP3    H266627   3.032   1.345  10.956  0.9161  0.6387 -1.1388
15046TIP3   OH266628   2.693   4.463   2.509 -0.0609 -0.0064 -0.7211
15046TIP3    H166629   2.700   4.558   2.503 -0.8154  0.2297  1.5544
15046TIP3    H266630   2.781   4.434   2.530 -0.5837  0.6168  2.6563
15047TIP3   OH266631   4.780   5.250   5.142  0.4218  0.3176 -0.0095
15047TIP3    H166632   4.739   5.185   5.086 -1.3253  2.0113 -0.7507
15047TIP3    H266633   4.843   5.294   5.084 -0.2616  1.0217 -0.2175
15048TIP3   OH266634   3.877   2.399  11.843  0.0703 -0.1815 -0.0241
15048TIP3    H166635   3.876   2.369  11.752 -0.3081 -1.4375  0.3740
15048TIP3    H266636   3.893   2.319  11.894  0.8201  0.5956  0.9778
15049TIP3   OH266637   2.696   0.587   1.845  0.5808 -0.5112  0.7180
15049TIP3    H166638   2.758   0.554   1.910  0.9343  1.7607  1.5867
15049TIP3    H266639   2.640   0.647   1.894 -1.5042 -1.5856 -0.3266
15050TIP3   OH266640   3.766   4.124   3.060  0.4788 -0.9651 -0.7924
15050TIP3    H166641   3.754   4.218   3.044 -0.8550 -1.0563 -0.3883
15050TIP3    H266642   3.690   4.099   3.114  2.4815 -1.5948  1.8668
15051TIP3   OH266643   1.324   5.288  12.179 -0.5909  0.2101 -0.0480
15051TIP3    H166644   1.236   5.326  12.176 -0.0902  1.4173  0.4864
15051TIP3    H266645   1.379   5.352  12.136  0.2718  0.1288  0.9197
15052TIP3   OH266646   5.880   2.643   5.568  0.2898  0.4167 -0.2219
15052TIP3    H166647   5.945   2.636   5.499 -0.2215 -0.6376 -0.6103
15052TIP3    H266648   5.887   2.560   5.616 -0.0177  0.7428  0.3979
15053TIP3   OH266649   0.936   5.401  16.964 -0.0710  0.3469  0.3810
15053TIP3    H166650   0.867   5.336  16.949  1.6721 -0.9640 -2.3218
15053TIP3    H266651   0.976   5.414  16.878  3.8380  0.1520  2.0613
15054TIP3   OH266652   6.201   0.974   1.569  0.1311 -0.6245  0.9283
15054TIP3    H166653   6.219   0.896   1.621 -0.6006 -2.4253 -1.4594
15054TIP3    H266654   6.108   0.970   1.550  0.8434 -1.4520 -2.7271
15055TIP3   OH266655   4.667   2.451  10.813 -0.2514 -0.1752  0.2782
15055TIP3    H166656   4.732   2.522  10.811  1.6193 -1.8256  0.6631
15055TIP3    H266657   4.718   2.371  10.798 -2.4253 -1.3902 -0.9074
15056TIP3   OH266658   5.023   4.212  13.073 -0.8309  0.2364  0.1759
15056TIP3    H166659   4.985   4.225  12.987  1.9463  1.4720 -0.9334
15056TIP3    H266660   5.018   4.297  13.116 -0.4587  0.1092  0.4876
15057TIP3   OH266661   4.536   2.595  14.308  0.2240 -0.0988 -0.3090
15057TIP3    H166662   4.629   2.585  14.325  0.5562  1.3386 -1.1960
15057TIP3    H266663   4.495   2.524  14.357  1.7360 -0.4588  0.4669
15058TIP3   OH266664   1.664   3.662  15.470  0.3458 -0.6393  0.0099
15058TIP3    H166665   1.698   3.669  15.381 -0.0669 -1.3983 -0.2063
15058TIP3    H266666   1.717   3.724  15.521 -0.1554  0.6169 -0.9780
15059TIP3   OH266667   5.960   6.413   0.045  0.0473 -0.4104 -0.0801
15059TIP3    H166668   5.993   6.397   0.133 -0.5412  0.1420  0.2449
15059TIP3    H266669   6.038   6.419  -0.009  0.4532  0.2893  0.5800
15060TIP3   OH266670   4.776   3.282   0.667  0.1956  0.3556 -0.2677
15060TIP3    H166671   4.831   3.254   0.741  0.5424  0.2989 -0.5434
15060TIP3    H266672   4.759   3.201   0.618 -1.6303  0.0811  0.8034
15061TIP3   OH266673   4.922   6.320  13.738 -0.0036  0.2999  0.3519
15061TIP3    H166674   4.965   6.405  13.745  1.4882 -0.4012 -0.0180
15061TIP3    H266675   4.991   6.256  13.757 -0.5258 -0.9148 -1.6874
15062TIP3   OH266676   3.261   1.384  15.023  0.6040  0.5507 -0.1415
15062TIP3    H166677   3.255   1.290  15.011  1.2756  0.4843  0.0159
15062TIP3    H266678   3.336   1.410  14.968 -0.2394  1.1413 -1.0409
15063TIP3   OH266679   3.885   6.051  12.705 -0.5757  0.2969 -0.2552
15063TIP3    H166680   3.818   5.991  12.673  0.1250 -1.7175  1.9972
15063TIP3    H266681   3.844   6.138  12.698 -2.4425 -0.6413 -1.3359
15064TIP3   OH266682   6.789   1.522  12.649  0.5690  0.3977  0.0615
15064TIP3    H166683   6.838   1.604  12.660  0.0870  0.9099 -1.4977
15064TIP3    H266684   6.763   1.522  12.557 -0.8262 -0.7337  0.4386
15065TIP3   OH266685   4.593   1.444   1.543  0.9989  0.2957 -0.0623
15065TIP3    H166686   4.516   1.436   1.487  1.1238 -0.9814 -0.0858
15065TIP3    H266687   4.557   1.458   1.631  0.6643 -1.8243  0.1717
15066TIP3   OH266688   0.406   6.383  13.741  0.1806 -0.3488 -0.1807
15066TIP3    H166689   0.493   6.417  13.717 -0.6941  1.5766 -0.7092
15066TIP3    H266690   0.424   6.323  13.814  2.0188 -0.4460 -0.6735
15067TIP3   OH266691   0.858   5.607  12.602 -0.6884 -0.8849 -0.5124
15067TIP3    H166692   0.764   5.624  12.610 -0.6255 -0.7085 -0.1511
15067TIP3    H266693   0.876   5.616  12.509 -1.1447 -1.4990 -0.6680
15068TIP3   OH266694   0.570   3.980   3.060 -0.0097  0.4081 -0.1224
15068TIP3    H166695   0.506   3.954   3.126 -0.7083 -0.5065 -1.1557
15068TIP3    H266696   0.567   4.076   3.061 -0.0348  0.4123  1.1395
15069TIP3   OH266697   0.968   0.585  17.087  0.6771 -0.0491 -0.2846
15069TIP3    H166698   1.033   0.520  17.059  0.6091 -1.2459  2.2403
15069TIP3    H266699   0.993   0.608  17.176 -0.7773  1.5526 -0.2521
15070TIP3   OH266700   1.211   1.128   1.138  0.2727  0.0692 -0.4832
15070TIP3    H166701   1.195   1.215   1.101 -0.2349  0.7099  1.1827
15070TIP3    H266702   1.307   1.123   1.147  0.1784  1.3685  1.4942
15071TIP3   OH266703   1.431   5.709  12.257  0.6693 -0.4839 -0.3605
15071TIP3    H166704   1.470   5.783  12.303  0.3118 -1.3203  1.3348
15071TIP3    H266705   1.472   5.632  12.296 -1.0154 -1.2842 -0.1200
15072TIP3   OH266706   2.303   5.994  14.589  0.0642  0.5938 -0.1529
15072TIP3    H166707   2.352   5.915  14.614  0.3254  1.5385  2.4979
15072TIP3    H266708   2.259   5.970  14.508  2.5636 -1.2699 -1.0282
15073TIP3   OH266709   0.229   4.487   4.667  0.1542 -0.2480 -0.2723
15073TIP3    H166710   0.241   4.580   4.649  1.5560 -0.1623  1.0428
15073TIP3    H266711   0.218   4.482   4.762 -1.7771 -1.2438 -0.5116
15074TIP3   OH266712   2.310   5.480  14.605  0.2273  0.9028  0.0616
15074TIP3    H166713   2.245   5.453  14.670  1.0300  0.8260  0.8427
15074TIP3    H266714   2.386   5.507  14.657  0.6892  1.3379 -0.8291
15075TIP3   OH266715   1.979   1.176  11.120 -0.4067 -0.1593  0.2866
15075TIP3    H166716   1.997   1.097  11.068  2.9685 -0.6072  1.9966
15075TIP3    H266717   1.966   1.245  11.055 -1.2685 -1.6924 -1.2105
15076TIP3   OH266718   0.178   1.261  16.134 -0.1324  0.2899 -0.1197
15076TIP3    H166719   0.099   1.307  16.106  0.5875  1.2198 -0.6527
15076TIP3    H266720   0.249   1.306  16.090  0.7639 -0.1159  0.8789
15077TIP3   OH266721   4.064   5.112  11.624 -0.5787 -0.6006  0.1193
15077TIP3    H166722   4.039   5.181  11.686 -1.1465 -1.3261  0.7062
15077TIP3    H266723   4.156   5.096  11.642 -0.6939 -0.6841  0.6539
15078TIP3   OH266724   6.178   4.608   1.140  0.3456  0.2400  0.0498
15078TIP3    H166725   6.130   4.664   1.079  0.8780 -0.2601 -0.8315
15078TIP3    H266726   6.191   4.663   1.218  0.2800  1.1194 -0.5524
15079TIP3   OH266727   2.248   0.815  13.578  0.0463 -0.2079 -0.0110
15079TIP3    H166728   2.226   0.724  13.557 -2.1079  0.0718  0.9430
15079TIP3    H266729   2.290   0.811  13.663 -0.6870 -0.2394  0.3503
15080TIP3   OH266730   4.280   6.024  15.976  0.7178 -0.3804 -0.0137
15080TIP3    H166731   4.195   5.993  16.008  2.0875 -0.2966  4.0524
15080TIP3    H266732   4.272   6.120  15.975 -0.1904 -0.4708 -2.5703
15081TIP3   OH266733   0.112   6.418  12.581 -0.2191  0.0088  0.1493
15081TIP3    H166734   0.029   6.425  12.533  0.1916  1.0882 -0.4399
15081TIP3    H266735   0.119   6.501  12.628  0.9588  0.2935 -0.5243
15082TIP3   OH266736   0.019   2.215   1.053 -0.1799 -0.0353  0.9441
15082TIP3    H166737  -0.055   2.189   0.997 -0.5319 -0.2835  1.5183
15082TIP3    H266738   0.057   2.132   1.082 -1.7572  0.0371  3.3778
15083TIP3   OH266739   2.837   1.506  16.713  0.1529  0.1952 -0.3676
15083TIP3    H166740   2.793   1.578  16.667 -0.3371 -0.1858 -0.5027
15083TIP3    H266741   2.829   1.528  16.806 -0.1320  0.2413 -0.4024
15084TIP3   OH266742   1.611   3.946  11.216 -0.0727  0.3693 -0.1071
15084TIP3    H166743   1.613   4.012  11.147 -0.7689  0.8133  0.2903
15084TIP3    H266744   1.697   3.904  11.212  0.2110  0.9974 -0.6545
15085TIP3   OH266745   3.095   1.751   3.103 -0.2832  0.2197 -0.1337
15085TIP3    H166746   3.035   1.739   3.177 -0.8877  1.0193 -0.4942
15085TIP3    H266747   3.151   1.672   3.105 -1.9013 -0.9572 -0.3250
15086TIP3   OH266748   2.994   1.820  14.180 -0.2698 -0.3672  0.8543
15086TIP3    H166749   2.960   1.899  14.222  0.2328  3.2254 -4.9521
15086TIP3    H266750   3.087   1.820  14.203 -0.2601  0.7850  0.8695
15087TIP3   OH266751   0.021   4.864   2.689 -0.1946 -0.5046  0.8723
15087TIP3    H166752   0.013   4.884   2.595 -2.4434 -2.0546  0.7162
15087TIP3    H266753   0.109   4.826   2.697 -0.5652 -1.8261 -0.8962
15088TIP3   OH266754   2.570   0.460  16.209  0.0191 -0.0299  0.3542
15088TIP3    H166755   2.593   0.553  16.217  1.2829 -0.4596  2.0144
15088TIP3    H266756   2.629   0.415  16.270 -0.9712 -1.8719 -0.0018
15089TIP3   OH266757   1.667   5.496  14.472  0.0344  0.5827 -0.0122
15089TIP3    H166758   1.618   5.571  14.507  1.1192  0.9917  0.6370
15089TIP3    H266759   1.712   5.531  14.395  0.1508  0.4631  0.0037
15090TIP3   OH266760   2.476   2.280   3.741 -0.0184  0.0148  0.0096
15090TIP3    H166761   2.514   2.350   3.794  0.1652 -2.9533  3.9737
15090TIP3    H266762   2.387   2.270   3.773 -0.4827 -0.6750 -1.4495
15091TIP3   OH266763   4.581   1.677   2.871 -0.1956 -0.1746  0.4383
15091TIP3    H166764   4.597   1.583   2.872 -1.0297 -0.3226  0.2329
15091TIP3    H266765   4.516   1.691   2.940  0.2073  0.3052  0.7262
15092TIP3   OH266766   1.940   6.243  15.014 -0.3007  0.0283 -0.6086
15092TIP3    H166767   1.966   6.170  14.958 -2.0798  0.8787 -2.5977
15092TIP3    H266768   1.860   6.212  15.057 -1.0543  0.8059 -1.4512
15093TIP3   OH266769   2.233   6.094   5.007 -0.0044  0.5558 -0.9300
15093TIP3    H166770   2.212   6.186   4.995 -0.4618  0.4202 -1.1743
15093TIP3    H266771   2.328   6.089   4.997  0.0848  1.0809 -0.3735
15094TIP3   OH266772   6.400   4.672  14.084  0.2372  0.2129  0.6355
15094TIP3    H166773   6.454   4.641  14.011 -0.7901 -0.3715  0.0963
15094TIP3    H266774   6.428   4.762  14.098  1.7800 -0.2695  0.7872
15095TIP3   OH266775   0.154   6.441   3.514  0.0025  0.1698 -0.6568
15095TIP3    H166776   0.149   6.347   3.534  2.1307  0.2722  0.4858
15095TIP3    H266777   0.081   6.479   3.563  1.6359 -0.3720  2.3271
15096TIP3   OH266778   1.024   5.912  16.968  0.7282  0.0593 -0.1843
15096TIP3    H166779   1.099   5.865  16.931  0.9876  0.3643 -0.0495
15096TIP3    H266780   0.950   5.884  16.915  0.7335 -1.1733  0.4472
15097TIP3   OH266781   5.331   5.676   2.252 -0.3604  0.2168  0.1086
15097TIP3    H166782   5.285   5.745   2.205 -0.0376  0.9763  0.8957
15097TIP3    H266783   5.365   5.719   2.330  2.2164 -0.1778 -0.7558
15098TIP3   OH266784   5.743   0.113  15.903  0.0824 -0.1175 -0.4542
15098TIP3    H166785   5.807   0.073  15.962 -1.2049  1.1947  1.8793
15098TIP3    H266786   5.738   0.053  15.828  1.9235 -1.6752  0.6553
15099TIP3   OH266787   1.833   4.168   3.687  0.5058  0.2534  0.1229
15099TIP3    H166788   1.784   4.086   3.680  1.7646 -0.5938  0.9093
15099TIP3    H266789   1.771   4.236   3.660 -0.4780 -0.9774 -0.7773
15100TIP3   OH266790   3.098   1.878  12.515  0.1604  0.2095  0.2286
15100TIP3    H166791   3.032   1.875  12.584  2.0175 -0.3490  2.0123
15100TIP3    H266792   3.160   1.809  12.537  0.0992 -0.8810 -2.7452
15101TIP3   OH266793   3.622   5.141   5.340 -0.1997 -0.1800  0.1755
15101TIP3    H166794   3.708   5.118   5.377  0.2052  0.7196 -0.1866
15101TIP3    H266795   3.629   5.234   5.320 -0.6612 -0.4909 -1.4843
15102TIP3   OH266796   5.451   6.797   4.433 -0.0517  0.1581  0.1110
15102TIP3    H166797   5.490   6.842   4.508  0.9922  2.5449 -1.8263
15102TIP3    H266798   5.524   6.747   4.395 -0.0446  0.7011 -0.5981
15103TIP3   OH266799   6.397   6.398  12.479  0.3670  0.3871  0.3383
15103TIP3    H166800   6.376   6.308  12.505 -0.1957  0.2803 -0.4579
15103TIP3    H266801   6.312   6.437  12.457  0.7064  0.8199 -0.2326
15104TIP3   OH266802   0.131   1.972  11.714 -0.3438  0.3862  0.0043
15104TIP3    H166803   0.114   2.008  11.627 -3.0091 -1.4695 -0.2878
15104TIP3    H266804   0.148   2.049  11.768  1.7325  1.5454 -2.1905
15105TIP3   OH266805   4.022   2.638   5.039  0.1702 -0.5467 -0.7478
15105TIP3    H166806   3.968   2.703   5.085  0.3567 -1.7805  1.3044
15105TIP3    H266807   4.100   2.686   5.013 -0.0100  0.2223  0.0991
15106TIP3   OH266808   2.357   3.409  15.272  0.5424  0.2213 -0.4841
15106TIP3    H166809   2.362   3.349  15.346 -1.7303 -0.1771 -0.6140
15106TIP3    H266810   2.428   3.381  15.214  2.9271  1.1185  1.9086
15107TIP3   OH266811   4.493   1.814   1.035 -0.7433 -0.2026  0.3047
15107TIP3    H166812   4.415   1.863   1.009 -1.9798 -1.4517  1.5279
15107TIP3    H266813   4.473   1.723   1.012  0.5794 -0.4564  0.1410
15108TIP3   OH266814   4.283   1.925  15.262  0.8372  0.4959 -1.0282
15108TIP3    H166815   4.226   1.933  15.185  0.0215  1.0666 -0.3726
15108TIP3    H266816   4.320   2.013  15.274  0.2752  0.6343 -0.2495
15109TIP3   OH266817   6.046   1.215  13.899 -0.2765 -0.2396  0.0342
15109TIP3    H166818   6.006   1.220  13.986 -1.0419 -0.0249 -0.3178
15109TIP3    H266819   6.030   1.125  13.871 -0.3934 -0.1933 -0.0485
15110TIP3   OH266820   0.353   3.444  16.617  0.1380  0.1041 -0.6000
15110TIP3    H166821   0.445   3.455  16.595 -0.2065  3.1501 -0.7041
15110TIP3    H266822   0.336   3.512  16.683 -1.7910 -1.0929  0.1789
15111TIP3   OH266823   0.228   4.722  13.160  0.3316  0.6247  0.0844
15111TIP3    H166824   0.184   4.655  13.211  0.2106 -0.8017 -1.8383
15111TIP3    H266825   0.322   4.706  13.175  0.3027  0.0193 -0.3735
15112TIP3   OH266826   3.879   4.144   0.982  0.1847  0.2838  0.0332
15112TIP3    H166827   3.962   4.102   0.959  0.5124  1.1936 -0.4249
15112TIP3    H266828   3.852   4.191   0.903 -0.0067  1.2285  0.6532
15113TIP3   OH266829   1.172   3.020  16.599  0.4126 -0.3213 -0.4188
15113TIP3    H166830   1.162   3.087  16.532 -0.4073  1.5250  1.4865
15113TIP3    H266831   1.262   2.990  16.589  1.0760  1.6947 -0.7453
15114TIP3   OH266832   5.492   4.815   2.366  0.6854 -0.6020  0.1830
15114TIP3    H166833   5.581   4.835   2.393  0.2563  1.5288  0.0626
15114TIP3    H266834   5.439   4.888   2.399 -1.3849 -2.9073  2.2105
15115TIP3   OH266835   0.566   0.713   3.082 -0.6638 -0.7118 -0.3465
15115TIP3    H166836   0.549   0.652   3.153 -0.7112 -1.0564 -0.6505
15115TIP3    H266837   0.502   0.689   3.014 -0.3775 -0.6254 -0.6493
15116TIP3   OH266838   6.302   3.784   5.414  0.0206 -0.0624 -0.1857
15116TIP3    H166839   6.299   3.732   5.333 -1.3311  0.2835 -0.3773
15116TIP3    H266840   6.218   3.767   5.456  0.7413 -0.2763  1.1898
15117TIP3   OH266841   0.477   5.291  16.167  0.1318  0.1602 -0.8700
15117TIP3    H166842   0.389   5.296  16.202  0.3289  0.9880 -0.4715
15117TIP3    H266843   0.534   5.289  16.244  0.3893 -2.2428 -1.0957
15118TIP3   OH266844   6.692   6.355  11.563  0.1850  0.8044 -0.0195
15118TIP3    H166845   6.776   6.348  11.608  1.1418 -1.6187 -2.0803
15118TIP3    H266846   6.627   6.354  11.633  1.7676  0.4704  1.4838
15119TIP3   OH266847   1.847   5.613  14.287  0.7360  0.3133 -0.3091
15119TIP3    H166848   1.848   5.707  14.270  0.8417  0.1044 -1.4930
15119TIP3    H266849   1.937   5.592  14.312  1.0836  0.2638 -1.5672
15120TIP3   OH266850   0.060   4.367   1.936  0.0961  0.1296  0.3902
15120TIP3    H166851   0.054   4.322   2.021 -1.8596 -2.4946 -1.0444
15120TIP3    H266852  -0.025   4.411   1.927 -0.4562 -1.1858 -1.0105
15121TIP3   OH266853   6.262   3.590   5.856 -0.3472 -0.1757  0.0256
15121TIP3    H166854   6.271   3.540   5.775  0.7278 -0.4447  0.2988
15121TIP3    H266855   6.210   3.535   5.913  0.7317 -0.9434  0.2817
15122TIP3   OH266856   6.137   2.056  15.812 -0.2579 -0.4484  0.3464
15122TIP3    H166857   6.088   2.138  15.800  2.6199  1.7294  2.7043
15122TIP3    H266858   6.151   2.023  15.724  1.7614  3.6166 -0.9484
15123TIP3   OH266859   2.439   1.058   3.765 -0.2927 -0.2938  0.1071
15123TIP3    H166860   2.475   0.970   3.752  0.7648 -0.2719  2.6351
15123TIP3    H266861   2.490   1.094   3.837 -1.0974  2.2050 -0.5357
15124TIP3   OH266862   4.898   2.461   1.526 -0.2921 -0.3710 -0.2392
15124TIP3    H166863   4.961   2.393   1.505 -1.4396 -1.3127 -0.6824
15124TIP3    H266864   4.914   2.530   1.462 -0.5307 -1.1417 -1.1406
15125TIP3   OH266865   1.371   0.295  15.785 -0.1223 -0.0645 -0.1213
15125TIP3    H166866   1.311   0.243  15.732 -0.2075  0.1581 -0.2464
15125TIP3    H266867   1.360   0.262  15.874  1.1805 -1.5028 -0.4852
15126TIP3   OH266868   5.966   5.519  13.968 -0.4305  0.9819  0.4622
15126TIP3    H166869   5.999   5.504  14.057  0.7060 -1.8017 -0.3548
15126TIP3    H266870   6.000   5.445  13.918 -1.2898  2.3552 -2.2428
15127TIP3   OH266871   3.050   2.946   5.792 -0.9628 -0.9788 -0.5063
15127TIP3    H166872   3.080   2.998   5.717 -0.8899 -0.0047  0.1912
15127TIP3    H266873   3.041   3.009   5.863  1.9406 -2.3302  1.1671
15128TIP3   OH266874   1.108   0.171   1.181  0.4091 -0.0659 -0.3837
15128TIP3    H166875   1.194   0.144   1.147 -0.8020 -1.1444 -2.7323
15128TIP3    H266876   1.048   0.152   1.109 -1.4602  2.8974  0.3357
15129TIP3   OH266877   5.401   2.520   0.171 -0.1044  0.2884  0.3430
15129TIP3    H166878   5.440   2.591   0.223 -0.2722  0.3071  0.4424
15129TIP3    H266879   5.342   2.565   0.110 -0.1265  0.2426  0.3310
15130TIP3   OH266880   1.868   2.909   0.331 -0.3309  0.0898  0.2164
15130TIP3    H166881   1.817   2.989   0.317  1.0881  1.4619  2.5799
15130TIP3    H266882   1.950   2.925   0.284  1.2788  1.4492  3.3644
15131TIP3   OH266883   6.210   5.851  12.754  0.1698  0.0598 -0.2753
15131TIP3    H166884   6.286   5.804  12.720  0.3164  0.7887 -0.9844
15131TIP3    H266885   6.245   5.909  12.822  0.3624  0.9168 -1.0997
15132TIP3   OH266886   0.320   6.573   3.699  0.6649  0.2443  0.3125
15132TIP3    H166887   0.226   6.568   3.678  0.4610 -1.2996  1.4090
15132TIP3    H266888   0.356   6.491   3.666  1.5740  0.7044  0.1534
15133TIP3   OH266889   0.508   2.321  14.384  0.0854 -0.0219 -0.4706
15133TIP3    H166890   0.503   2.274  14.467 -0.2565  0.4781 -0.2085
15133TIP3    H266891   0.544   2.257  14.323 -0.8663 -0.7928 -0.2382
15134TIP3   OH266892   6.633   1.870   4.835  0.2435 -0.2951  0.1936
15134TIP3    H166893   6.627   1.935   4.766  0.8066 -0.2650  0.1703
15134TIP3    H266894   6.721   1.881   4.871 -0.2768  0.1535  1.3727
15135TIP3   OH266895   4.642   0.301  16.252  0.3003 -0.4958  0.2394
15135TIP3    H166896   4.731   0.326  16.277  0.7231 -0.9168 -0.8218
15135TIP3    H266897   4.613   0.372  16.194 -0.7711  0.6067  2.0935
15136TIP3   OH266898   2.967   3.898   3.014 -0.3736  0.4529 -0.5694
15136TIP3    H166899   2.912   3.936   2.945 -1.1589  0.0267 -0.1856
15136TIP3    H266900   2.926   3.927   3.095 -1.8901 -2.4509 -0.2474
15137TIP3   OH266901   0.776   0.288  13.740  0.5733 -0.3035  0.0214
15137TIP3    H166902   0.744   0.361  13.793  1.8141  0.5729 -0.4208
15137TIP3    H266903   0.698   0.255  13.696  0.3507  2.2951 -1.6212
15138TIP3   OH266904   2.971   4.468   6.017  0.4507  0.6982  0.0956
15138TIP3    H166905   3.047   4.437   6.067  0.7793 -0.0685 -0.8695
15138TIP3    H266906   3.008   4.506   5.938 -0.0927  1.5570  0.2524
15139TIP3   OH266907   3.123   2.089   3.178  0.4649 -0.4962 -0.1261
15139TIP3    H166908   3.074   2.054   3.104  0.2123  1.8763 -1.0949
15139TIP3    H266909   3.059   2.093   3.249  0.0591 -0.3544 -0.5014
15140TIP3   OH266910   0.614   4.018   1.733 -0.1909  0.1699 -0.4628
15140TIP3    H166911   0.646   3.966   1.659  1.3864 -0.4351  0.6201
15140TIP3    H266912   0.676   4.091   1.738  0.8513 -0.8041  1.4196
15141TIP3   OH266913   4.883   1.888  11.833  0.7388  0.1675 -0.4426
15141TIP3    H166914   4.811   1.933  11.788 -0.4285  0.4690  1.6737
15141TIP3    H266915   4.893   1.934  11.916  2.4433 -0.7716 -0.0916
15142TIP3   OH266916   1.486   2.610  13.001 -0.2101  0.4891 -0.0064
15142TIP3    H166917   1.502   2.585  13.092  1.0409 -0.5812 -0.4945
15142TIP3    H266918   1.531   2.693  12.990 -0.1535  0.4965  0.2854
15143TIP3   OH266919   4.785   1.643  15.873  0.2569  0.7355  0.1401
15143TIP3    H166920   4.816   1.713  15.930 -0.6216 -1.5519  3.5706
15143TIP3    H266921   4.697   1.623  15.905 -0.8927  0.3851 -3.0431
15144TIP3   OH266922   0.384   5.090   1.690  0.1390 -0.1915  0.2069
15144TIP3    H166923   0.289   5.099   1.689  0.1192 -0.4191 -0.0333
15144TIP3    H266924   0.403   5.048   1.775  0.1306  0.9276  0.7692
15145TIP3   OH266925   4.039   5.325   3.628  0.6048  0.0343 -0.0605
15145TIP3    H166926   4.094   5.297   3.700 -1.7607  0.5653  2.0174
15145TIP3    H266927   4.065   5.416   3.612  0.1772  0.3642  1.0805
15146TIP3   OH266928   4.125   1.243  12.122 -0.1582 -0.3800  0.0533
15146TIP3    H166929   4.050   1.217  12.176 -3.8288 -0.3773 -4.7123
15146TIP3    H266930   4.123   1.339  12.122  0.5146 -0.3600  0.7441
15147TIP3   OH266931   5.995   6.279   6.793 -0.2447 -0.0910 -0.5337
15147TIP3    H166932   5.926   6.337   6.761  0.6594  2.2112  1.5026
15147TIP3    H266933   5.960   6.191   6.781 -1.9247  0.8611 -3.1139
15148TIP3   OH266934   3.214   1.871  13.936  0.0957  0.9720 -0.0723
15148TIP3    H166935   3.306   1.893  13.950  0.9839 -1.1421 -2.2179
15148TIP3    H266936   3.201   1.791  13.987 -0.2235  0.6483 -0.6545
15149TIP3   OH266937   5.750   4.857   5.899  0.0727 -0.3079  0.1434
15149TIP3    H166938   5.693   4.804   5.844 -0.2177 -0.4367  0.5713
15149TIP3    H266939   5.691   4.914   5.947  0.1865 -1.5211  1.7529
15150TIP3   OH266940   2.380   5.604   2.419 -0.1050 -0.1696 -0.4531
15150TIP3    H166941   2.316   5.650   2.364  0.5024  1.3980  0.1219
15150TIP3    H266942   2.463   5.615   2.373 -0.0154 -0.9774 -0.4770
15151TIP3   OH266943   0.665   3.852   2.684  0.2709 -0.6019  0.1903
15151TIP3    H166944   0.662   3.948   2.687 -2.2996 -0.6261  0.0553
15151TIP3    H266945   0.617   3.825   2.763 -0.9900 -1.7415 -0.9546
15152TIP3   OH266946   0.088   5.271   1.658 -0.1732 -0.2997  0.0037
15152TIP3    H166947   0.119   5.265   1.748  0.5686  0.5575 -0.1909
15152TIP3    H266948   0.144   5.337   1.617 -1.9249  0.9272 -0.4859
15153TIP3   OH266949   0.133   3.327   0.170  0.0031 -0.5971 -0.6536
15153TIP3    H166950   0.127   3.255   0.233  1.1553  0.4200  0.6426
15153TIP3    H266951   0.102   3.289   0.088 -0.4529 -2.2638  0.2600
15154TIP3   OH266952   4.934   4.683  12.506 -0.3111 -0.0938  0.2429
15154TIP3    H166953   5.005   4.652  12.449  0.7968  0.2869  1.3956
15154TIP3    H266954   4.966   4.767  12.540 -0.0713 -1.2644  3.0180
15155TIP3   OH266955   0.151   2.877   1.569 -0.3581 -0.1386  0.2691
15155TIP3    H166956   0.109   2.807   1.619 -0.9176  0.4959  0.6803
15155TIP3    H266957   0.233   2.837   1.538 -0.2237 -0.6859  1.2872
15156TIP3   OH266958   1.788   6.662  11.543 -0.2837 -0.1848  0.7926
15156TIP3    H166959   1.771   6.692  11.453  1.7159  0.4836  0.6197
15156TIP3    H266960   1.740   6.579  11.549 -1.7052  0.5325 -0.3842
15157TIP3   OH266961   0.092   1.234  16.645  0.0280  1.0318  0.1739
15157TIP3    H166962   0.178   1.199  16.624 -0.7663 -1.0683  0.2889
15157TIP3    H266963   0.073   1.199  16.732 -1.4810  0.4199 -0.3858
15158TIP3   OH266964   1.666   3.854   3.169  0.4194  0.1866  0.2419
15158TIP3    H166965   1.625   3.908   3.101 -1.0481 -0.4641  0.5771
15158TIP3    H266966   1.758   3.848   3.143  0.2989  1.6411 -0.5714
15159TIP3   OH266967   1.981   2.802   0.690 -0.1112  0.1985  0.3643
15159TIP3    H166968   2.035   2.732   0.726  0.4425 -0.7806 -2.2287
15159TIP3    H266969   2.040   2.849   0.630 -1.2609  1.1149 -0.0727
15160TIP3   OH266970   3.349   2.386   5.315  0.6108 -0.2449  0.1303
15160TIP3    H166971   3.337   2.362   5.406 -0.2635  1.6370  0.5245
15160TIP3    H266972   3.268   2.361   5.272  0.6084 -0.1572  0.0830
15161TIP3   OH266973   5.173   0.762   3.915 -0.1705 -0.6869 -0.5647
15161TIP3    H166974   5.216   0.848   3.911  1.0143 -1.2112  0.5509
15161TIP3    H266975   5.139   0.748   3.827  1.4390  0.0247 -1.3218
15162TIP3   OH266976   6.002   3.659   3.553  0.5629 -0.4062  0.1633
15162TIP3    H166977   5.945   3.688   3.624  1.0903  0.1311  0.3714
15162TIP3    H266978   5.942   3.624   3.487  0.1652 -2.1509  1.4460
15163TIP3   OH266979   3.156   4.902  11.886  0.6428  0.2970  0.2220
15163TIP3    H166980   3.189   4.825  11.933 -1.1974 -0.6367  0.0390
15163TIP3    H266981   3.070   4.875  11.854  0.0701  2.3662 -0.0458
15164TIP3   OH266982   1.621   4.032  15.371  0.2241  0.1846 -0.5110
15164TIP3    H166983   1.681   4.002  15.439  0.8155 -2.8655 -2.2740
15164TIP3    H266984   1.658   4.115  15.341  2.4649 -0.6416 -0.1409
15165TIP3   OH266985   6.012   6.485  13.526  0.3941 -0.1941  0.3449
15165TIP3    H166986   6.042   6.491  13.617  2.4467 -1.6467 -0.2141
15165TIP3    H266987   5.935   6.428  13.531  0.1306  0.2230  1.2421
15166TIP3   OH266988   2.827   6.282   1.473 -0.4342 -0.0353  0.6104
15166TIP3    H166989   2.839   6.353   1.537  0.9512  0.3088 -0.0076
15166TIP3    H266990   2.903   6.226   1.486 -0.1764  0.0054 -0.7019
15167TIP3   OH266991   5.111   4.502   0.165 -0.2811  0.1924 -0.1139
15167TIP3    H166992   5.129   4.596   0.160 -0.7228  0.3730  1.4906
15167TIP3    H266993   5.171   4.463   0.101  1.0800  1.4051  0.3882
15168TIP3   OH266994   3.017   3.051  13.738  0.5226 -0.2700 -0.0607
15168TIP3    H166995   3.049   3.044  13.648  2.5340 -0.1781  0.6184
15168TIP3    H266996   3.059   3.130  13.772 -2.4411  1.3224  0.1107
15169TIP3   OH266997   5.325   4.520  12.964 -0.4949  0.0526  0.1034
15169TIP3    H166998   5.389   4.449  12.960 -0.7748 -0.1130 -2.0724
15169TIP3    H266999   5.245   4.483  12.925 -0.2434  1.9267 -2.2967
15170TIP3   OH267000   3.126   3.096  13.494  0.0361 -0.8687 -0.2359
15170TIP3    H167001   3.038   3.133  13.485  1.0510  1.5086 -0.7418
15170TIP3    H267002   3.178   3.142  13.428  1.9062 -1.4572  0.8094
15171TIP3   OH267003   0.272   5.389   1.075 -0.5381  0.0304  0.2133
15171TIP3    H167004   0.186   5.377   1.116 -0.3375 -1.4678  0.2273
15171TIP3    H267005   0.259   5.365   0.983  0.1733 -1.6261  0.5228
15172TIP3   OH267006   3.228   5.211  15.835  0.6416 -0.0851 -0.0009
15172TIP3    H167007   3.297   5.146  15.848 -0.2935 -1.5458 -2.0798
15172TIP3    H267008   3.258   5.263  15.761  0.1278  0.1133 -0.0691
15173TIP3   OH267009   6.093   1.414   2.974  0.2896  0.1514 -0.3100
15173TIP3    H167010   6.048   1.391   2.893 -1.3208  2.1768 -0.0063
15173TIP3    H267011   6.184   1.388   2.959 -0.2750 -0.7940 -2.2114
15174TIP3   OH267012   3.791   2.263   1.809 -0.1763  0.3535  0.3714
15174TIP3    H167013   3.794   2.348   1.852 -1.9009  1.0594 -0.8680
15174TIP3    H267014   3.780   2.283   1.716  0.7662 -1.2090 -0.1072
15175TIP3   OH267015   0.018   4.742  15.069  0.2676  0.2703  0.5103
15175TIP3    H167016   0.058   4.676  15.012  1.8357  1.1848  0.5292
15175TIP3    H267017  -0.043   4.789  15.012  2.1243  1.4546 -0.5848
15176TIP3   OH267018   6.750   0.975   3.936 -0.2255 -0.0790 -0.1914
15176TIP3    H167019   6.827   0.978   3.880  0.5802 -2.2329  0.7202
15176TIP3    H267020   6.685   0.925   3.886 -0.0387 -0.6939  0.1788
15177TIP3   OH267021   4.989   1.329   6.054  0.1367  0.4279 -0.3372
15177TIP3    H167022   5.018   1.239   6.067 -0.2197  0.5252  1.2472
15177TIP3    H267023   4.904   1.334   6.098 -1.4242  0.6775 -3.2780
15178TIP3   OH267024   2.649   5.059  11.728  0.1565 -0.1707 -0.4025
15178TIP3    H167025   2.684   5.040  11.640 -0.2893 -0.6570 -0.4763
15178TIP3    H267026   2.720   5.107  11.771  1.6295 -2.6037  0.0292
15179TIP3   OH267027   3.575   3.628  13.784  0.2116  0.0799 -0.4671
15179TIP3    H167028   3.496   3.682  13.773  1.1839  1.7798  0.6473
15179TIP3    H267029   3.554   3.569  13.857 -0.3115  0.0092 -0.6773
15180TIP3   OH267030   2.826   6.234   4.944  0.0639  0.2041 -0.0121
15180TIP3    H167031   2.818   6.205   4.853  0.2788 -1.6953  0.5599
15180TIP3    H267032   2.891   6.305   4.941  1.0853 -0.7560 -1.1455
15181TIP3   OH267033   1.970   4.621  11.651  0.8094 -0.2050  0.2207
15181TIP3    H167034   1.978   4.602  11.558 -0.1727 -0.9856  0.2806
15181TIP3    H267035   1.893   4.572  11.679  1.4348 -0.4736  1.5680
15182TIP3   OH267036   5.893   1.494   4.716  0.2769  0.3066  0.0362
15182TIP3    H167037   5.927   1.577   4.682 -0.5684  0.8837  0.5936
15182TIP3    H267038   5.931   1.488   4.804  0.0550  0.2808  0.1300
15183TIP3   OH267039   1.858   4.843  11.042  0.2868  0.1310  0.8225
15183TIP3    H167040   1.803   4.775  11.002  0.4119  0.7597 -0.4295
15183TIP3    H267041   1.923   4.794  11.093 -1.0152 -0.6334  1.7841
15184TIP3   OH267042   1.665   0.697   3.114 -0.4492 -0.1815 -0.6248
15184TIP3    H167043   1.613   0.749   3.174  1.0124 -0.1510  0.6393
15184TIP3    H267044   1.667   0.610   3.154 -0.1124 -0.3589 -1.0261
15185TIP3   OH267045   1.444   4.495   1.172  0.2215  0.1906  0.2724
15185TIP3    H167046   1.388   4.572   1.165 -0.2771 -0.2645 -0.8053
15185TIP3    H267047   1.524   4.519   1.126  1.0377  0.9302  2.0226
15186TIP3   OH267048   4.198   1.395   2.180  0.6322  0.0789  0.2449
15186TIP3    H167049   4.290   1.422   2.178  1.0437 -1.2915  0.3308
15186TIP3    H267050   4.185   1.346   2.099  0.2426 -0.5729  0.6974
15187TIP3   OH267051   2.931   2.075  13.342  0.3475  0.1475 -0.4969
15187TIP3    H167052   2.889   1.994  13.370 -0.2905 -0.0551 -1.9925
15187TIP3    H267053   2.978   2.052  13.262  4.1794  0.1530  1.6314
15188TIP3   OH267054   3.570   3.791   3.327  0.2779 -0.3204 -0.1246
15188TIP3    H167055   3.555   3.789   3.421 -0.9001 -0.5660 -0.3035
15188TIP3    H267056   3.521   3.716   3.293 -0.0671  0.2954 -1.0234
15189TIP3   OH267057   6.633   1.716   6.060 -0.0838 -0.5063  0.1938
15189TIP3    H167058   6.595   1.633   6.031  0.4339 -0.3872 -0.8346
15189TIP3    H267059   6.568   1.752   6.121 -0.6099 -1.3461  0.1447
15190TIP3   OH267060   5.813   2.398   5.456  0.7654 -0.1981  0.6062
15190TIP3    H167061   5.834   2.336   5.386 -0.0646 -0.7348  0.8267
15190TIP3    H267062   5.893   2.404   5.507  0.8559 -1.0938  0.5786
15191TIP3   OH267063   6.655   1.218  14.388  0.2634  0.0099  0.1554
15191TIP3    H167064   6.746   1.241  14.401  0.1553  0.6638 -0.2324
15191TIP3    H267065   6.641   1.229  14.294 -0.7171  1.7146  0.4977
15192TIP3   OH267066   6.202   5.468  16.238  0.5882 -0.5609 -0.4843
15192TIP3    H167067   6.199   5.390  16.293 -0.9234 -0.8906 -0.9999
15192TIP3    H267068   6.198   5.435  16.148 -1.0562  0.1340 -0.6837
15193TIP3   OH267069   5.247   3.328  16.213  0.1837  0.2523  0.2783
15193TIP3    H167070   5.304   3.289  16.147 -1.0711  0.7083 -1.0900
15193TIP3    H267071   5.257   3.422  16.201 -0.2244  0.3373  0.5900
15194TIP3   OH267072   0.663   4.417  13.817 -0.1082 -0.3329  0.1014
15194TIP3    H167073   0.729   4.347  13.817 -0.3830 -0.6042 -1.0297
15194TIP3    H267074   0.600   4.391  13.884 -0.9454 -1.8952 -1.2648
15195TIP3   OH267075   2.237   2.736   6.123 -0.1360  0.8477 -0.2049
15195TIP3    H167076   2.331   2.751   6.115  0.3206 -0.8627  1.5961
15195TIP3    H267077   2.212   2.781   6.204 -0.6606  0.4068 -0.1187
15196TIP3   OH267078   2.203   1.469  16.875  0.7816  0.4432 -0.4319
15196TIP3    H167079   2.157   1.527  16.935  0.3304 -0.6398  0.2998
15196TIP3    H267080   2.150   1.468  16.796 -1.2792 -1.9388  0.9282
15197TIP3   OH267081   2.755   6.639   0.454 -0.5256  0.5563 -0.8947
15197TIP3    H167082   2.803   6.692   0.389  0.4575 -1.7710 -2.1087
15197TIP3    H267083   2.668   6.629   0.416 -0.3536  0.3133 -1.2277
15198TIP3   OH267084   3.791   5.060  13.305 -0.2518  0.2609 -0.6064
15198TIP3    H167085   3.816   5.062  13.213 -0.2420 -0.5202 -0.6199
15198TIP3    H267086   3.866   5.019  13.349 -1.3085 -1.6607 -0.5829
15199TIP3   OH267087   3.623   0.287  17.093 -0.2607 -0.1628  0.2893
15199TIP3    H167088   3.594   0.368  17.135  0.6192 -0.4107  1.4104
15199TIP3    H267089   3.550   0.226  17.105 -0.5447  0.1770  0.2927
15200TIP3   OH267090   4.841   5.872  17.271 -0.1727 -0.0497  0.5767
15200TIP3    H167091   4.845   5.902  17.180  3.3789 -0.5245  0.4831
15200TIP3    H267092   4.753   5.835  17.281 -0.3873 -0.6114 -2.8709
15201TIP3   OH267093   5.884   4.410  13.009  0.2555 -0.3338 -0.0048
15201TIP3    H167094   5.873   4.493  13.055 -0.3961 -0.5695  0.2700
15201TIP3    H267095   5.853   4.344  13.070 -0.7027 -0.6407 -0.8045
15202TIP3   OH267096   2.057   6.233  16.758 -0.4181 -0.4441 -0.1289
15202TIP3    H167097   1.965   6.244  16.734 -0.1228 -0.7935 -1.4253
15202TIP3    H267098   2.054   6.186  16.842 -1.4965  2.9822  1.8689
15203TIP3   OH267099   4.654   0.076  11.102 -0.1563 -0.5263 -0.1818
15203TIP3    H167100   4.589   0.077  11.172 -0.1703  0.7004 -0.2070
15203TIP3    H267101   4.738   0.088  11.146 -0.2385  1.1123 -0.4405
15204TIP3   OH267102   1.987   5.760   2.980  0.0919 -0.5361  0.1112
15204TIP3    H167103   1.917   5.709   2.940  1.7231 -1.9314 -1.0675
15204TIP3    H267104   2.048   5.776   2.908  0.3824  1.7218  0.8425
15205TIP3   OH267105   0.634   3.410   1.001  0.2253 -0.1626  0.0041
15205TIP3    H167106   0.573   3.470   0.958  2.3463  1.6398 -0.5465
15205TIP3    H267107   0.581   3.368   1.068 -1.5268  1.7548 -0.1091
15206TIP3   OH267108   1.459   2.543  15.783  0.2579 -0.4799  0.1998
15206TIP3    H167109   1.546   2.508  15.760 -0.0061 -0.0864 -1.4873
15206TIP3    H267110   1.400   2.469  15.769  0.2772 -0.6435  0.9922
15207TIP3   OH267111   1.889   3.988  11.999 -0.0274  0.0904 -0.0446
15207TIP3    H167112   1.981   3.996  12.024  0.1491  1.2627 -0.9955
15207TIP3    H267113   1.846   3.951  12.075  1.3086 -0.8560  0.2643
15208TIP3   OH267114   1.073   2.402  11.957 -0.5044 -0.1588  0.1043
15208TIP3    H167115   1.096   2.341  11.887 -2.3040  0.5938 -1.1723
15208TIP3    H267116   1.081   2.488  11.918  0.7743  0.3933  1.5314
15209TIP3   OH267117   0.610   0.592   3.897  0.7748 -0.5077  1.3864
15209TIP3    H167118   0.601   0.532   3.971 -0.4286 -1.2056  0.6899
15209TIP3    H267119   0.525   0.589   3.853  1.0383  0.9449  0.7588
15210TIP3   OH267120   0.831   6.690   5.288  0.3768 -0.4221 -0.0004
15210TIP3    H167121   0.766   6.741   5.337  0.2590  0.7457 -1.3349
15210TIP3    H267122   0.787   6.668   5.206  1.4907 -0.0408 -0.7095
15211TIP3   OH267123   1.626   6.655   6.251  0.3215 -0.3324 -0.5441
15211TIP3    H167124   1.539   6.638   6.287  0.7109  0.2856  0.7079
15211TIP3    H267125   1.614   6.649   6.156 -0.7956 -1.5872 -0.3366
15212TIP3   OH267126   4.479   2.010  13.092 -0.1476 -0.0481 -0.0781
15212TIP3    H167127   4.403   1.983  13.041  1.6223  0.6374 -3.1489
15212TIP3    H267128   4.518   1.928  13.123  0.4682 -0.6484 -2.3770
15213TIP3   OH267129   4.266   0.101  13.456  0.0517  0.1187 -0.2558
15213TIP3    H167130   4.302   0.145  13.532 -0.3241  3.3404 -1.8609
15213TIP3    H267131   4.173   0.091  13.475  0.2877 -0.7930  0.4625
15214TIP3   OH267132   3.313   0.747   4.173  0.1441  0.0958  0.2674
15214TIP3    H167133   3.354   0.791   4.248 -0.5882  0.9117  0.2050
15214TIP3    H267134   3.220   0.751   4.191 -0.0112 -0.1090 -0.4662
15215TIP3   OH267135   2.066   4.048  14.041  0.3395  0.4796  0.0969
15215TIP3    H167136   2.041   4.126  13.991  0.5143  0.9898  0.7893
15215TIP3    H267137   2.006   3.980  14.011  0.1123  0.9122 -0.4393
15216TIP3   OH267138   2.091   1.493   0.756  0.5452  0.4141  0.6388
15216TIP3    H167139   2.035   1.558   0.714  1.6131  1.0636  0.1998
15216TIP3    H267140   2.154   1.468   0.689  1.4678  0.5049  1.4502
15217TIP3   OH267141   5.956   2.317   4.496  0.2551 -0.1010 -0.5947
15217TIP3    H167142   5.978   2.232   4.457 -1.5297 -0.0356 -1.8042
15217TIP3    H267143   6.031   2.337   4.552  0.4687 -2.7272  0.1528
15218TIP3   OH267144   1.906   4.204   5.899 -0.2056  0.0625  0.5061
15218TIP3    H167145   1.841   4.198   5.969 -0.2758  0.5088  0.4812
15218TIP3    H267146   1.954   4.285   5.917 -0.1224  0.1007  0.1291
15219TIP3   OH267147   3.181   2.205  15.478  0.8287 -0.2064  0.4844
15219TIP3    H167148   3.132   2.142  15.425 -0.1549 -0.1677  1.3366
15219TIP3    H267149   3.144   2.290  15.457  1.1329 -0.0724  0.4771
15220TIP3   OH267150   4.685   0.804  13.323 -0.1385 -0.0173 -0.3731
15220TIP3    H167151   4.748   0.736  13.346  0.0804  0.6266  1.0025
15220TIP3    H267152   4.659   0.784  13.234  1.8490 -0.4381 -0.8741
15221TIP3   OH267153   4.992   2.069  13.037  1.0092 -0.0128 -0.4165
15221TIP3    H167154   5.060   2.001  13.035  0.6224 -0.4372  0.3246
15221TIP3    H267155   4.911   2.021  13.020  0.7016  0.2195  0.3800
15222TIP3   OH267156   5.787   2.671  13.738  0.2111 -0.4131  0.1433
15222TIP3    H167157   5.753   2.582  13.742 -1.2550  0.0126 -2.1520
15222TIP3    H267158   5.880   2.661  13.717  0.1587 -1.3959  0.3732
15223TIP3   OH267159   4.936   6.322  12.406 -0.9108 -0.2329  0.3963
15223TIP3    H167160   5.025   6.289  12.397 -0.2914  1.1470  1.2701
15223TIP3    H267161   4.883   6.263  12.353  0.4523 -1.3544  0.2544
15224TIP3   OH267162   6.064   5.243  16.559  0.0873  0.0412  0.3063
15224TIP3    H167163   6.125   5.216  16.628  0.3274  0.0067  0.0874
15224TIP3    H267164   5.978   5.239  16.599  0.2896  0.7366  0.8143
15225TIP3   OH267165   1.890   2.607  11.877  0.1184 -0.1116 -0.5693
15225TIP3    H167166   1.953   2.608  11.804  0.4811  0.2859 -0.2563
15225TIP3    H267167   1.809   2.640  11.839  0.5195  0.8505 -0.6082
15226TIP3   OH267168   4.351   6.022  16.543 -0.4083  0.1767  0.5769
15226TIP3    H167169   4.257   6.002  16.543 -0.1352 -1.2006  0.8667
15226TIP3    H267170   4.393   5.937  16.532  0.8792  0.3693  3.5517
15227TIP3   OH267171   2.008   4.914   0.330  0.4876 -0.4543 -0.2072
15227TIP3    H167172   2.011   5.005   0.302 -0.2773  0.2417  1.8546
15227TIP3    H267173   2.085   4.903   0.386  0.0422 -0.7830  0.3485
15228TIP3   OH267174   3.166   3.873   1.002  0.2603  0.3870  0.4916
15228TIP3    H167175   3.199   3.953   1.045 -4.4280  2.5558  0.3582
15228TIP3    H267176   3.149   3.900   0.912 -1.9702 -0.5408  0.6125
15229TIP3   OH267177   2.466   4.966  11.164  0.0786 -0.1660 -0.0843
15229TIP3    H167178   2.426   4.886  11.129  0.3604 -0.1479 -0.4526
15229TIP3    H267179   2.518   5.000  11.092  0.0783  0.2729  0.1219
15230TIP3   OH267180   3.507   0.980   2.960  0.2845  0.8437  0.0929
15230TIP3    H167181   3.482   0.946   2.874  0.5905  0.7070  0.0579
15230TIP3    H267182   3.600   0.959   2.968  0.3123  1.0643  0.3598
15231TIP3   OH267183   5.954   1.414  16.604  0.6089 -0.1985  0.1072
15231TIP3    H167184   5.878   1.420  16.661  1.1295  0.9679  0.6996
15231TIP3    H267185   5.925   1.453  16.521  0.1870 -0.8959 -0.0759
15232TIP3   OH267186   5.741   0.680  16.509 -0.1595  0.0883 -0.3430
15232TIP3    H167187   5.696   0.746  16.456  0.2591 -0.1485 -0.9989
15232TIP3    H267188   5.681   0.663  16.582 -1.1562 -0.2493 -1.2264
15233TIP3   OH267189   4.308   3.234   1.149 -0.1233 -0.7131  0.1063
15233TIP3    H167190   4.360   3.179   1.208 -0.2359  0.7318  1.5803
15233TIP3    H267191   4.222   3.237   1.190 -0.1619  0.4282 -0.0647
15234TIP3   OH267192   2.760   1.462   5.248 -0.1362  0.0361  0.7312
15234TIP3    H167193   2.739   1.377   5.208  0.5314  0.3692 -0.3629
15234TIP3    H267194   2.844   1.486   5.209 -0.8540  1.7144  0.1741
15235TIP3   OH267195   3.167   4.699  15.840 -0.7519 -0.3661 -0.1635
15235TIP3    H167196   3.138   4.658  15.922 -1.4184 -0.7246 -0.5731
15235TIP3    H267197   3.172   4.626  15.778  1.2788 -0.3527 -0.0438
15236TIP3   OH267198   5.338   1.616  16.069 -0.0801  0.0933 -0.0456
15236TIP3    H167199   5.370   1.526  16.058 -0.2814 -0.1771  1.5520
15236TIP3    H267200   5.368   1.661  15.990  1.1816 -1.0480 -0.2379
15237TIP3   OH267201   0.392   1.219   0.191  0.1803 -0.6276  0.2082
15237TIP3    H167202   0.398   1.281   0.263 -1.5819  1.1949 -1.1395
15237TIP3    H267203   0.468   1.239   0.135 -1.5270  1.8410 -1.3220
15238TIP3   OH267204   0.255   0.613  12.699  0.3765 -0.0417  0.6448
15238TIP3    H167205   0.218   0.607  12.610  1.3831 -3.4109  0.3674
15238TIP3    H267206   0.183   0.588  12.756 -0.2028  1.8912  0.7807
15239TIP3   OH267207   2.064   4.964   5.739  0.4943 -0.1800 -0.0015
15239TIP3    H167208   2.104   4.974   5.825 -2.5114  0.3681  1.3841
15239TIP3    H267209   2.030   5.050   5.717 -0.5040 -0.7725 -0.8519
15240TIP3   OH267210   5.218   2.988  13.805  0.0544  0.0590  0.3922
15240TIP3    H167211   5.137   3.013  13.850 -0.1378  1.2669 -0.6018
15240TIP3    H267212   5.193   2.911  13.753  0.2174 -1.1881  2.1117
15241TIP3   OH267213   3.025   2.444  12.295  0.6376 -0.1894 -0.0648
15241TIP3    H167214   2.950   2.404  12.340  1.0774 -1.0828 -0.1187
15241TIP3    H267215   3.101   2.410  12.342  1.0458 -0.0196 -0.6050
15242TIP3   OH267216   3.823   3.481   2.093  0.0412 -0.2741 -0.5179
15242TIP3    H167217   3.837   3.386   2.092  0.2611 -0.2411 -0.6216
15242TIP3    H267218   3.761   3.495   2.164  0.2367 -0.4667 -0.3076
15243TIP3   OH267219   4.782   3.628   4.917 -0.5664  0.0030  0.3050
15243TIP3    H167220   4.860   3.581   4.886 -0.1912  0.6774  0.2235
15243TIP3    H267221   4.720   3.558   4.940 -0.2155 -0.5257 -0.3334
15244TIP3   OH267222   6.270   2.613  14.654  0.3628 -0.2955  0.4718
15244TIP3    H167223   6.284   2.633  14.747 -0.5492  1.4010  0.2641
15244TIP3    H267224   6.351   2.571  14.626  0.9847 -0.0232  1.8173
15245TIP3   OH267225   6.749   1.631  17.239 -0.3883  0.3342 -0.4168
15245TIP3    H167226   6.829   1.584  17.216  0.1165  0.9404  0.0666
15245TIP3    H267227   6.682   1.563  17.247  0.1104 -0.1920 -0.6780
15246TIP3   OH267228   4.223   2.312  13.460 -0.3590 -0.1619 -0.2648
15246TIP3    H167229   4.127   2.320  13.465 -0.2208  1.9201 -0.4760
15246TIP3    H267230   4.245   2.352  13.376  0.8997  1.6118  0.8708
15247TIP3   OH267231   6.191   1.154  15.537 -0.1510  0.1341 -0.0102
15247TIP3    H167232   6.150   1.068  15.551  1.0206 -0.7686 -1.9785
15247TIP3    H267233   6.132   1.215  15.581 -0.4555 -1.7630  2.3532
15248TIP3   OH267234   0.026   4.220   2.182 -0.2065  0.3543  0.1919
15248TIP3    H167235  -0.014   4.162   2.247 -1.1639  1.6224  0.7444
15248TIP3    H267236   0.116   4.231   2.211  0.1325 -1.2437 -0.1850
15249TIP3   OH267237   2.585   3.627   2.224 -0.4638 -0.7494 -0.3398
15249TIP3    H167238   2.535   3.655   2.301 -0.1670 -0.9024 -0.0906
15249TIP3    H267239   2.606   3.536   2.242 -1.6803 -1.2155 -1.2845
15250TIP3   OH267240   0.143   6.173   1.886 -0.6639  0.4863 -0.1939
15250TIP3    H167241   0.160   6.252   1.937  2.9329 -0.9898  1.0145
15250TIP3    H267242   0.165   6.198   1.796  0.1170  0.9450  0.1217
15251TIP3   OH267243   0.493   4.074   1.963 -0.2732 -0.2550  0.3134
15251TIP3    H167244   0.521   4.042   1.878 -0.8638 -0.7221  0.2938
15251TIP3    H267245   0.431   4.008   1.995 -0.1237 -0.0443  1.0636
15252TIP3   OH267246   2.219   3.676  11.735 -0.4599 -0.2194  0.6314
15252TIP3    H167247   2.226   3.771  11.734 -1.5339 -0.1309  0.9212
15252TIP3    H267248   2.125   3.659  11.745 -0.4330 -1.3040 -0.7738
15253TIP3   OH267249   1.035   3.296  14.554 -0.3132 -0.2619  0.3801
15253TIP3    H167250   1.044   3.202  14.543 -1.9118 -0.5345  1.2908
15253TIP3    H267251   1.048   3.310  14.648 -0.1777  0.4170  0.2616
15254TIP3   OH267252   3.899   5.064   4.582  0.3863  0.0289  0.0124
15254TIP3    H167253   3.904   4.980   4.627 -2.1136 -0.0196  0.2458
15254TIP3    H267254   3.872   5.042   4.492 -1.3907  0.6364  0.3740
15255TIP3   OH267255   0.448   4.348  11.707 -0.4969 -0.2892  0.0816
15255TIP3    H167256   0.447   4.432  11.752  0.2710  0.0280 -0.4752
15255TIP3    H267257   0.533   4.310  11.727 -0.7301 -0.8102  0.1038
15256TIP3   OH267258   2.915   2.053  14.305 -0.2333  0.3754 -0.7096
15256TIP3    H167259   2.899   2.108  14.381  1.1549 -1.8975  1.3177
15256TIP3    H267260   2.993   2.091  14.263  1.9666 -1.1216  1.8355
15257TIP3   OH267261   4.814   2.422  14.430  0.8101  0.1101  0.0008
15257TIP3    H167262   4.853   2.400  14.515 -2.3891  1.4262  1.9194
15257TIP3    H267263   4.770   2.342  14.402 -1.0105  0.6361  1.2895
15258TIP3   OH267264   1.875   5.741   2.120 -0.2846 -0.1873 -0.3138
15258TIP3    H167265   1.861   5.704   2.208  1.4387 -0.7615 -0.2601
15258TIP3    H267266   1.898   5.665   2.066 -0.9493  0.2239 -1.1791
15259TIP3   OH267267   1.748   3.934  16.971  0.2866  0.2275  0.0364
15259TIP3    H167268   1.803   4.011  16.987  1.8818 -0.7930 -0.4588
15259TIP3    H267269   1.672   3.947  17.028  1.2849  1.3914  1.1347
15260TIP3   OH267270   1.177   0.670  12.345 -0.3907  0.2393 -0.4893
15260TIP3    H167271   1.141   0.618  12.418  0.6378  1.6072  1.0338
15260TIP3    H267272   1.120   0.649  12.271 -2.3291 -0.1377  1.0427
15261TIP3   OH267273   0.806   5.138   4.740  0.1881  0.0291  0.2484
15261TIP3    H167274   0.735   5.104   4.794 -0.8112  0.4192 -0.8112
15261TIP3    H267275   0.850   5.202   4.796 -2.3606  2.2421 -0.2197
15262TIP3   OH267276   2.766   2.206   0.335  0.3299  0.3071  0.5093
15262TIP3    H167277   2.844   2.191   0.390  0.9523  0.0085 -0.4332
15262TIP3    H267278   2.802   2.223   0.248 -0.7000 -1.3209 -0.2579
15263TIP3   OH267279   0.900   4.255  11.488 -1.2909 -0.3895  0.1423
15263TIP3    H167280   0.889   4.186  11.422  0.1129 -0.2040 -0.3111
15263TIP3    H267281   0.873   4.214  11.570  0.4255 -1.8185  0.0383
15264TIP3   OH267282   1.242   2.048  15.338  0.1257  0.3803  0.0179
15264TIP3    H167283   1.245   1.954  15.355 -0.1622  0.4764  0.6157
15264TIP3    H267284   1.195   2.056  15.255  0.3672 -0.0195 -0.1567
15265TIP3   OH267285   1.673   6.521   1.346 -0.1483 -0.3495 -0.0565
15265TIP3    H167286   1.711   6.604   1.373 -0.7813 -0.6393  1.7781
15265TIP3    H267287   1.726   6.493   1.271  1.2271  0.7938  0.4811
15266TIP3   OH267288   6.777   0.836   5.477 -0.1504  0.1092 -0.1816
15266TIP3    H167289   6.863   0.796   5.479 -0.7810 -1.3067 -0.7025
15266TIP3    H267290   6.766   0.868   5.387 -0.0867  0.4855 -0.0580
15267TIP3   OH267291   5.091   4.555  14.071  0.5220  0.4761  0.5084
15267TIP3    H167292   5.030   4.487  14.040  1.5526  0.1942 -0.9334
15267TIP3    H267293   5.175   4.510  14.077  1.1755  1.6047 -0.2956
15268TIP3   OH267294   5.596   4.432  13.644 -0.2042  0.8666 -0.0922
15268TIP3    H167295   5.566   4.509  13.596 -1.4762 -0.4413 -1.4546
15268TIP3    H267296   5.540   4.429  13.722 -0.6585  0.8936 -0.4158
15269TIP3   OH267297   3.956   2.085   0.476 -1.0964 -0.0839  0.2880
15269TIP3    H167298   3.930   1.995   0.494  0.2101 -0.7301 -0.9487
15269TIP3    H267299   3.947   2.130   0.560 -0.3999 -1.7013  1.2490
15270TIP3   OH267300   3.325   6.160  11.237  0.1036  0.4079 -0.1120
15270TIP3    H167301   3.381   6.087  11.266 -0.6025  0.7167  2.1062
15270TIP3    H267302   3.349   6.232  11.295 -1.7948  0.8796  0.0898
15271TIP3   OH267303   4.742   4.403   3.752  0.4005  0.0610 -0.2131
15271TIP3    H167304   4.747   4.405   3.656  0.5601  1.0769 -0.1857
15271TIP3    H267305   4.653   4.430   3.772  0.3404 -0.2401 -0.0804
15272TIP3   OH267306   4.640   3.921  12.691 -0.1195  0.4425  0.6209
15272TIP3    H167307   4.648   3.849  12.754  0.5790 -0.8183 -0.8784
15272TIP3    H267308   4.552   3.955  12.706 -0.9410 -1.5464  0.5291
15273TIP3   OH267309   2.790   0.907   3.470  0.0934  0.1440 -0.9247
15273TIP3    H167310   2.851   0.844   3.507 -1.3679  0.9387  3.0013
15273TIP3    H267311   2.704   0.867   3.480 -0.9449  2.9892  2.4054
15274TIP3   OH267312   3.256   3.295   0.995 -0.4466 -0.0262 -0.0106
15274TIP3    H167313   3.165   3.306   1.024 -0.2799 -1.4763  1.0980
15274TIP3    H267314   3.274   3.202   1.007  1.4017  0.3740  0.3955
15275TIP3   OH267315   5.968   4.215   5.111  0.2214  0.0640  0.2869
15275TIP3    H167316   5.963   4.167   5.194 -4.2982  0.1523  0.2064
15275TIP3    H267317   6.002   4.301   5.136  1.3388 -0.7232  1.6065
15276TIP3   OH267318   2.745   3.014  10.581 -0.1211 -0.0689 -0.2845
15276TIP3    H167319   2.750   3.066  10.661 -1.6930 -0.5111  0.1285
15276TIP3    H267320   2.816   2.951  10.588  1.5437  1.7470 -0.6053
15277TIP3   OH267321   6.431   1.521   6.778 -0.0160  0.3439  0.2782
15277TIP3    H167322   6.523   1.545   6.791  0.3806 -0.8288 -0.3553
15277TIP3    H267323   6.387   1.605   6.761  0.7348  1.0433  1.6405
15278TIP3   OH267324   6.098   0.897   2.618  0.2280  0.3841 -0.2426
15278TIP3    H167325   6.105   0.801   2.621 -2.5654  0.1690  1.0075
15278TIP3    H267326   6.058   0.916   2.534  1.3937  0.5447 -0.7820
15279TIP3   OH267327   1.958   6.507   2.096 -0.5062 -0.0475 -0.2813
15279TIP3    H167328   1.907   6.456   2.158  2.1894  0.0481  2.1025
15279TIP3    H267329   1.926   6.479   2.010 -1.5239 -3.1321  1.0288
15280TIP3   OH267330   2.326   6.273   1.705 -0.1197  0.4161 -0.3253
15280TIP3    H167331   2.360   6.363   1.711  0.0792  0.4378 -1.7413
15280TIP3    H267332   2.352   6.233   1.788  0.5656  1.3978 -0.0527
15281TIP3   OH267333   3.088   5.648   4.816 -0.2392  0.3222  0.0330
15281TIP3    H167334   3.067   5.664   4.724 -1.3296  2.2397  0.5757
15281TIP3    H267335   3.072   5.555   4.829 -1.0094  0.2333 -1.4918
15282TIP3   OH267336   4.941   1.256  16.824 -0.3614  0.0690 -0.1423
15282TIP3    H167337   4.900   1.174  16.795 -0.8190  0.0145  0.6209
15282TIP3    H267338   4.877   1.294  16.884  0.4279  0.3147  0.5503
15283TIP3   OH267339   4.870   4.307   3.962 -0.2494  0.7141 -0.1251
15283TIP3    H167340   4.891   4.397   3.990  1.3746  0.0396  0.9363
15283TIP3    H267341   4.822   4.317   3.880 -0.5801  2.5765  0.2798
15284TIP3   OH267342   3.862   3.443  15.969 -0.0584 -0.1932  0.0563
15284TIP3    H167343   3.905   3.487  15.896 -0.5542 -0.1177 -0.1925
15284TIP3    H267344   3.847   3.512  16.033 -2.3795  0.3778 -1.0359
15285TIP3   OH267345   2.014   3.208   6.041  0.3328  0.2165  0.3962
15285TIP3    H167346   2.036   3.292   6.001  0.0256  1.0626  1.9450
15285TIP3    H267347   2.099   3.167   6.058  0.5797  1.2073  1.6606
15286TIP3   OH267348   2.383   5.028   5.938 -0.2894  0.2783  0.3076
15286TIP3    H167349   2.424   4.994   6.018 -1.6878  0.6176  1.1875
15286TIP3    H267350   2.297   5.059   5.967 -2.0258 -2.2713 -1.8593
15287TIP3   OH267351   2.108   5.470  13.258  0.2030 -0.3860  0.1608
15287TIP3    H167352   2.203   5.473  13.246  0.3283  0.6819  1.3502
15287TIP3    H267353   2.089   5.377  13.272  1.0115 -0.6549 -0.4289
15288TIP3   OH267354   2.976   5.886   0.760 -0.6943 -0.0502  0.4326
15288TIP3    H167355   2.941   5.927   0.840 -3.1051 -1.2131  0.0378
15288TIP3    H267356   2.987   5.794   0.784  1.3366  0.1213  0.2552
15289TIP3   OH267357   5.114   0.822  17.128 -0.1338 -0.1963  0.2879
15289TIP3    H167358   5.199   0.848  17.165 -0.0218 -0.1652  0.0136
15289TIP3    H267359   5.128   0.732  17.099 -0.4180 -0.4493  0.9215
15290TIP3   OH267360   4.458   4.028   3.188 -0.0156 -0.1362  0.0233
15290TIP3    H167361   4.423   3.980   3.112  1.7149 -1.3591 -0.0171
15290TIP3    H267362   4.531   3.975   3.218  0.8440  1.6205  1.0623
15291TIP3   OH267363   2.246   2.793   2.876  0.5076  0.0010  0.1170
15291TIP3    H167364   2.267   2.878   2.837  0.0942  0.3163  0.5783
15291TIP3    H267365   2.227   2.736   2.801 -0.2310  0.5913 -0.1438
15292TIP3   OH267366   5.382   3.815  17.225  0.5851  0.0624  0.5521
15292TIP3    H167367   5.288   3.818  17.245  0.7511  0.7200  1.2373
15292TIP3    H267368   5.422   3.778  17.304  1.2833  2.9500  1.6112
15293TIP3   OH267369   5.411   1.545  12.327  0.8155 -0.6113 -0.1321
15293TIP3    H167370   5.427   1.637  12.305 -0.8838 -0.7644 -2.1474
15293TIP3    H267371   5.466   1.495  12.267 -0.3132 -0.9485 -0.9053
15294TIP3   OH267372   6.532   6.711  14.901  0.3550 -0.7117  0.0675
15294TIP3    H167373   6.578   6.640  14.857 -2.7722 -1.1027 -2.7914
15294TIP3    H267374   6.505   6.770  14.830 -1.1016  0.9354  1.9119
15295TIP3   OH267375   3.638   4.077   0.531  0.1142 -0.0830  0.4075
15295TIP3    H167376   3.593   3.995   0.513  2.7098 -1.6607  0.9317
15295TIP3    H267377   3.671   4.106   0.446  3.2235 -2.0487  0.8830
15296TIP3   OH267378   2.272   1.956  15.520 -0.6476  0.2036 -0.2164
15296TIP3    H167379   2.326   2.034  15.532  2.4800 -2.0189  0.8455
15296TIP3    H267380   2.289   1.928  15.430  1.9894 -1.8227  0.8201
15297TIP3   OH267381   4.454   0.272   1.107  0.1510  0.0129 -0.0026
15297TIP3    H167382   4.529   0.296   1.052  0.6237 -0.3077  0.4977
15297TIP3    H267383   4.492   0.220   1.178 -0.4877  0.2187  0.4960
15298TIP3   OH267384   0.382   4.631   6.782 -0.1115 -0.1240  0.2297
15298TIP3    H167385   0.320   4.703   6.796 -1.3721 -1.4925  1.8388
15298TIP3    H267386   0.445   4.640   6.853  0.2247 -0.1013 -0.0706
15299TIP3   OH267387   0.072   6.254   2.179  0.3736 -0.1413  0.4946
15299TIP3    H167388   0.052   6.293   2.265  0.6431 -1.1267  1.0058
15299TIP3    H267389   0.078   6.160   2.196  0.0823 -0.3739 -0.6758
15300TIP3   OH267390   0.738   4.396   5.312 -0.0781  0.0668 -0.5770
15300TIP3    H167391   0.827   4.397   5.346 -0.1501 -0.3389 -0.3791
15300TIP3    H267392   0.683   4.399   5.390 -0.2418 -0.1349 -0.6874
15301TIP3   OH267393   5.987   0.978  11.884  0.0541  0.2977  0.7011
15301TIP3    H167394   6.020   1.060  11.848  2.8103 -0.4819  1.3249
15301TIP3    H267395   6.015   0.912  11.821 -2.7799 -0.1122 -0.1669
15302TIP3   OH267396   5.381   6.718   2.570 -0.0700 -0.3574 -0.1339
15302TIP3    H167397   5.472   6.748   2.575 -0.6036  1.2664  0.1340
15302TIP3    H267398   5.355   6.734   2.480 -0.6889  1.0356  0.2718
15303TIP3   OH267399   6.618   0.714   0.291 -0.1776  0.0600 -0.1392
15303TIP3    H167400   6.708   0.680   0.291  0.7580  2.3282 -2.9267
15303TIP3    H267401   6.583   0.687   0.206 -1.3880  1.0709  0.0326
15304TIP3   OH267402   1.194   4.947  14.561  0.3574  0.4099  0.3680
15304TIP3    H167403   1.170   4.974  14.650  0.2295  0.3638  0.3483
15304TIP3    H267404   1.289   4.936  14.563  0.2950 -0.0941  0.6395
15305TIP3   OH267405   2.588   0.196   4.405  0.2766  0.0079  0.1990
15305TIP3    H167406   2.648   0.151   4.346 -0.3937 -2.5233  1.4097
15305TIP3    H267407   2.501   0.175   4.372 -0.0283  1.2577  0.1817
15306TIP3   OH267408   1.990   2.063  13.791 -0.3573  0.2606  0.1597
15306TIP3    H167409   1.942   2.139  13.826 -1.2468 -0.6216  0.9096
15306TIP3    H267410   1.999   2.081  13.698 -3.2249 -0.0892 -0.2287
15307TIP3   OH267411   4.033   0.177   3.279 -0.2304 -0.2144  0.2769
15307TIP3    H167412   4.104   0.117   3.256  0.1962 -0.0817  1.2170
15307TIP3    H267413   4.016   0.226   3.199 -1.5876 -2.5661 -0.9619
15308TIP3   OH267414   4.092   3.180  11.357 -0.7154  0.6988  0.1288
15308TIP3    H167415   4.178   3.220  11.365 -0.1006 -1.0295  3.0232
15308TIP3    H267416   4.052   3.190  11.444 -2.6724 -0.1632 -0.6329
15309TIP3   OH267417   3.963   2.683  11.919  0.0845 -0.4911  0.1216
15309TIP3    H167418   3.948   2.594  11.887 -0.6158  0.3508 -2.0009
15309TIP3    H267419   4.042   2.711  11.874 -0.6622  0.5652 -0.5436
15310TIP3   OH267420   5.402   4.258   0.884 -0.3197 -0.0002  0.2066
15310TIP3    H167421   5.337   4.328   0.888  0.6400  0.8544  1.2502
15310TIP3    H267422   5.381   4.209   0.805 -1.8132  0.6765  0.1794
15311TIP3   OH267423   2.822   4.299  13.404  0.7786 -0.0425 -0.3458
15311TIP3    H167424   2.776   4.239  13.344 -1.7027  1.8893 -0.4743
15311TIP3    H267425   2.861   4.364  13.347  1.7693 -0.3972 -0.0813
15312TIP3   OH267426   4.862   2.180  13.528 -0.7095 -0.1518  0.2920
15312TIP3    H167427   4.941   2.136  13.558 -0.6788  0.2281  0.7866
15312TIP3    H267428   4.795   2.155  13.591 -1.2347 -1.3022 -0.7186
15313TIP3   OH267429   0.401   2.345  16.513 -0.5687 -0.4811  0.0818
15313TIP3    H167430   0.493   2.335  16.486 -0.6616 -0.0428 -0.4132
15313TIP3    H267431   0.374   2.257  16.539 -0.3371 -0.8303 -0.8320
15314TIP3   OH267432   6.467   2.354  16.566 -0.0864 -0.0384 -0.7288
15314TIP3    H167433   6.448   2.269  16.605  0.0299  0.4103  0.3388
15314TIP3    H267434   6.393   2.370  16.506 -1.3960  0.2106  0.9067
15315TIP3   OH267435   2.771   1.655  16.170  0.0068  0.3950  0.0806
15315TIP3    H167436   2.791   1.731  16.224  0.9248  0.4290 -0.2952
15315TIP3    H267437   2.777   1.686  16.080  1.9844 -0.4609 -0.1311
15316TIP3   OH267438   5.704   0.254  15.420 -0.2548 -0.2532  0.7474
15316TIP3    H167439   5.754   0.320  15.468  2.0033 -1.8767  0.6611
15316TIP3    H267440   5.755   0.239  15.340 -0.5500 -2.4034  0.9518
15317TIP3   OH267441   4.878   6.682   2.941 -0.3446  0.3822 -0.7255
15317TIP3    H167442   4.904   6.613   2.880 -0.8814 -1.3576  0.9692
15317TIP3    H267443   4.956   6.738   2.948  1.2672 -1.9234  0.4050
15318TIP3   OH267444   2.792   4.922   5.251 -0.3452  0.2207  0.1104
15318TIP3    H167445   2.882   4.928   5.220 -0.5719  2.3922 -0.1476
15318TIP3    H267446   2.743   4.884   5.178 -0.1333  1.5577 -0.7307
15319TIP3   OH267447   3.304   1.770   4.405  0.3174  0.5951 -0.5690
15319TIP3    H167448   3.276   1.851   4.447 -2.0189  0.9695 -2.7646
15319TIP3    H267449   3.223   1.722   4.388  1.3830 -0.5800 -2.5148
15320TIP3   OH267450   4.296   2.257  16.476 -0.5823  0.2589  0.0312
15320TIP3    H167451   4.320   2.306  16.554 -0.7035 -0.1158  0.3010
15320TIP3    H267452   4.375   2.260  16.421  0.2835 -1.4084  1.1420
15321TIP3   OH267453   5.341   2.899   2.592  0.0659  0.7362  0.0131
15321TIP3    H167454   5.435   2.880   2.592  0.0674  0.7302  0.7708
15321TIP3    H267455   5.336   2.994   2.577  0.2438  0.9570  1.3248
15322TIP3   OH267456   5.565   0.970   2.195 -0.4765  0.0490 -0.0809
15322TIP3    H167457   5.511   0.917   2.137 -2.6056  2.3872 -0.3464
15322TIP3    H267458   5.555   0.929   2.281 -0.4561 -1.1545 -0.6407
15323TIP3   OH267459   2.806   0.779  12.804 -0.0796  0.3243  0.2998
15323TIP3    H167460   2.759   0.856  12.838 -0.2658  0.3128  0.0739
15323TIP3    H267461   2.892   0.782  12.847 -0.9406 -0.6997  2.1553
15324TIP3   OH267462   4.620   2.542  16.301  0.1680  0.5889  0.4348
15324TIP3    H167463   4.638   2.506  16.388 -1.3442  2.6019  1.6448
15324TIP3    H267464   4.695   2.597  16.281  0.5469  0.0710  0.4437
15325TIP3   OH267465   5.751   1.479  11.455  0.3395  0.0905  0.6375
15325TIP3    H167466   5.842   1.453  11.443 -0.2123 -1.9383  0.6391
15325TIP3    H267467   5.746   1.567  11.417  1.8498 -0.5579 -1.1467
15326TIP3   OH267468   0.080   5.854  11.435 -0.0335  0.5982  0.1503
15326TIP3    H167469   0.139   5.920  11.473  1.0269 -0.2514 -0.0154
15326TIP3    H267470   0.010   5.906  11.395  0.7548  1.6350  0.0819
15327TIP3   OH267471   4.322   2.039   0.412  0.3028  0.0025  0.2232
15327TIP3    H167472   4.378   2.076   0.480 -0.6490  0.7881  0.5947
15327TIP3    H267473   4.345   2.087   0.332  0.4613  0.0250  0.2822
15328TIP3   OH267474   5.091   3.710   5.206 -0.7715 -0.2727  0.4457
15328TIP3    H167475   5.169   3.669   5.245  0.5822  2.9657  1.3329
15328TIP3    H267476   5.032   3.723   5.280 -0.2527  1.3869  0.5798
15329TIP3   OH267477   0.058   0.609   0.324 -0.3143  0.1429  0.4361
15329TIP3    H167478   0.141   0.649   0.299 -0.5995  0.9022  0.6903
15329TIP3    H267479   0.046   0.537   0.263  0.8157 -0.3261  0.7600
15330TIP3   OH267480   0.486   6.733  14.007  0.3163 -0.4725  0.4031
15330TIP3    H167481   0.497   6.828  14.007  1.7609 -0.5995 -1.8866
15330TIP3    H267482   0.569   6.700  14.040  1.0872 -0.9940 -1.9386
15331TIP3   OH267483   0.161   4.759  14.337  0.3051 -0.3408 -0.2294
15331TIP3    H167484   0.160   4.721  14.425  2.0423  0.9863  0.4112
15331TIP3    H267485   0.100   4.706  14.286 -0.2162 -1.5388  1.6133
15332TIP3   OH267486   1.567   0.844  16.450 -0.1809 -0.6280 -0.0028
15332TIP3    H167487   1.590   0.781  16.519  1.1601  0.9057  0.9813
15332TIP3    H267488   1.640   0.906  16.449 -1.5671  1.0188 -0.8405
15333TIP3   OH267489   3.476   2.546  14.564 -0.3276 -0.7478  0.1300
15333TIP3    H167490   3.529   2.478  14.522 -1.6485 -2.2143  0.7964
15333TIP3    H267491   3.505   2.546  14.655 -0.7350 -0.8151  0.2575
15334TIP3   OH267492   1.763   3.865   5.620  0.8461  0.1299  0.1021
15334TIP3    H167493   1.852   3.898   5.632  0.4576  0.6549  1.6621
15334TIP3    H267494   1.711   3.909   5.688 -0.4618 -0.7083 -0.3245
15335TIP3   OH267495   0.423   0.031   0.675 -0.0772  0.2937 -0.0008
15335TIP3    H167496   0.449  -0.061   0.671 -1.9098 -0.3038  1.4636
15335TIP3    H267497   0.351   0.039   0.612 -0.9377  0.3802  0.9940
15336TIP3   OH267498   6.579   4.236   6.512 -0.2154  0.4607  0.3770
15336TIP3    H167499   6.654   4.196   6.557  0.5250  1.3445 -0.0384
15336TIP3    H267500   6.619   4.299   6.452 -1.1672 -0.7462 -1.5762
15337TIP3   OH267501   6.263   5.272  11.984 -0.2550 -0.4581  0.2163
15337TIP3    H167502   6.324   5.318  12.042 -0.7275 -0.7646  0.9663
15337TIP3    H267503   6.258   5.183  12.020  1.3518 -1.3862 -1.7389
15338TIP3   OH267504   3.055   6.353  11.446 -0.7089  0.1640 -0.1837
15338TIP3    H167505   3.056   6.277  11.388 -1.2193  0.5270 -0.6726
15338TIP3    H267506   3.123   6.411  11.413 -0.1671 -0.1797  0.3255
15339TIP3   OH267507   0.718   3.746  11.540  0.1252  0.7144 -1.0522
15339TIP3    H167508   0.699   3.716  11.629  0.6488  1.2571 -0.7608
15339TIP3    H267509   0.697   3.839  11.540  2.0261  1.1680 -0.9364
15340TIP3   OH267510   2.422   2.802   1.326 -0.3526  0.2777 -0.0504
15340TIP3    H167511   2.451   2.714   1.350 -0.9806  0.2904  0.7652
15340TIP3    H267512   2.423   2.801   1.230  0.7630 -0.2327 -0.0429
15341TIP3   OH267513   6.452   3.248  16.069  0.3938 -0.3560 -0.1010
15341TIP3    H167514   6.451   3.161  16.110  0.2166 -0.5600 -0.5319
15341TIP3    H267515   6.442   3.230  15.975  0.4680  0.1227 -0.2009
15342TIP3   OH267516   4.466   1.136  16.150 -0.0804 -0.4322  0.6650
15342TIP3    H167517   4.394   1.179  16.196 -1.5093 -1.3720 -0.6479
15342TIP3    H267518   4.433   1.048  16.130  0.3241  0.0888 -2.5218
15343TIP3   OH267519   0.677   3.876  14.968  0.0120 -0.1777  0.0005
15343TIP3    H167520   0.719   3.863  15.052 -1.2702 -2.0069  0.3906
15343TIP3    H267521   0.715   3.957  14.934 -0.3369  1.2568  2.8658
15344TIP3   OH267522   1.992   3.887   0.441  0.1850 -0.4172 -0.3778
15344TIP3    H167523   1.969   3.935   0.521  0.5188 -0.7433 -0.0838
15344TIP3    H267524   1.909   3.872   0.397  0.0094 -0.1486 -0.1420
15345TIP3   OH267525   6.204   2.069  16.664  0.5722 -0.4696 -0.7946
15345TIP3    H167526   6.166   2.157  16.659  0.6038 -0.4935 -1.5751
15345TIP3    H267527   6.223   2.056  16.757 -2.0243 -0.7454 -0.2414
15346TIP3   OH267528   3.487   6.636   2.512 -0.2550 -0.2210 -0.4894
15346TIP3    H167529   3.444   6.722   2.506  3.8252  1.7958 -3.0879
15346TIP3    H267530   3.552   6.647   2.581  0.7857 -0.9592 -1.3431
15347TIP3   OH267531   5.231   0.012  15.855  0.4229  0.2765  0.0090
15347TIP3    H167532   5.194   0.073  15.919  0.8327  1.6336 -1.0153
15347TIP3    H267533   5.156  -0.020  15.806  0.1202 -0.6850  1.0990
15348TIP3   OH267534   4.524   0.518   4.720 -0.1144 -0.1535  0.1515
15348TIP3    H167535   4.521   0.465   4.640  0.0959 -0.7454  0.5303
15348TIP3    H267536   4.471   0.469   4.783 -0.3871  0.3801  0.3342
15349TIP3   OH267537   1.653   2.913   6.448  0.2035  0.2201 -0.5481
15349TIP3    H167538   1.627   2.860   6.373 -1.4564  0.2973 -0.0652
15349TIP3    H267539   1.708   2.854   6.501 -3.1817 -1.7678  0.9574
15350TIP3   OH267540   6.216   4.444  12.216  0.1696 -0.0693  0.5164
15350TIP3    H167541   6.191   4.507  12.150  1.2016  1.1750  1.2789
15350TIP3    H267542   6.179   4.479  12.298 -2.4359 -2.3906  0.3960
15351TIP3   OH267543   3.512   3.982  16.102 -0.0157 -0.2417  0.0294
15351TIP3    H167544   3.596   3.999  16.145  0.0078 -1.3656  0.4325
15351TIP3    H267545   3.481   3.900  16.140 -1.5093  0.3775  0.1901
15352TIP3   OH267546   4.775   0.243  10.734  0.7262  0.0745  0.0728
15352TIP3    H167547   4.811   0.312  10.678  0.4908  2.0180  2.2424
15352TIP3    H267548   4.832   0.243  10.811 -1.0362 -0.1255  1.4034
15353TIP3   OH267549   0.453   5.665  15.039 -0.2048  0.2260  0.1691
15353TIP3    H167550   0.412   5.581  15.018  1.3483 -0.4989  0.0172
15353TIP3    H267551   0.398   5.701  15.109 -0.5779 -1.1378  0.6031
15354TIP3   OH267552   0.524   2.734   4.668  0.0930 -0.5700  0.0059
15354TIP3    H167553   0.600   2.708   4.721 -1.3312 -1.2512  1.7895
15354TIP3    H267554   0.476   2.796   4.724 -0.3171  0.3648 -1.3648
15355TIP3   OH267555   3.668   4.033  16.436  0.6567 -0.7542  0.3417
15355TIP3    H167556   3.731   3.991  16.495  0.6274 -0.1142  0.8280
15355TIP3    H267557   3.588   3.981  16.447  0.3655 -0.0827  1.5841
15356TIP3   OH267558   3.650   4.155  15.741 -0.7558  0.8203  0.2466
15356TIP3    H167559   3.609   4.167  15.656  0.7381 -1.1277 -0.7729
15356TIP3    H267560   3.582   4.112  15.794 -1.1756  0.6464 -0.4264
15357TIP3   OH267561   0.060   1.795   3.436 -0.4819  0.1152  0.1740
15357TIP3    H167562   0.033   1.885   3.417 -1.0125  0.3105  1.8602
15357TIP3    H267563  -0.017   1.754   3.473  0.9492  0.1846  3.3850
15358TIP3   OH267564   6.253   1.483   0.655 -0.0631  0.9391 -0.1501
15358TIP3    H167565   6.167   1.450   0.631  0.3759 -0.1868 -0.2154
15358TIP3    H267566   6.250   1.576   0.633 -1.9009  1.3342  1.6247
15359TIP3   OH267567   2.292   4.308  15.195  0.0261 -0.0821  0.0461
15359TIP3    H167568   2.367   4.295  15.253 -1.2680  0.0521  1.7763
15359TIP3    H267569   2.272   4.401  15.204 -1.1766 -0.3965  0.6231
15360TIP3   OH267570   1.085   5.795   3.110  0.0605  0.4717 -0.3099
15360TIP3    H167571   1.001   5.805   3.155 -1.3416 -1.7543 -2.3125
15360TIP3    H267572   1.104   5.701   3.114  1.7042  0.7424 -1.1637
15361TIP3   OH267573   3.294   4.470   1.403  0.5629 -0.2376  0.1076
15361TIP3    H167574   3.388   4.457   1.389  0.7183  0.8289  0.1588
15361TIP3    H267575   3.288   4.547   1.459 -0.2727 -1.4366  1.7218
15362TIP3   OH267576   1.894   2.794  14.212 -0.0761 -0.1673  0.4080
15362TIP3    H167577   1.849   2.710  14.215  0.1119 -0.2721  0.2814
15362TIP3    H267578   1.834   2.852  14.166 -0.2447 -0.2080  0.5761
15363TIP3   OH267579   4.256   5.081   5.645  0.7263  0.0109  0.6516
15363TIP3    H167580   4.204   5.017   5.694 -0.7007  1.2024  0.7169
15363TIP3    H267581   4.250   5.161   5.696  1.6523  0.4911  0.0244
15364TIP3   OH267582   0.344   6.803   4.321  0.2790  0.2993 -0.7708
15364TIP3    H167583   0.431   6.824   4.286  0.7389  1.5978  1.0835
15364TIP3    H267584   0.285   6.816   4.247  1.5045  0.7285 -1.6979
15365TIP3   OH267585   6.817   1.718   2.311 -0.1419  0.1762 -0.0862
15365TIP3    H167586   6.775   1.698   2.394  0.7610  1.6611  0.7391
15365TIP3    H267587   6.806   1.638   2.259 -0.0304 -1.0502  1.7276
15366TIP3   OH267588   5.527   2.900   0.923 -0.5371  0.0665  0.5191
15366TIP3    H167589   5.588   2.956   0.971  0.2817  1.5794 -2.1855
15366TIP3    H267590   5.550   2.913   0.831 -1.6658 -3.2234 -0.2754
15367TIP3   OH267591   4.802   3.024  16.421  0.1613 -0.1216  0.2505
15367TIP3    H167592   4.721   3.007  16.469 -1.1464  1.2100 -1.4312
15367TIP3    H267593   4.799   3.118  16.401  0.8929 -0.5484 -2.0097
15368TIP3   OH267594   0.294   2.840  16.567  0.2612  0.1940 -0.5404
15368TIP3    H167595   0.370   2.861  16.622 -0.7812  0.1819  0.9437
15368TIP3    H267596   0.246   2.775  16.617 -0.7131  0.1780 -1.4890
15369TIP3   OH267597   1.266   4.073  13.304 -0.6133 -0.2795 -0.5091
15369TIP3    H167598   1.360   4.058  13.317 -0.4993  0.7347 -0.0934
15369TIP3    H267599   1.255   4.074  13.209 -0.3823 -1.4524 -0.5502
15370TIP3   OH267600   2.512   0.907  14.997 -0.6523 -0.1073  0.3590
15370TIP3    H167601   2.555   0.850  14.933 -0.9430 -1.2527  1.1804
15370TIP3    H267602   2.499   0.852  15.074  0.6178  1.5580  1.7944
15371TIP3   OH267603   1.084   1.074  15.837  0.7278  0.7707 -0.0762
15371TIP3    H167604   1.084   1.009  15.906 -1.5743  1.4552  0.6080
15371TIP3    H267605   1.062   1.025  15.758  1.0586  0.3969  0.0576
15372TIP3   OH267606   4.212   3.218   2.004  0.0341 -0.0186 -0.0789
15372TIP3    H167607   4.245   3.188   2.089 -0.3127  0.5446  0.2634
15372TIP3    H267608   4.126   3.178   1.996  0.4716 -0.8543 -0.6118
15373TIP3   OH267609   3.345   5.106  13.955 -0.2011  0.3128  0.2072
15373TIP3    H167610   3.362   5.013  13.965  0.1090  0.3151 -0.3098
15373TIP3    H267611   3.250   5.111  13.938 -0.0584  0.0225 -0.6927
15374TIP3   OH267612   1.348   2.904  11.981 -0.1513  0.1554  0.1898
15374TIP3    H167613   1.296   2.984  11.988  0.5238  0.5286  1.0085
15374TIP3    H267614   1.396   2.914  11.899 -1.3292 -0.1836 -0.5676
15375TIP3   OH267615   5.621   5.210  11.531  0.1640 -0.3610  0.1668
15375TIP3    H167616   5.538   5.252  11.510 -0.8791 -3.4839 -2.1010
15375TIP3    H267617   5.686   5.262  11.483 -0.7319  0.5709 -0.0650
15376TIP3   OH267618   4.525   4.253   2.875  0.0766 -1.0601  0.2505
15376TIP3    H167619   4.455   4.245   2.810  0.1177 -0.0328  0.0763
15376TIP3    H267620   4.480   4.246   2.959 -0.3225  0.1986  0.1484
15377TIP3   OH267621   5.578   0.504   1.199  0.1173  0.1575 -0.1138
15377TIP3    H167622   5.667   0.540   1.205 -0.1111  0.7558 -0.2594
15377TIP3    H267623   5.546   0.533   1.113 -0.1617 -0.1808 -0.1242
15378TIP3   OH267624   2.886   2.465   0.525  0.4842 -0.3194  0.1944
15378TIP3    H167625   2.976   2.495   0.540 -0.3278  2.7244 -0.7009
15378TIP3    H267626   2.886   2.433   0.435  0.3706  0.9185 -0.2519
15379TIP3   OH267627   4.137   1.974   3.367 -0.4548 -0.2718  0.7857
15379TIP3    H167628   4.142   2.049   3.309  0.4303 -0.7763  0.1937
15379TIP3    H267629   4.043   1.954   3.373 -0.6278  0.3952  0.3366
15380TIP3   OH267630   5.085   0.899  13.989  0.2727  0.0860 -0.3450
15380TIP3    H167631   5.019   0.922  14.054 -1.3199 -1.2603 -1.4544
15380TIP3    H267632   5.083   0.971  13.926  1.7647  1.3555  0.9852
15381TIP3   OH267633   2.916   3.206   6.413 -0.2301  0.0207  0.0239
15381TIP3    H167634   2.966   3.287   6.419  0.5399 -0.1875 -2.8365
15381TIP3    H267635   2.981   3.136   6.409 -0.8442 -0.6110  0.8918
15382TIP3   OH267636   6.323   4.859   5.653  0.4760 -0.5692 -0.0923
15382TIP3    H167637   6.287   4.936   5.609  1.1765  0.0571  0.4391
15382TIP3    H267638   6.253   4.793   5.646  0.1396 -0.1143 -1.1436
15383TIP3   OH267639   2.563   1.816  10.890 -0.4214 -0.6109 -0.5972
15383TIP3    H167640   2.584   1.772  10.808  0.3016 -0.8331 -0.2962
15383TIP3    H267641   2.487   1.769  10.924  0.5309 -1.8333 -0.1274
15384TIP3   OH267642   0.190   2.907   1.206  0.2034  0.1209 -0.7307
15384TIP3    H167643   0.189   2.812   1.222 -0.3224  0.4503  1.3640
15384TIP3    H267644   0.156   2.945   1.288  1.8959  2.1948 -0.9587
15385TIP3   OH267645   2.081   5.858  15.789 -0.1590  0.1534 -0.9716
15385TIP3    H167646   2.046   5.929  15.735  0.5961 -0.4934 -2.3512
15385TIP3    H267647   2.042   5.779  15.753  0.4003 -0.2930 -0.6105
15386TIP3   OH267648   1.593   3.059   1.969 -0.0635 -0.4186 -0.4263
15386TIP3    H167649   1.543   3.103   1.900 -1.2526 -0.1713  0.5880
15386TIP3    H267650   1.683   3.088   1.955 -0.0892 -1.2439 -2.5738
15387TIP3   OH267651   1.182   0.869   1.247  0.2514 -0.1731 -0.2729
15387TIP3    H167652   1.269   0.828   1.245  0.1110 -0.6077  1.4674
15387TIP3    H267653   1.195   0.954   1.204  1.7301  0.0975  0.6643
15388TIP3   OH267654   2.927   0.500  11.200 -0.1892 -0.7718 -0.5859
15388TIP3    H167655   2.988   0.454  11.258  1.4556 -0.0222 -1.6792
15388TIP3    H267656   2.932   0.592  11.228 -3.4221 -1.1504  1.5610
15389TIP3   OH267657   2.651   4.115  14.847 -0.0865  0.1968 -0.8197
15389TIP3    H167658   2.575   4.137  14.901 -0.6777 -0.6855 -1.2777
15389TIP3    H267659   2.633   4.154  14.762  0.5471  1.0344 -0.5769
15390TIP3   OH267660   2.658   4.051  13.896 -0.1599  0.1117 -0.3578
15390TIP3    H167661   2.732   4.072  13.839  0.0481  1.9036  0.5424
15390TIP3    H267662   2.583   4.092  13.855 -0.0134  1.3892  0.6143
15391TIP3   OH267663   5.841   0.570  14.081  0.5985 -0.9780  0.1536
15391TIP3    H167664   5.790   0.638  14.126  0.1107 -0.6528 -0.8476
15391TIP3    H267665   5.860   0.505  14.148 -0.5998 -0.7883  0.7026
15392TIP3   OH267666   0.419   4.756   0.792 -0.4252 -0.1354 -0.2342
15392TIP3    H167667   0.461   4.688   0.738 -1.2467 -0.6193 -0.2654
15392TIP3    H267668   0.436   4.728   0.882  0.8958  0.6426 -0.2258
15393TIP3   OH267669   6.056   6.066   6.198 -0.5643  0.1064  0.0438
15393TIP3    H167670   6.045   6.025   6.285 -1.8698  0.1241 -0.0947
15393TIP3    H267671   6.137   6.116   6.206 -0.1422 -0.6739  0.9450
15394TIP3   OH267672   0.721   3.505   6.081 -0.2993  0.4887  0.4906
15394TIP3    H167673   0.676   3.509   6.165  1.5286 -1.3368  1.6236
15394TIP3    H267674   0.700   3.419   6.046  1.2994  0.0804  0.4861
15395TIP3   OH267675   3.521   0.302   4.559  0.1922  0.3790  0.3020
15395TIP3    H167676   3.430   0.321   4.582  0.0445 -0.4951  0.4471
15395TIP3    H267677   3.551   0.242   4.628 -0.0561 -1.7598 -1.4200
15396TIP3   OH267678   0.995   1.952   6.021  0.2652 -0.2919  0.3023
15396TIP3    H167679   0.921   1.911   5.976  0.9461 -1.9438  0.6570
15396TIP3    H267680   1.034   2.010   5.955 -2.5478  2.2338  0.7241
15397TIP3   OH267681   2.006   5.159   0.192  0.0057  0.3246  0.0584
15397TIP3    H167682   1.955   5.233   0.224 -0.2141  0.9471 -1.6555
15397TIP3    H267683   1.969   5.140   0.106 -0.0352 -1.8773  0.5271
15398TIP3   OH267684   4.802   0.524  11.481 -0.2063  0.2159  0.2042
15398TIP3    H167685   4.756   0.589  11.534  0.3691  0.8781 -0.1081
15398TIP3    H267686   4.894   0.535  11.504 -0.1251 -0.6252  0.2954
15399TIP3   OH267687   0.031   3.417   0.563 -0.2963  0.2799  0.0072
15399TIP3    H167688  -0.022   3.390   0.488  0.3389  0.6838 -0.5844
15399TIP3    H267689  -0.032   3.458   0.623 -0.5428  1.4101 -1.0138
15400TIP3   OH267690   0.947   3.259   5.144  0.2484 -0.0775 -0.2739
15400TIP3    H167691   1.021   3.256   5.084  1.3231  0.3545  1.0056
15400TIP3    H267692   0.954   3.344   5.188 -0.1346 -0.6442  0.9146
15401TIP3   OH267693   0.061   3.345   3.983 -0.1345 -0.1279 -0.0622
15401TIP3    H167694   0.117   3.422   3.992  0.9808 -0.5788 -2.8432
15401TIP3    H267695   0.112   3.284   3.931 -2.9383 -0.8295 -2.0637
15402TIP3   OH267696   2.984   3.304   1.019 -0.0724 -0.2512 -0.1372
15402TIP3    H167697   2.961   3.329   1.109  0.5297  0.6694 -0.2325
15402TIP3    H267698   2.984   3.387   0.971  1.6489 -0.4797 -0.5405
15403TIP3   OH267699   6.413   0.842  17.046  0.6488  0.1177 -0.4900
15403TIP3    H167700   6.329   0.835  17.000  0.0470 -1.6792  0.8267
15403TIP3    H267701   6.389   0.867  17.135  1.4601 -0.8318  0.0092
15404TIP3   OH267702   3.335   1.156   2.238 -0.1151 -0.0610  0.2270
15404TIP3    H167703   3.299   1.174   2.151  0.1133 -0.2993  0.0814
15404TIP3    H267704   3.409   1.097   2.221 -0.7926 -1.0553  0.6805
15405TIP3   OH267705   6.084   0.186  11.461 -0.1714  0.0209  0.1563
15405TIP3    H167706   6.070   0.247  11.389  0.8749  0.5513  0.4023
15405TIP3    H267707   6.167   0.143  11.442 -0.3955 -0.5947  0.5151
15406TIP3   OH267708   1.917   4.315   3.293  0.2871 -0.2475  0.1349
15406TIP3    H167709   1.962   4.398   3.308 -1.3733  0.6719  0.0848
15406TIP3    H267710   1.862   4.331   3.217  0.0644 -1.4499  0.0309
15407TIP3   OH267711   5.450   5.611   3.984  0.4020 -0.5284 -0.4491
15407TIP3    H167712   5.477   5.637   4.072 -1.8168 -1.1972  0.4582
15407TIP3    H267713   5.445   5.515   3.988  0.3358 -0.5704 -1.3447
15408TIP3   OH267714   2.171   6.276   5.252  0.0614 -0.0522 -0.0861
15408TIP3    H167715   2.260   6.303   5.273  0.3898 -0.4181 -0.9849
15408TIP3    H267716   2.128   6.266   5.337  0.1956  2.4112  0.3262
15409TIP3   OH267717   4.660   6.509  14.709 -0.2498  0.2622 -0.2566
15409TIP3    H167718   4.593   6.451  14.744 -0.5116  0.5205 -0.3259
15409TIP3    H267719   4.707   6.542  14.785  1.7324 -2.2288 -0.3681
15410TIP3   OH267720   6.564   4.996  10.850 -0.3327  0.1356  0.0754
15410TIP3    H167721   6.481   5.014  10.894 -1.2647  1.2739 -2.0658
15410TIP3    H267722   6.567   5.058  10.777  1.6412 -0.9731 -0.8465
15411TIP3   OH267723   4.630   2.408   5.390 -0.4048 -0.0923  0.0582
15411TIP3    H167724   4.542   2.411   5.426 -0.8999  0.3654 -1.1879
15411TIP3    H267725   4.618   2.383   5.299  0.6009  1.9103 -0.6477
15412TIP3   OH267726   3.961   2.135  13.616  0.2636 -0.3026 -0.3922
15412TIP3    H167727   3.954   2.136  13.711 -2.9825 -1.5364 -0.5590
15412TIP3    H267728   4.027   2.068  13.597  0.5291 -0.4320  0.9331
15413TIP3   OH267729   5.172   6.277  14.263 -0.1929 -0.4053  0.3523
15413TIP3    H167730   5.232   6.350  14.253 -1.6444  0.7345 -0.1725
15413TIP3    H267731   5.224   6.200  14.240  0.8476  0.6413 -0.8726
15414TIP3   OH267732   4.174   5.796  11.551  0.0900 -0.2230 -0.0172
15414TIP3    H167733   4.143   5.886  11.556 -0.1299 -0.3139  0.2614
15414TIP3    H267734   4.107   5.749  11.502  1.0834  0.1499 -1.7905
15415TIP3   OH267735   4.358   2.416  15.179  0.8068 -0.4038 -0.0652
15415TIP3    H167736   4.320   2.455  15.100  1.1433  2.2627  1.0613
15415TIP3    H267737   4.453   2.419  15.164  0.8131 -1.3640 -0.2326
15416TIP3   OH267738   1.548   4.329   1.384  0.0732 -0.6028 -0.0784
15416TIP3    H167739   1.587   4.250   1.347  2.6426  0.6852 -0.1949
15416TIP3    H267740   1.507   4.373   1.310  1.7714 -0.0292 -0.6892
15417TIP3   OH267741   0.554   1.741  11.614  0.1543  0.3844  0.0885
15417TIP3    H167742   0.620   1.712  11.551  1.3360  0.4561  1.2764
15417TIP3    H267743   0.604   1.771  11.690 -1.1988  1.8438  0.4299
15418TIP3   OH267744   1.254   3.478   2.837  0.0690  0.3118  0.4818
15418TIP3    H167745   1.301   3.560   2.824 -1.3417  1.1596  0.6090
15418TIP3    H267746   1.210   3.463   2.754  0.0217 -0.1213  0.5856
15419TIP3   OH267747   3.499   0.553  14.571 -0.6647 -0.7801 -0.2454
15419TIP3    H167748   3.590   0.526  14.586 -0.6043 -0.0132  0.8655
15419TIP3    H267749   3.494   0.573  14.478  0.1912 -1.2372 -0.3940
15420TIP3   OH267750   4.652   6.424  13.831  0.0898 -0.4111  0.5278
15420TIP3    H167751   4.717   6.414  13.900 -0.6792 -0.7944  1.2089
15420TIP3    H267752   4.697   6.398  13.750  1.0206  0.1362  0.8613
15421TIP3   OH267753   3.233   3.448   0.154 -0.6293 -0.1314 -0.1268
15421TIP3    H167754   3.217   3.395   0.076 -2.0208 -0.5705  0.4432
15421TIP3    H267755   3.252   3.536   0.121  1.8248 -0.9986 -1.0834
15422TIP3   OH267756   4.923   4.640   0.430  0.0883  0.0234 -0.4686
15422TIP3    H167757   4.896   4.731   0.439  0.5911  0.0998  0.3015
15422TIP3    H267758   4.843   4.594   0.403  0.0707  0.8459 -1.8671
15423TIP3   OH267759   5.298   6.798   2.278 -0.0045  0.2154 -0.0620
15423TIP3    H167760   5.217   6.846   2.260  0.0576  0.0387 -0.8339
15423TIP3    H267761   5.366   6.865   2.277 -0.2468  0.5255  1.5890
15424TIP3   OH267762   6.646   3.553   1.736 -0.7327  0.3566  0.3623
15424TIP3    H167763   6.560   3.594   1.731  0.0774  2.1557  0.6064
15424TIP3    H267764   6.661   3.517   1.648 -1.2089  1.1476 -0.0459
15425TIP3   OH267765   1.283   5.930   5.015  0.1864  0.8495 -0.0466
15425TIP3    H167766   1.377   5.924   5.028 -0.0719  2.9272  3.3837
15425TIP3    H267767   1.273   5.954   4.923  2.9085 -0.6113 -0.7887
15426TIP3   OH267768   2.115   5.264  11.832  0.3633  0.3339  0.2151
15426TIP3    H167769   2.206   5.285  11.811  0.3958 -0.0064  0.0262
15426TIP3    H267770   2.117   5.173  11.861  0.1963  0.5450  0.9014
15427TIP3   OH267771   0.804   0.168  17.230 -0.0596 -0.4557 -0.2187
15427TIP3    H167772   0.848   0.084  17.236  0.6915 -0.1609 -1.4646
15427TIP3    H267773   0.869   0.232  17.260 -0.9064 -0.3954  1.5256
15428TIP3   OH267774   6.532   3.034  14.965  0.4182 -0.9207 -0.0147
15428TIP3    H167775   6.570   3.062  14.882 -0.2038 -1.5390 -0.5075
15428TIP3    H267776   6.438   3.025  14.947  0.1361 -0.1512  0.9907
15429TIP3   OH267777   5.221   3.975  15.888 -0.7339  0.0694 -0.2157
15429TIP3    H167778   5.241   4.060  15.850 -1.8254 -0.1996 -1.4215
15429TIP3    H267779   5.300   3.950  15.935 -0.7888  2.2764  1.1350
15430TIP3   OH267780   2.263   2.957  10.452  0.2802 -0.2881  0.6924
15430TIP3    H167781   2.189   3.005  10.488  0.8771  0.7609  0.5367
15430TIP3    H267782   2.333   2.967  10.517  0.5632 -0.5291  0.4288
15431TIP3   OH267783   1.881   5.599  15.998 -0.0896  0.0233 -0.1990
15431TIP3    H167784   1.871   5.546  15.919 -0.3420 -1.0474  0.5437
15431TIP3    H267785   1.842   5.683  15.976 -0.8064 -0.5120 -0.9713
15432TIP3   OH267786   0.755   4.778  12.499  0.1908 -0.3031  0.2540
15432TIP3    H167787   0.661   4.763  12.515 -0.0804  1.9037  1.0308
15432TIP3    H267788   0.799   4.725  12.565 -0.5042 -1.5353 -0.2636
15433TIP3   OH267789   0.915   4.175  12.620  0.1734 -0.7774  0.0417
15433TIP3    H167790   0.959   4.097  12.652  0.6309 -0.8039 -0.6516
15433TIP3    H267791   0.969   4.248  12.652 -0.5314 -0.7272  1.1144
15434TIP3   OH267792   0.522   3.708  17.034 -1.0309 -0.1226 -0.4459
15434TIP3    H167793   0.467   3.764  17.088 -0.2321 -1.1539  1.4911
15434TIP3    H267794   0.586   3.768  16.995  0.6574  0.2003  2.6715
15435TIP3   OH267795   5.211   4.033  11.360  0.2730 -0.0716  0.2639
15435TIP3    H167796   5.276   4.077  11.306  1.0452  0.1067  1.3292
15435TIP3    H267797   5.256   4.013  11.442 -0.7272 -0.8104  0.6527
15436TIP3   OH267798   1.104   4.003   1.144  0.1172  0.0484 -0.5812
15436TIP3    H167799   1.121   4.097   1.140 -1.4224  0.2935 -1.6980
15436TIP3    H267800   1.009   3.995   1.150  0.2096 -1.4502 -0.7317
15437TIP3   OH267801   4.686   6.787   1.999  0.1875 -0.7451 -0.8205
15437TIP3    H167802   4.745   6.721   2.035 -0.7459 -0.9265  0.3835
15437TIP3    H267803   4.612   6.789   2.059 -0.9292 -0.3493 -2.1971
15438TIP3   OH267804   2.828   2.208  12.396 -0.1725  0.1869  0.6082
15438TIP3    H167805   2.903   2.151  12.381 -0.5019  0.1635 -0.9726
15438TIP3    H267806   2.756   2.167  12.348 -0.7276  1.2440  0.5100
15439TIP3   OH267807   5.953   1.420   1.806 -0.2331  0.4643 -0.1720
15439TIP3    H167808   6.013   1.360   1.762  1.8465  0.8074  2.0838
15439TIP3    H267809   6.009   1.491   1.838 -1.7122  0.4076  2.6479
15440TIP3   OH267810   0.511   6.777   3.500  0.0260 -0.6649  0.4387
15440TIP3    H167811   0.429   6.821   3.524  0.3336 -0.7327  1.6688
15440TIP3    H267812   0.493   6.684   3.513  0.9302 -0.5530  2.8177
15441TIP3   OH267813   4.127   1.664  16.139 -0.0287 -0.8387 -0.0161
15441TIP3    H167814   4.057   1.645  16.202 -0.9743  1.5961 -0.3150
15441TIP3    H267815   4.135   1.583  16.088 -1.3846 -1.7635  1.1801
15442TIP3   OH267816   6.624   4.344  16.208  0.9309  0.0879  0.0748
15442TIP3    H167817   6.658   4.259  16.238 -0.8008 -1.0179 -0.9829
15442TIP3    H267818   6.529   4.331  16.203  0.6343  2.1915  0.1562
15443TIP3   OH267819   4.630   2.817   6.476  0.3851 -0.4468 -0.0474
15443TIP3    H167820   4.707   2.818   6.420  0.9281 -0.9783  0.6772
15443TIP3    H267821   4.662   2.849   6.561  0.3325 -2.8331  0.8958
15444TIP3   OH267822   5.599   0.608   3.847 -0.1862 -0.0879  0.1254
15444TIP3    H167823   5.566   0.601   3.936  0.9915  1.0349  0.6476
15444TIP3    H267824   5.530   0.568   3.793  0.0635 -2.7961  1.7120
15445TIP3   OH267825   4.997   2.895   1.955 -0.4831 -0.0972 -0.0244
15445TIP3    H167826   4.976   2.941   2.036 -0.7389 -0.0529 -0.1160
15445TIP3    H267827   4.913   2.883   1.911 -0.2944  0.2541 -0.4868
15446TIP3   OH267828   5.731   3.591  15.438  0.3480  0.0858  0.1411
15446TIP3    H167829   5.803   3.651  15.457  0.2130  0.8005 -1.5087
15446TIP3    H267830   5.652   3.643  15.456  0.2230  0.6554 -1.9475
15447TIP3   OH267831   6.816   6.460  16.321 -0.2678  0.4913  0.4814
15447TIP3    H167832   6.867   6.380  16.316  2.1878  2.0561 -0.4542
15447TIP3    H267833   6.761   6.459  16.243  0.7284  0.3413 -0.2241
15448TIP3   OH267834   4.051   5.990   6.424  0.1905 -0.0446  0.3624
15448TIP3    H167835   4.020   5.919   6.369 -0.4009  1.0422 -0.7155
15448TIP3    H267836   4.142   6.004   6.397 -0.4121  1.1879 -1.0972
15449TIP3   OH267837   2.126   2.464  12.611 -0.2160  0.2950 -0.0878
15449TIP3    H167838   2.081   2.541  12.576 -0.2238  0.8865  1.1811
15449TIP3    H267839   2.094   2.456  12.701  0.7942 -0.3868  0.2279
15450TIP3   OH267840   6.678   6.335  14.649 -0.4568  0.1805  0.3217
15450TIP3    H167841   6.657   6.249  14.614  0.7007  0.1396 -0.2940
15450TIP3    H267842   6.705   6.318  14.739 -0.5808 -0.0530  0.3152
15451TIP3   OH267843   0.699   2.420  12.468  0.1591 -0.1847  0.0587
15451TIP3    H167844   0.659   2.391  12.385  2.7684 -0.4097 -1.1750
15451TIP3    H267845   0.650   2.373  12.535 -0.8014 -1.4494 -1.4713
15452TIP3   OH267846   1.974   6.046   5.145  0.3318 -0.1806 -0.0825
15452TIP3    H167847   2.069   6.047   5.156  0.1522 -0.4358  1.6678
15452TIP3    H267848   1.946   6.135   5.166  0.0968 -0.3192  0.1859
15453TIP3   OH267849   2.853   2.685   1.459  0.0521 -0.1717  0.5387
15453TIP3    H167850   2.862   2.590   1.469 -0.2457 -0.2721 -0.1319
15453TIP3    H267851   2.924   2.710   1.400  0.7404  0.1664  1.5091
15454TIP3   OH267852   6.492   2.545   2.428 -0.3078  0.2738 -0.0305
15454TIP3    H167853   6.579   2.520   2.396 -0.4125 -0.4761  0.2603
15454TIP3    H267854   6.505   2.630   2.470  0.5598 -0.4804  1.2424
15455TIP3   OH267855   1.849   5.055  14.021  0.3901 -0.3195  0.1400
15455TIP3    H167856   1.792   5.088  13.951  0.8268 -0.7810 -0.4270
15455TIP3    H267857   1.809   5.089  14.101  0.8032  1.5822 -0.4359
15456TIP3   OH267858   5.428   0.386   2.517 -0.1997 -0.3436  0.1754
15456TIP3    H167859   5.433   0.296   2.484  0.2093  0.4548 -1.9894
15456TIP3    H267860   5.341   0.416   2.491  0.4852  0.6104 -1.0381
15457TIP3   OH267861   4.334   3.645  16.779  0.1604 -0.0553 -0.2559
15457TIP3    H167862   4.364   3.710  16.715  2.3085  0.0686  0.8469
15457TIP3    H267863   4.409   3.587  16.792 -1.1171 -1.6735  0.1842
15458TIP3   OH267864   4.627   2.698  12.549  0.1542  0.0909 -0.4481
15458TIP3    H167865   4.707   2.647  12.559 -0.3826 -0.5610  0.6585
15458TIP3    H267866   4.583   2.692  12.634 -0.1552  2.0302 -0.4387
15459TIP3   OH267867   1.510   5.831   1.506  0.4980  0.5634 -0.2786
15459TIP3    H167868   1.533   5.889   1.434  0.6467 -0.2753 -0.9095
15459TIP3    H267869   1.414   5.832   1.508  0.4536 -0.5401 -1.4203
15460TIP3   OH267870   4.201   3.403  12.410 -0.1694  0.6958 -0.0730
15460TIP3    H167871   4.131   3.436  12.467 -0.7566 -1.1750  0.3359
15460TIP3    H267872   4.263   3.363  12.471  0.5765  1.1145 -0.5530
15461TIP3   OH267873   0.856   3.293   1.609 -0.5209 -0.1964  0.1975
15461TIP3    H167874   0.802   3.218   1.584  0.7653 -0.2913 -2.3950
15461TIP3    H267875   0.810   3.369   1.575 -0.0854 -0.0918 -0.1526
15462TIP3   OH267876   0.466   6.074   0.548  0.8404 -0.2969 -0.0598
15462TIP3    H167877   0.489   5.992   0.502  1.3542  0.7103 -1.6530
15462TIP3    H267878   0.371   6.080   0.538  0.5008 -1.8053  1.9835
15463TIP3   OH267879   3.145   4.841  14.143 -0.1800  0.0048  0.8186
15463TIP3    H167880   3.147   4.937  14.146 -0.2856  0.0655 -0.6660
15463TIP3    H267881   3.053   4.818  14.130 -0.2630 -0.3386  1.9380
15464TIP3   OH267882   5.232   4.360   2.616  0.0771 -0.2521  0.0478
15464TIP3    H167883   5.289   4.388   2.687 -0.7206 -0.1207  0.6447
15464TIP3    H267884   5.160   4.314   2.659 -0.1032 -0.7060 -0.7142
15465TIP3   OH267885   3.440   0.575  12.581 -0.0153 -0.2236  0.7825
15465TIP3    H167886   3.356   0.533  12.566 -0.2535  0.2010  0.9282
15465TIP3    H267887   3.482   0.579  12.495 -0.8977  1.1944  0.4121
15466TIP3   OH267888   2.650   6.429   2.195 -0.6935  0.5800 -0.5057
15466TIP3    H167889   2.661   6.489   2.268  0.1043 -1.3613  1.0191
15466TIP3    H267890   2.564   6.452   2.158 -1.9725  0.4095  2.1954
15467TIP3   OH267891   6.687   0.271   5.934  0.3976 -0.0128 -0.1409
15467TIP3    H167892   6.760   0.245   5.878 -0.0845 -0.4146 -0.5837
15467TIP3    H267893   6.631   0.325   5.878  1.0940  1.4976  0.6088
15468TIP3   OH267894   2.766   1.028  13.356 -0.1822  0.5824  0.0682
15468TIP3    H167895   2.716   1.005  13.277 -0.5647  1.2279  0.1219
15468TIP3    H267896   2.702   1.070  13.413 -0.1193 -0.7001  1.1096
15469TIP3   OH267897   2.559   1.106   2.055 -0.3835  0.3852  0.1727
15469TIP3    H167898   2.645   1.140   2.031  0.4355 -1.2181  0.7922
15469TIP3    H267899   2.507   1.115   1.976  0.4695  0.9860 -0.3288
15470TIP3   OH267900   5.868   0.966   0.491  0.2174 -0.3241  0.4377
15470TIP3    H167901   5.908   1.047   0.523 -0.1391 -0.1582  0.4608
15470TIP3    H267902   5.906   0.897   0.545  1.4064 -0.3045 -0.3477
15471TIP3   OH267903   4.410   5.761  16.929  0.1761  0.5684  0.0514
15471TIP3    H167904   4.442   5.850  16.911 -0.1274  0.9365  1.3426
15471TIP3    H267905   4.486   5.715  16.964  0.9703 -0.3667 -2.7723
15472TIP3   OH267906   2.062   1.970  12.122  0.4424  0.2996 -0.1491
15472TIP3    H167907   2.116   2.046  12.144  1.3618 -0.9026  1.8489
15472TIP3    H267908   1.997   1.965  12.192  0.3326 -0.6897 -0.3110
15473TIP3   OH267909   2.316   3.256   1.213 -0.1979  0.2897 -0.1652
15473TIP3    H167910   2.248   3.225   1.153 -1.8277  0.0091  1.8000
15473TIP3    H267911   2.273   3.324   1.264  1.2063  0.5772  0.6409
15474TIP3   OH267912   5.939   5.530  13.606  0.3523  0.0947 -0.0931
15474TIP3    H167913   5.874   5.461  13.597 -0.2533  0.6681 -0.1648
15474TIP3    H267914   5.901   5.591  13.669  1.3512 -0.1765  0.7955
15475TIP3   OH267915   5.042   3.312   1.765 -0.1112  0.1198  0.2566
15475TIP3    H167916   5.116   3.341   1.712 -0.0729 -1.2485 -0.4824
15475TIP3    H267917   5.078   3.303   1.853  0.7162 -0.8936 -0.1681
15476TIP3   OH267918   3.819   5.886   5.286 -0.0351  0.2194  0.2473
15476TIP3    H167919   3.822   5.947   5.360 -0.6520 -0.1842  0.6059
15476TIP3    H267920   3.884   5.819   5.307  0.3597  0.5284  0.0385
15477TIP3   OH267921   4.800   2.772   1.118 -0.0561 -0.1225 -0.3121
15477TIP3    H167922   4.710   2.801   1.131 -0.5925 -1.5862 -0.6187
15477TIP3    H267923   4.845   2.849   1.083 -1.6178  0.1475 -1.8367
15478TIP3   OH267924   4.786   3.749  14.924  0.5157  0.2454  0.3420
15478TIP3    H167925   4.849   3.681  14.949  2.1352  1.3515 -0.6202
15478TIP3    H267926   4.767   3.730  14.832 -0.6460 -0.1506  0.6651
15479TIP3   OH267927   6.111   1.832  14.298  0.9540  0.5248  0.0821
15479TIP3    H167928   6.051   1.844  14.225  1.3727  1.3563 -0.1276
15479TIP3    H267929   6.160   1.914  14.304  0.8882  0.4896  1.3281
15480TIP3   OH267930   1.182   5.029   5.183  0.2525  0.1798 -0.2015
15480TIP3    H167931   1.156   4.938   5.198 -0.7323  0.4666 -0.1660
15480TIP3    H267932   1.129   5.058   5.109  0.9322  0.5729 -0.5413
15481TIP3   OH267933   2.637   2.001  14.229  0.1133  0.0639  0.3869
15481TIP3    H167934   2.728   2.008  14.256  0.9464 -1.3339 -1.9234
15481TIP3    H267935   2.607   1.919  14.267  0.2640 -0.2232 -0.1188
15482TIP3   OH267936   2.884   2.026   1.377 -0.0169 -0.3833 -0.1980
15482TIP3    H167937   2.833   2.022   1.296 -0.0935 -0.0156 -0.1682
15482TIP3    H267938   2.828   2.074   1.438  0.5713  0.4398 -0.3065
15483TIP3   OH267939   2.615   3.563   1.842  0.6706 -0.0093 -0.7276
15483TIP3    H167940   2.623   3.507   1.765  1.4522 -1.6134  0.4868
15483TIP3    H267941   2.601   3.502   1.915  0.5777  1.4383  0.4987
15484TIP3   OH267942   4.698   4.390   3.473  0.3562 -0.1738  0.2925
15484TIP3    H167943   4.704   4.295   3.462 -0.6424 -0.3303  1.0062
15484TIP3    H267944   4.630   4.417   3.411  0.7698  0.0963 -0.0388
15485TIP3   OH267945   1.820   4.420   0.903  0.1566  0.3218 -0.5973
15485TIP3    H167946   1.792   4.473   0.829  0.3936  0.8963 -0.2840
15485TIP3    H267947   1.877   4.353   0.865 -2.6032 -1.6572 -1.4042
15486TIP3   OH267948   6.319   2.874  14.108 -0.0870 -0.1664 -0.1209
15486TIP3    H167949   6.285   2.930  14.177  2.6815 -0.3219  1.4059
15486TIP3    H267950   6.414   2.881  14.114  0.2567 -0.5726 -3.5995
15487TIP3   OH267951   0.644   3.555   2.993 -0.2039  0.2997  0.4774
15487TIP3    H167952   0.616   3.494   3.061 -0.6427 -0.9489 -0.8036
15487TIP3    H267953   0.736   3.533   2.978  0.0927  1.0507  1.1534
15488TIP3   OH267954   1.128   4.378   6.099 -0.2936 -0.1664 -0.5166
15488TIP3    H167955   1.194   4.311   6.081 -1.1576 -1.0062 -0.5667
15488TIP3    H267956   1.102   4.409   6.012  1.0708  1.2006 -0.4636
15489TIP3   OH267957   3.561   0.408  13.553 -0.4116  0.0318  0.5350
15489TIP3    H167958   3.478   0.360  13.554 -1.0000  0.9931 -0.6169
15489TIP3    H267959   3.574   0.431  13.461 -0.2216  2.2200  1.1010
15490TIP3   OH267960   0.121   1.215  14.420  0.6527  0.0476  0.1145
15490TIP3    H167961   0.090   1.207  14.510 -1.2459 -1.5576 -0.6571
15490TIP3    H267962   0.188   1.283  14.424 -0.2593  0.8546  2.5091
15491TIP3   OH267963   5.782   4.650  14.837  0.6724  0.0321 -0.4924
15491TIP3    H167964   5.838   4.599  14.896 -0.5541  0.1756  0.8184
15491TIP3    H267965   5.832   4.657  14.756  2.1138 -0.7145  0.3243
15492TIP3   OH267966   3.475   4.576   4.825  0.4489  0.6037  0.2086
15492TIP3    H167967   3.475   4.593   4.730  2.5868  2.1151  0.4496
15492TIP3    H267968   3.470   4.663   4.865 -1.1784 -0.0662  1.5136
15493TIP3   OH267969   0.485   3.777   2.894  0.4886  0.1181 -0.0974
15493TIP3    H167970   0.533   3.706   2.937  1.5291  0.8081 -0.1063
15493TIP3    H267971   0.510   3.856   2.943  0.0728  0.6059 -0.6678
15494TIP3   OH267972   6.590   6.748  14.508  0.8295 -0.7402 -0.4946
15494TIP3    H167973   6.518   6.686  14.521  0.0017  0.1508 -0.7110
15494TIP3    H267974   6.669   6.694  14.505  0.4243 -1.5382  2.1191
15495TIP3   OH267975   1.121   3.959   4.431 -0.3204 -0.2440  0.1601
15495TIP3    H167976   1.196   3.960   4.371 -0.7948 -0.5255 -0.4440
15495TIP3    H267977   1.049   3.924   4.379 -1.1864  1.1881  0.3602
15496TIP3   OH267978   6.516   6.395  17.288  0.0980 -0.2071  0.1379
15496TIP3    H167979   6.559   6.330  17.232  0.4927 -0.3769  0.6381
15496TIP3    H267980   6.468   6.451  17.227  0.7375 -0.2388 -0.3972
15497TIP3   OH267981   5.340   0.881   0.806  0.8252  1.0364 -0.3630
15497TIP3    H167982   5.259   0.888   0.755  1.5942  4.4714 -1.2732
15497TIP3    H267983   5.376   0.795   0.782 -1.9898 -0.0956 -0.7400
15498TIP3   OH267984   0.210   3.591   4.532 -0.1795  0.1899 -0.0968
15498TIP3    H167985   0.183   3.681   4.550 -0.7418 -0.2273  1.2430
15498TIP3    H267986   0.131   3.540   4.545  0.3021 -0.5748 -0.1520
15499TIP3   OH267987   0.025   4.189   6.623 -0.5260 -0.3450 -0.0380
15499TIP3    H167988   0.080   4.258   6.658  0.8617 -0.9683 -0.9633
15499TIP3    H267989   0.039   4.115   6.682 -0.2484 -0.5576 -0.3721
15500TIP3   OH267990   3.753   1.493  16.002 -0.2838  0.4830  0.8936
15500TIP3    H167991   3.750   1.482  16.097 -1.4172  0.3979  0.8557
15500TIP3    H267992   3.684   1.557  15.983 -0.9821 -0.5232 -0.0045
15501TIP3   OH267993   0.399   0.615  14.319 -0.2504  0.0086 -0.3534
15501TIP3    H167994   0.354   0.549  14.371 -0.3710 -0.6091 -1.2459
15501TIP3    H267995   0.329   0.661  14.272 -0.1188  0.3966 -0.1727
15502TIP3   OH267996   5.489   2.785  15.848 -0.5664  0.3241  0.4442
15502TIP3    H167997   5.436   2.774  15.927 -1.1739 -0.2875 -0.0381
15502TIP3    H267998   5.496   2.880  15.836  0.7650  0.4456  2.0443
15503TIP3   OH267999   3.618   1.111   2.486 -0.6367 -0.2393 -0.6977
15503TIP3    H168000   3.632   1.085   2.577 -1.8689 -0.4069 -0.5549
15503TIP3    H268001   3.606   1.029   2.438 -1.3284 -0.0941 -0.7816
15504TIP3   OH268002   6.758   0.706  16.508  0.7681 -0.3428  0.0845
15504TIP3    H168003   6.741   0.612  16.499  0.0324 -0.2475  0.4221
15504TIP3    H268004   6.694   0.748  16.451  1.3739 -0.0542 -0.3901
15505TIP3   OH268005   0.421   0.579   4.411 -0.4132  0.1231 -0.1820
15505TIP3    H168006   0.505   0.623   4.398  0.3623 -1.3583 -0.2302
15505TIP3    H268007   0.390   0.612   4.495  0.7765 -0.1973  0.3979
15506TIP3   OH268008   5.159   3.284   2.016 -0.1129 -0.4001  0.2450
15506TIP3    H168009   5.135   3.224   2.086 -0.9212  0.1233  0.4230
15506TIP3    H268010   5.202   3.357   2.061  0.9753 -0.8785  0.0176
15507TIP3   OH268011   3.304   2.569   0.480  0.2524  0.2230 -0.3149
15507TIP3    H168012   3.337   2.658   0.472  0.1155  0.3733  0.8081
15507TIP3    H268013   3.232   2.576   0.543  0.5798 -0.7706  0.1708
15508TIP3   OH268014   3.690   4.888   1.315  0.1766  0.7097  0.5389
15508TIP3    H168015   3.596   4.902   1.306  0.0857 -0.2211 -0.0108
15508TIP3    H268016   3.729   4.941   1.245 -0.2849 -3.2005 -2.8875
15509TIP3   OH268017   5.101   5.271  15.632  0.2806  0.0777  0.5363
15509TIP3    H168018   5.169   5.323  15.589  0.7111  0.1006  1.2379
15509TIP3    H268019   5.068   5.328  15.702 -0.7503  0.2250 -0.0611
15510TIP3   OH268020   4.869   5.412   0.251 -0.0273  0.1748  0.1584
15510TIP3    H168021   4.845   5.375   0.166  3.7035  0.6438 -1.1852
15510TIP3    H268022   4.861   5.507   0.239  0.6954  0.2508  0.2557
15511TIP3   OH268023   6.124   4.015   6.255  0.5505 -0.7217  0.3278
15511TIP3    H168024   6.097   4.094   6.302  1.1091  1.0333 -2.1878
15511TIP3    H268025   6.183   3.971   6.316  1.4666  1.5976  1.1949
15512TIP3   OH268026   1.995   3.015  16.122  0.4446  0.1183  0.3229
15512TIP3    H168027   1.969   3.105  16.141 -0.2785 -0.0456  0.1431
15512TIP3    H268028   2.090   3.018  16.115  0.2106  1.5414 -3.0805
15513TIP3   OH268029   0.317   4.342  10.924  0.3750 -0.1707 -0.2284
15513TIP3    H168030   0.274   4.299  10.998 -0.9912  1.9011  0.2326
15513TIP3    H268031   0.394   4.384  10.964  1.7267 -2.1566 -0.6831
15514TIP3   OH268032   4.838   1.205   1.639 -0.0630 -0.2519 -0.3582
15514TIP3    H168033   4.848   1.273   1.706  0.2005  0.0621 -0.7142
15514TIP3    H268034   4.857   1.250   1.556  0.3075 -0.8099 -0.5753
15515TIP3   OH268035   6.079   4.150   3.761  0.1070  0.1703  0.7445
15515TIP3    H168036   6.161   4.132   3.714 -0.2931  0.4309 -0.0634
15515TIP3    H268037   6.011   4.112   3.706 -0.5769  2.4218 -0.0239
15516TIP3   OH268038   2.720   3.534  11.948  0.2595 -0.3577  0.0231
15516TIP3    H168039   2.625   3.522  11.939  0.3384 -1.0212  0.0477
15516TIP3    H268040   2.736   3.623  11.918 -0.2105 -0.6592 -1.1541
15517TIP3   OH268041   4.403   0.178   5.198  0.7237  0.0477  0.2334
15517TIP3    H168042   4.457   0.257   5.192  1.3284 -0.5521 -2.6693
15517TIP3    H268043   4.466   0.108   5.220  0.7669 -0.2186 -0.7051
15518TIP3   OH268044   1.401   4.315   5.350 -0.4257  0.1117 -0.4870
15518TIP3    H168045   1.332   4.309   5.284  0.4654 -1.1136 -1.3373
15518TIP3    H268046   1.406   4.227   5.387  0.5037  0.2536 -0.2556
15519TIP3   OH268047   2.419   0.401  14.884 -0.1481  0.3584 -0.3383
15519TIP3    H168048   2.355   0.330  14.889  1.1761 -0.7695  0.8824
15519TIP3    H268049   2.386   0.467  14.944  0.8297 -1.0712  1.8462
15520TIP3   OH268050   4.781   3.524   0.556  0.6275 -0.0397  0.4408
15520TIP3    H168051   4.781   3.451   0.618 -0.8442  0.3367  0.9043
15520TIP3    H268052   4.703   3.510   0.503  1.1321  0.4094 -0.4303
15521TIP3   OH268053   1.322   0.139  17.001 -0.4898 -0.2031 -0.1219
15521TIP3    H168054   1.266   0.083  16.948 -0.6945  0.5942 -0.7636
15521TIP3    H268055   1.372   0.190  16.937  2.2334 -2.1077  0.4107
15522TIP3   OH268056   5.142   0.959   0.640  0.0835 -0.1542 -0.4577
15522TIP3    H168057   5.193   1.031   0.602 -0.8613  0.2937 -0.8690
15522TIP3    H268058   5.100   0.917   0.565  0.2547 -0.8503 -0.1698
15523TIP3   OH268059   1.427   5.096   3.594  0.3891 -0.0104  0.0977
15523TIP3    H168060   1.397   5.185   3.579 -0.2854 -0.3750 -0.7579
15523TIP3    H268061   1.492   5.080   3.526  2.8162  0.8928  2.1559
15524TIP3   OH268062   5.144   0.952   4.760 -0.1060 -0.1314 -0.2810
15524TIP3    H168063   5.084   1.009   4.808  0.2322  0.0354 -0.0576
15524TIP3    H268064   5.096   0.929   4.680  0.0338  1.0504 -0.7210
15525TIP3   OH268065   2.256   1.158   0.222  0.3565  0.3301 -0.1940
15525TIP3    H168066   2.200   1.218   0.271 -0.1402 -0.2334 -0.0799
15525TIP3    H268067   2.286   1.094   0.287 -0.1287 -0.2897 -0.5788
15526TIP3   OH268068   3.961   2.486  11.483 -1.0840 -0.8532  0.0835
15526TIP3    H168069   3.881   2.514  11.439 -1.3576  0.0453  1.1267
15526TIP3    H268070   3.947   2.393  11.504 -0.8545 -1.3514 -1.8925
15527TIP3   OH268071   0.483   3.736  16.685 -0.0103 -0.2255  0.4436
15527TIP3    H168072   0.437   3.698  16.760 -0.8368 -0.8062 -0.3335
15527TIP3    H268073   0.546   3.797  16.723 -2.4697  1.7340  1.5122
15528TIP3   OH268074   5.865   6.330   3.241 -0.0706  0.3560  0.5976
15528TIP3    H168075   5.920   6.302   3.314 -1.0431 -2.2050  0.3841
15528TIP3    H268076   5.926   6.375   3.182  1.7756 -2.0430  0.5756
15529TIP3   OH268077   1.027   5.369  13.357  0.0385  0.3120 -0.0384
15529TIP3    H168078   1.003   5.345  13.267  0.0597 -0.2877  0.1132
15529TIP3    H268079   1.118   5.338  13.366  0.2327  0.8942  0.0015
15530TIP3   OH268080   4.157   5.406  14.369 -0.4350 -0.1942  0.1070
15530TIP3    H168081   4.085   5.468  14.374 -1.4050 -1.4042  2.1284
15530TIP3    H268082   4.233   5.455  14.399 -1.2039  0.0474  1.7638
15531TIP3   OH268083   1.061   2.070   3.012 -0.1385  0.1674  0.1981
15531TIP3    H168084   1.117   2.071   3.089  1.1204 -0.6626 -0.7039
15531TIP3    H268085   1.020   2.156   3.012  0.8608  0.6554  1.0606
15532TIP3   OH268086   0.802   6.614  13.825  0.5986 -0.1047  0.3924
15532TIP3    H168087   0.781   6.707  13.836 -4.0890 -1.2032  1.9666
15532TIP3    H268088   0.779   6.575  13.909  1.4760 -2.8496 -0.6069
15533TIP3   OH268089   3.056   5.997  13.478 -0.0029 -0.0942  0.0755
15533TIP3    H168090   3.145   5.961  13.478  0.2591  0.5478  0.4533
15533TIP3    H268091   3.006   5.937  13.533 -0.3573 -1.7748 -2.0025
15534TIP3   OH268092   0.205   6.350  17.264 -0.4555 -0.3918 -0.2886
15534TIP3    H168093   0.249   6.276  17.222  1.2444 -0.3278  1.2892
15534TIP3    H268094   0.221   6.424  17.206  0.9969 -0.5120 -0.0620
15535TIP3   OH268095   6.706   5.794   0.946  0.0158 -0.2855  0.5496
15535TIP3    H168096   6.616   5.827   0.942  0.0870  0.1815  2.4859
15535TIP3    H268097   6.710   5.726   0.878 -1.9650 -0.7414  0.8701
15536TIP3   OH268098   4.871   3.002  11.154 -0.2703 -0.7038 -0.5645
15536TIP3    H168099   4.798   3.031  11.099 -0.2334 -0.8376 -0.6874
15536TIP3    H268100   4.940   2.978  11.091  1.1926  2.7664 -0.3746
15537TIP3   OH268101   4.829   4.205  16.678  0.5780  0.8304  0.2879
15537TIP3    H168102   4.769   4.248  16.739  0.4521 -0.8280  1.3662
15537TIP3    H268103   4.807   4.112  16.683  2.2764  0.3591 -0.3755
15538TIP3   OH268104   0.940   1.677   1.191  0.4573 -0.0667 -0.1554
15538TIP3    H168105   0.878   1.679   1.118  0.8309 -0.4277 -0.4915
15538TIP3    H268106   0.896   1.722   1.262  0.9442  2.2569 -1.2925
15539TIP3   OH268107   5.054   4.735   1.876 -0.4052  0.0966 -0.0189
15539TIP3    H168108   4.968   4.695   1.890 -0.2965 -0.0335  0.2804
15539TIP3    H268109   5.064   4.796   1.949 -0.8220  1.1027 -0.8003
15540TIP3   OH268110   1.069   4.598  15.055 -0.1356 -0.4475  0.0196
15540TIP3    H168111   1.015   4.649  14.994 -0.2687 -0.4492  0.1349
15540TIP3    H268112   1.087   4.659  15.127  0.7905 -0.1558 -0.4548
15541TIP3   OH268113   3.297   4.150   4.551  0.5691 -0.4984  0.2965
15541TIP3    H168114   3.369   4.156   4.489  0.0045 -1.3273 -0.4334
15541TIP3    H268115   3.232   4.213   4.520  0.9532  0.2252  0.9369
15542TIP3   OH268116   0.168   0.084  11.417  0.0254  0.2247  0.2300
15542TIP3    H168117   0.229   0.096  11.344  1.3323 -0.4213  1.1948
15542TIP3    H268118   0.192   0.151  11.481 -0.9896  0.6665  0.1644
15543TIP3   OH268119   1.844   0.771  13.848 -0.2007  0.0330 -0.0396
15543TIP3    H168120   1.783   0.747  13.918  1.4107 -1.2101  0.9780
15543TIP3    H268121   1.912   0.703  13.851  1.7156  1.8868 -0.5442
15544TIP3   OH268122   0.065   3.602   4.882 -0.5471 -0.1945 -0.2710
15544TIP3    H168123  -0.020   3.563   4.859 -0.7416  0.8682 -1.4417
15544TIP3    H268124   0.123   3.527   4.896 -1.3793 -0.9169 -0.6236
15545TIP3   OH268125   2.776   4.495   0.623 -0.1054  0.5600  0.5965
15545TIP3    H168126   2.783   4.560   0.693  1.4262  0.2562  0.7411
15545TIP3    H268127   2.684   4.469   0.623 -0.8613  3.0669  0.2329
15546TIP3   OH268128   3.226   1.480   4.638 -0.3180 -0.7748 -0.4557
15546TIP3    H168129   3.204   1.534   4.562 -0.9135 -0.5164 -0.1001
15546TIP3    H268130   3.259   1.398   4.601 -1.4389 -0.9880 -0.9965
15547TIP3   OH268131   1.384   4.022   5.432 -0.3482  0.9979  0.1189
15547TIP3    H168132   1.349   3.970   5.505 -0.5022 -0.0008 -0.6587
15547TIP3    H268133   1.386   3.961   5.358  2.5159  1.1780  0.0001
15548TIP3   OH268134   3.143   2.667  11.807 -0.0681 -0.1613 -0.1143
15548TIP3    H168135   3.225   2.626  11.780 -0.6741 -1.0673 -0.6307
15548TIP3    H268136   3.160   2.761  11.803  0.9860 -0.3497 -0.0789
15549TIP3   OH268137   1.614   5.534   3.761 -0.1643 -0.7727 -0.0184
15549TIP3    H168138   1.636   5.600   3.827  1.2386 -0.3677 -0.8625
15549TIP3    H268139   1.642   5.451   3.799  1.5998 -0.4212 -0.5064
15550TIP3   OH268140   2.329   4.164  12.203  0.2792  0.1122 -0.1933
15550TIP3    H168141   2.369   4.241  12.245 -1.1716 -0.9052  3.2372
15550TIP3    H268142   2.379   4.090  12.238 -1.3868 -0.8063  0.3175
15551TIP3   OH268143   0.847   2.547   1.550 -0.2687 -0.4467 -0.2597
15551TIP3    H168144   0.908   2.498   1.605  0.0355 -1.5895 -1.5679
15551TIP3    H268145   0.842   2.495   1.469 -2.2247  0.1468 -0.5323
15552TIP3   OH268146   4.285   5.408  13.986 -0.1589  0.0471  0.0760
15552TIP3    H168147   4.237   5.325  13.982 -0.2721 -0.0327  2.4216
15552TIP3    H268148   4.227   5.467  14.036  0.2274  1.3329 -0.9634
15553TIP3   OH268149   6.567   0.199   2.938 -0.0944 -0.0821  0.7547
15553TIP3    H168150   6.553   0.130   3.004 -0.4447 -0.7266  0.0219
15553TIP3    H268151   6.554   0.281   2.986 -2.4522 -0.5694  1.0345
15554TIP3   OH268152   2.710   4.479   4.879  0.1241  0.0895  0.6183
15554TIP3    H168153   2.747   4.484   4.967 -1.5688  4.6300  1.2519
15554TIP3    H268154   2.636   4.418   4.888 -1.4933  2.2446  3.0657
15555TIP3   OH268155   2.650   0.121  11.595  0.1765 -0.3753 -0.8737
15555TIP3    H168156   2.607   0.090  11.515 -2.3572  1.1194 -0.1455
15555TIP3    H268157   2.670   0.213  11.577  0.4373 -0.2850 -0.1238
15556TIP3   OH268158   1.415   4.894  11.833 -0.1676  0.0281 -0.1057
15556TIP3    H168159   1.355   4.951  11.785  0.1808  1.0602  0.6598
15556TIP3    H268160   1.399   4.915  11.925 -0.5871 -1.6842  0.2255
15557TIP3   OH268161   1.099   4.859  13.979  0.1268  0.6975 -0.0127
15557TIP3    H168162   1.095   4.801  13.903 -3.6902  1.3219 -0.3763
15557TIP3    H268163   1.113   4.800  14.054  0.0441 -0.3096 -0.7773
15558TIP3   OH268164   2.003   5.635   4.424  0.1819  0.3633  0.2350
15558TIP3    H168165   2.095   5.613   4.412  0.5216  1.5166  0.7242
15558TIP3    H268166   1.965   5.557   4.464  0.7290 -0.4894 -0.8752
15559TIP3   OH268167   0.496   4.019  13.532 -0.3979 -0.1877 -0.4690
15559TIP3    H168168   0.413   3.997  13.490 -0.9603 -1.5744  1.3265
15559TIP3    H268169   0.521   3.941  13.580  1.0679  0.8060  0.4402
15560TIP3   OH268170   6.423   5.121  10.600  0.9154 -0.2337 -0.2587
15560TIP3    H168171   6.478   5.141  10.525  1.3443 -0.8903 -0.1216
15560TIP3    H268172   6.384   5.205  10.624  1.2902  0.0982 -0.8049
15561TIP3   OH268173   1.783   5.063   6.764 -0.2844  0.5014 -0.5836
15561TIP3    H168174   1.701   5.095   6.728 -0.8685 -0.7551 -0.4115
15561TIP3    H268175   1.757   5.001   6.832  0.7718  2.8755  2.0948
15562TIP3   OH268176   3.801   4.278   0.344  0.0395  0.1851  0.4722
15562TIP3    H168177   3.853   4.259   0.266 -0.4121  0.2646  0.1462
15562TIP3    H268178   3.863   4.316   0.406  0.1803  1.2059 -0.2803
15563TIP3   OH268179   2.842   3.019   5.123 -0.3147  0.0539  0.2561
15563TIP3    H168180   2.754   3.035   5.157 -0.8098 -1.9928  0.0054
15563TIP3    H268181   2.847   2.924   5.112  1.6160  0.2189 -0.5849
15564TIP3   OH268182   3.251   3.740  12.237  0.0780  0.1262  0.2933
15564TIP3    H168183   3.213   3.684  12.304  0.8865  0.0336  0.6741
15564TIP3    H268184   3.201   3.821  12.242 -0.6205 -0.2913  0.2245
15565TIP3   OH268185   1.528   1.396   0.926  0.3011 -0.3618 -0.1827
15565TIP3    H168186   1.494   1.468   0.874  0.8104 -0.7062 -1.0100
15565TIP3    H268187   1.483   1.318   0.892  0.7711 -0.6132 -0.2321
15566TIP3   OH268188   6.543   2.712  15.054 -0.6898  0.6772  0.4454
15566TIP3    H168189   6.535   2.803  15.029 -1.3786  0.1838 -1.1398
15566TIP3    H268190   6.546   2.714  15.150  1.7276  2.5513  0.3915
15567TIP3   OH268191   6.277   3.025  15.900  0.7123  0.7588 -0.1223
15567TIP3    H168192   6.329   2.951  15.870 -1.5784 -0.8469 -0.2518
15567TIP3    H268193   6.233   2.993  15.979 -1.1227  1.5997 -0.7660
15568TIP3   OH268194   0.724   5.120   3.382 -0.2171  0.2649  0.4389
15568TIP3    H168195   0.797   5.059   3.377 -0.5960 -0.2549  1.0575
15568TIP3    H268196   0.655   5.071   3.427 -0.5098  1.1680  0.9948
15569TIP3   OH268197   5.945   6.594  14.609  0.1564  0.5628  0.2375
15569TIP3    H168198   5.960   6.672  14.554  0.3091  1.1446  1.0867
15569TIP3    H268199   6.017   6.596  14.672  0.6334 -0.7408 -0.2453
15570TIP3   OH268200   2.565   1.007  12.352 -0.0490  0.4757  0.0118
15570TIP3    H168201   2.479   0.969  12.370 -0.3414  0.8176 -0.6577
15570TIP3    H268202   2.574   1.076  12.417 -0.4276  0.6626 -0.1315
15571TIP3   OH268203   0.253   6.377  16.070 -0.1619 -0.0510 -0.1915
15571TIP3    H168204   0.161   6.361  16.049  0.0949  0.5349 -1.8471
15571TIP3    H268205   0.291   6.289  16.078 -0.9295 -0.2953  0.8379
15572TIP3   OH268206   5.669   4.330  11.761  0.5283  0.2517 -0.2271
15572TIP3    H168207   5.732   4.337  11.689 -0.7180  0.1129 -1.3453
15572TIP3    H268208   5.723   4.330  11.840  1.8380  1.7914 -1.0838
15573TIP3   OH268209   0.034   0.034   4.548 -0.1948 -0.3770 -0.6530
15573TIP3    H168210   0.003   0.049   4.637  2.8960 -1.2321  0.6161
15573TIP3    H268211   0.029  -0.061   4.537 -0.4581 -0.2826 -1.3635
15574TIP3   OH268212   6.011   4.837  15.139  0.5255  0.1646 -0.4654
15574TIP3    H168213   6.078   4.770  15.124 -0.6575 -0.7209 -1.9102
15574TIP3    H268214   5.928   4.791  15.128 -0.3167  1.7943 -1.0989
15575TIP3   OH268215   1.864   1.594   1.147 -0.0998 -0.0330 -0.0776
15575TIP3    H168216   1.837   1.645   1.070  3.4958  0.5408 -1.0768
15575TIP3    H268217   1.849   1.503   1.122 -1.1531  0.2478 -0.5167
15576TIP3   OH268218   3.437   3.820   0.665  0.0488  1.2210 -0.4702
15576TIP3    H168219   3.445   3.783   0.577  0.0752  1.3291 -0.5133
15576TIP3    H268220   3.406   3.747   0.718  3.5209  0.1403  0.1870
15577TIP3   OH268221   2.401   5.613  16.138 -0.5182  0.4912 -0.3864
15577TIP3    H168222   2.338   5.677  16.172  0.5381  1.2073  0.2351
15577TIP3    H268223   2.379   5.605  16.045 -2.5706 -0.4804  0.1520
15578TIP3   OH268224   4.615   3.556   5.696 -0.6302 -0.1476  0.0007
15578TIP3    H168225   4.603   3.651   5.697 -2.1212 -0.2492 -3.2610
15578TIP3    H268226   4.696   3.543   5.647 -0.5050 -0.6071  0.3269
15579TIP3   OH268227   3.526   6.619   5.276  0.7058  0.0301 -0.4530
15579TIP3    H168228   3.530   6.714   5.294  0.0127  0.0341 -0.3032
15579TIP3    H268229   3.615   6.589   5.292  0.5735  0.3840  1.1370
15580TIP3   OH268230   0.890   0.219   5.305  0.4001 -0.6593 -0.3016
15580TIP3    H168231   0.917   0.201   5.215  0.6690  1.3247 -0.6560
15580TIP3    H268232   0.795   0.212   5.303  0.4215 -0.9019 -0.6786
15581TIP3   OH268233   4.866   3.728   2.348  0.1573  0.7974  0.0206
15581TIP3    H168234   4.961   3.719   2.345  0.0193 -1.9139  1.9358
15581TIP3    H268235   4.850   3.820   2.325  3.2664  1.4961  0.3818
15582TIP3   OH268236   6.010   1.517   4.080  0.2280  0.4510 -0.0767
15582TIP3    H168237   5.990   1.575   4.007  0.5968  0.1756 -0.3995
15582TIP3    H268238   6.011   1.574   4.157  0.8744  0.9130 -0.4323
15583TIP3   OH268239   2.733   1.629   4.345 -0.0380 -0.3290 -0.2262
15583TIP3    H168240   2.642   1.608   4.320 -0.4180  0.1408  0.7463
15583TIP3    H268241   2.764   1.684   4.273 -0.7510  0.0647 -0.2465
15584TIP3   OH268242   4.538   5.760   5.531 -0.2398  0.3689 -0.0870
15584TIP3    H168243   4.520   5.707   5.609  0.2446  2.1802  1.2899
15584TIP3    H268244   4.633   5.773   5.532 -0.4860  2.2813  0.2865
15585TIP3   OH268245   4.176   1.793  13.228 -0.3782  0.4260  0.2545
15585TIP3    H168246   4.167   1.748  13.143  0.0126  1.1477 -0.1683
15585TIP3    H268247   4.176   1.886  13.206 -0.8268  0.6296  1.1033
15586TIP3   OH268248   6.782   2.179  15.581 -0.5509 -0.3128 -0.4216
15586TIP3    H168249   6.718   2.158  15.513 -1.5947 -0.3767  0.5652
15586TIP3    H268250   6.732   2.225  15.649  1.2066  3.1634 -1.3831
15587TIP3   OH268251   4.348   0.613   0.333  0.4435 -0.4287 -0.0127
15587TIP3    H168252   4.273   0.666   0.306  1.7610  0.6895 -1.5155
15587TIP3    H268253   4.374   0.650   0.418 -1.9801 -2.1828  1.5651
15588TIP3   OH268254   6.336   6.637  13.569 -0.0127  0.5839  0.6218
15588TIP3    H168255   6.308   6.687  13.646 -2.1025  0.7765 -0.2160
15588TIP3    H268256   6.305   6.689  13.495  0.8039 -0.2618 -0.3287
15589TIP3   OH268257   5.339   5.816  14.598  0.1188 -0.2035 -0.4914
15589TIP3    H168258   5.279   5.836  14.670  0.5117 -0.9925  0.0585
15589TIP3    H268259   5.412   5.876  14.610  0.5933 -0.9160  0.2879
15590TIP3   OH268260   1.015   3.161   6.434 -0.1126  0.4562  0.3316
15590TIP3    H168261   0.995   3.235   6.376 -0.3499  0.5031  0.4724
15590TIP3    H268262   0.932   3.141   6.477  0.5431  1.9313  2.3828
15591TIP3   OH268263   1.535   2.609   4.806 -0.8434  0.1724  0.5470
15591TIP3    H168264   1.526   2.703   4.823 -1.4334  0.4971 -1.4714
15591TIP3    H268265   1.488   2.594   4.724  1.8106 -1.3271 -0.7945
15592TIP3   OH268266   0.603   4.169  14.544  0.6103  0.0209 -0.2605
15592TIP3    H168267   0.631   4.220  14.620 -1.0593 -1.4670  1.4112
15592TIP3    H268268   0.664   4.096  14.541  1.0829  0.4371 -0.7527
15593TIP3   OH268269   2.459   2.414   3.095 -0.0213 -0.3660 -0.4740
15593TIP3    H168270   2.470   2.420   3.000 -2.7273  1.3785 -0.7434
15593TIP3    H268271   2.475   2.503   3.127  0.3148 -0.8189  0.6558
15594TIP3   OH268272   2.833   2.874  11.106  0.2799  0.9081  0.0855
15594TIP3    H168273   2.806   2.825  11.028 -0.2380 -1.6163  1.7903
15594TIP3    H268274   2.928   2.859  11.112  0.4472  1.6884 -0.4052
15595TIP3   OH268275   3.801   4.218  15.955  0.1303  0.2475  0.1496
15595TIP3    H168276   3.779   4.310  15.940  1.0606  0.6005  0.9521
15595TIP3    H268277   3.748   4.170  15.891 -1.4864  1.2280  0.7278
15596TIP3   OH268278   0.323   6.767  14.295  0.4481 -0.3699  0.5432
15596TIP3    H168279   0.300   6.675  14.298 -0.7258 -0.0711  0.9024
15596TIP3    H268280   0.240   6.813  14.302  1.0163  0.7183  0.2992
15597TIP3   OH268281   2.035   6.343   3.450  0.1913 -0.0479 -0.2683
15597TIP3    H168282   1.963   6.310   3.397  0.4064  0.2759 -0.7690
15597TIP3    H268283   2.098   6.377   3.386  0.8456 -0.4501  0.1625
15598TIP3   OH268284   4.663   0.073  12.696 -0.0273  0.3795  0.4741
15598TIP3    H168285   4.619   0.032  12.621  1.0861  0.3917 -0.2074
15598TIP3    H268286   4.595   0.125  12.739 -0.7804  0.0426 -0.2940
15599TIP3   OH268287   0.981   2.239  11.322 -0.1467  0.1450 -0.0665
15599TIP3    H168288   1.034   2.317  11.337 -1.5272  1.1497 -0.2637
15599TIP3    H268289   1.027   2.168  11.367  0.8520  1.1828  0.5437
15600TIP3   OH268290   0.105   4.682   5.813  0.4935  0.6737 -0.0361
15600TIP3    H168291   0.034   4.665   5.875  1.6163 -0.0843  1.0705
15600TIP3    H268292   0.155   4.600   5.811  1.0172  1.0105 -1.2336
15601TIP3   OH268293   4.171   6.743   5.696 -0.3274 -0.6503  0.4191
15601TIP3    H168294   4.191   6.649   5.701  0.3970 -0.7153 -2.5659
15601TIP3    H268295   4.106   6.757   5.765 -1.4064 -3.6259  0.1084
15602TIP3   OH268296   0.677   0.494   5.891 -0.2490  0.6818 -0.6608
15602TIP3    H168297   0.609   0.430   5.914  0.4373  0.1989  0.0629
15602TIP3    H268298   0.629   0.568   5.855 -1.0271 -0.3672 -1.8070
15603TIP3   OH268299   5.650   3.865   2.753 -0.1398 -0.0695  0.3315
15603TIP3    H168300   5.742   3.878   2.776 -0.2169  0.6857  0.2504
15603TIP3    H268301   5.645   3.887   2.660 -0.6851  1.4514  0.6996
15604TIP3   OH268302   1.741   0.367  14.017 -0.0025  0.1200  0.1117
15604TIP3    H168303   1.810   0.319  13.971  0.1242 -1.0013  1.4623
15604TIP3    H268304   1.662   0.347  13.967  0.1030 -1.2477  0.4691
15605TIP3   OH268305   4.626   1.117  12.383  0.5452 -0.6349  0.0949
15605TIP3    H168306   4.690   1.164  12.436  1.4878 -1.5739 -0.1703
15605TIP3    H268307   4.597   1.044  12.439 -1.8162  0.9172  0.9615
15606TIP3   OH268308   6.021   6.338   4.204 -0.3008  0.6207  0.0819
15606TIP3    H168309   6.094   6.390   4.237  0.3346  0.1561 -0.5951
15606TIP3    H268310   6.035   6.250   4.240 -0.4429  0.4891 -0.1836
15607TIP3   OH268311   5.081   1.101   0.045  0.7363  0.1870 -0.0464
15607TIP3    H168312   5.033   1.045  -0.016  0.9670  0.1360 -0.1831
15607TIP3    H268313   5.014   1.149   0.092  0.5365 -0.2019  0.0651
15608TIP3   OH268314   1.093   5.652  13.008  0.1490  0.8380 -0.6251
15608TIP3    H168315   1.111   5.584  13.073 -3.2622  0.7052  0.2951
15608TIP3    H268316   1.126   5.617  12.926 -2.1482 -2.2826 -0.3016
15609TIP3   OH268317   5.732   5.931   4.749  0.0982 -0.0991 -0.3080
15609TIP3    H168318   5.643   5.966   4.756  0.0310  0.1983 -2.3479
15609TIP3    H268319   5.733   5.856   4.808 -0.8543  1.1697  1.3540
15610TIP3   OH268320   1.338   6.080   5.871 -0.5510 -0.0203 -0.5639
15610TIP3    H168321   1.329   6.035   5.787  0.6410 -2.5169  0.6049
15610TIP3    H268322   1.281   6.032   5.931 -0.5966  1.1010  0.3246
15611TIP3   OH268323   3.051   6.349  12.999 -0.2627  0.0083  0.1250
15611TIP3    H168324   3.035   6.435  12.960 -1.9477 -0.9481 -1.3909
15611TIP3    H268325   2.981   6.338  13.063  0.8840  0.4015  1.4814
15612TIP3   OH268326   1.918   1.734  15.043  0.2960  0.5301 -0.4168
15612TIP3    H168327   1.987   1.775  15.096  1.1388  0.5451 -1.5237
15612TIP3    H268328   1.874   1.808  15.001 -1.5100  0.6553  1.5922
15613TIP3   OH268329   0.040   1.026   2.804  0.0245  0.4776 -0.3411
15613TIP3    H168330  -0.023   0.958   2.781  2.0396 -1.1088 -1.3492
15613TIP3    H268331   0.073   1.057   2.720 -0.1472  2.0316  0.1435
15614TIP3   OH268332   1.790   1.783   0.963 -0.2195  0.1089  0.1661
15614TIP3    H168333   1.737   1.829   1.027 -1.3635 -1.0599  0.0738
15614TIP3    H268334   1.752   1.807   0.878 -0.7310 -0.8655  0.1090
15615TIP3   OH268335   3.965   3.716   5.335  0.1085 -0.0182 -0.5553
15615TIP3    H168336   3.998   3.633   5.300 -0.3314  0.0317 -1.0974
15615TIP3    H268337   3.906   3.749   5.268  1.1459  1.2962 -0.8490
15616TIP3   OH268338   3.468   2.090  15.988  0.0610  0.2942  0.1250
15616TIP3    H168339   3.500   2.115  15.902  1.3141 -0.8671  0.2288
15616TIP3    H268340   3.522   2.140  16.049  0.4780 -0.3070  0.2596
15617TIP3   OH268341   5.267   6.483  15.856  0.0218  0.0603  0.2444
15617TIP3    H168342   5.296   6.457  15.768  1.8133  0.7529  0.6087
15617TIP3    H268343   5.325   6.556  15.879 -0.7674  0.2039  1.8056
15618TIP3   OH268344   2.876   3.260   1.674 -0.5506  0.1635 -0.3349
15618TIP3    H168345   2.886   3.300   1.587 -1.2481 -1.5074 -1.1967
15618TIP3    H268346   2.834   3.328   1.726 -1.0142  0.8477 -1.5688
15619TIP3   OH268347   4.441   6.125   5.567 -0.5220 -0.2022  0.3760
15619TIP3    H168348   4.410   6.193   5.626  2.1020  1.1439  0.2826
15619TIP3    H268349   4.463   6.172   5.486  2.7000 -0.8622  0.8065
15620TIP3   OH268350   4.806   3.447   3.775  0.0028 -0.4409  0.3733
15620TIP3    H168351   4.781   3.444   3.868  0.7083 -3.5128  0.5290
15620TIP3    H268352   4.880   3.508   3.772 -0.6031  0.3701  1.6937
15621TIP3   OH268353   2.673   3.154  13.715  0.3998  0.4909  0.2588
15621TIP3    H168354   2.737   3.190  13.777  0.0292  0.5045  0.6334
15621TIP3    H268355   2.672   3.060  13.732 -2.1878  0.8822  2.6321
15622TIP3   OH268356   1.464   1.715  12.672  1.0759  0.6869 -0.3733
15622TIP3    H168357   1.440   1.737  12.582 -0.9200 -0.1764 -0.0748
15622TIP3    H268358   1.516   1.636  12.664  0.4604  0.3151 -0.7414
15623TIP3   OH268359   5.403   5.280  11.799 -0.1453  0.4612 -0.0293
15623TIP3    H168360   5.464   5.351  11.818  1.5669 -1.1899  0.7675
15623TIP3    H268361   5.411   5.221  11.874 -0.8540 -1.0591 -1.1402
15624TIP3   OH268362   1.450   5.658  14.093 -0.1550 -0.3618 -0.2666
15624TIP3    H168363   1.402   5.588  14.138 -1.0305  0.3623 -0.0504
15624TIP3    H268364   1.493   5.706  14.163 -1.5502  0.7910 -0.1820
15625TIP3   OH268365   3.293   2.256   5.567 -0.2865  0.8817 -0.4080
15625TIP3    H168366   3.347   2.285   5.640 -0.0610  0.5816 -0.4528
15625TIP3    H268367   3.210   2.301   5.579 -0.4772  0.3309  0.4136
15626TIP3   OH268368   3.380   0.892  12.790 -0.1044  0.2864  0.5753
15626TIP3    H168369   3.335   0.959  12.842 -0.3269 -0.2018  1.0213
15626TIP3    H268370   3.472   0.920  12.790 -0.2683  0.8410  0.3643
15627TIP3   OH268371   3.953   6.434   5.336  0.2470  0.0990 -0.0327
15627TIP3    H168372   3.972   6.527   5.349  0.6664 -0.0129  0.1345
15627TIP3    H268373   4.012   6.407   5.266  0.1898 -0.0676 -0.0166
15628TIP3   OH268374   2.240   3.813   3.822  0.3506  0.2300 -0.4255
15628TIP3    H168375   2.300   3.741   3.840 -0.8613 -0.9017 -0.7799
15628TIP3    H268376   2.195   3.829   3.904 -1.0193 -0.9877 -0.9232
15629TIP3   OH268377   3.650   5.701   4.078  0.3726 -0.3155 -0.5684
15629TIP3    H168378   3.681   5.612   4.064 -0.2885 -0.7976  0.8752
15629TIP3    H268379   3.676   5.721   4.168 -1.6818  0.0139 -0.0264
15630TIP3   OH268380   5.590   6.303  15.731 -0.7539  0.0333  0.5151
15630TIP3    H168381   5.651   6.238  15.698  0.3778  1.0512  0.5375
15630TIP3    H268382   5.645   6.363  15.782 -1.9483  0.3411  1.4573
15631TIP3   OH268383   1.252   3.679   0.351  0.1982  0.2028 -0.2851
15631TIP3    H168384   1.185   3.699   0.417  1.2011  2.7127  0.0336
15631TIP3    H268385   1.224   3.595   0.314 -2.2161  0.3784  0.9820
15632TIP3   OH268386   6.663   4.022   2.946  0.2899 -0.1567 -0.0385
15632TIP3    H168387   6.660   3.960   2.873  1.0399  0.1586 -0.3497
15632TIP3    H268388   6.697   4.103   2.907 -1.1759  0.6194  0.2466
15633TIP3   OH268389   2.607   4.700  13.116  0.4239  0.3960 -0.5575
15633TIP3    H168390   2.652   4.775  13.077 -1.8228  1.2137 -1.7215
15633TIP3    H268391   2.540   4.739  13.172  2.4975 -0.7846  2.8513
15634TIP3   OH268392   2.198   0.180   2.099 -0.2292  0.4400  0.4016
15634TIP3    H168393   2.243   0.197   2.181  1.1743 -1.0440 -0.0377
15634TIP3    H268394   2.266   0.145   2.041 -1.2900  1.0681 -1.2502
15635TIP3   OH268395   3.404   6.279  11.855 -0.0429 -0.6799  0.1172
15635TIP3    H168396   3.385   6.309  11.766  0.0593 -1.4867 -0.1831
15635TIP3    H268397   3.396   6.183  11.850  0.3777 -0.7572  0.8734
15636TIP3   OH268398   2.404   1.531   3.933  0.1703 -0.0472 -0.4085
15636TIP3    H168399   2.398   1.578   3.850  0.0621  0.5411 -0.0687
15636TIP3    H268400   2.313   1.507   3.953  0.1941 -0.1744 -0.4524
15637TIP3   OH268401   1.883   0.341  14.308 -0.2239 -0.1799 -0.7353
15637TIP3    H168402   1.805   0.388  14.277 -0.1245  1.0628  0.8704
15637TIP3    H268403   1.849   0.276  14.369  0.0597  0.8874  0.5704
15638TIP3   OH268404   4.576   1.759  11.626 -0.1404  0.1437 -0.0937
15638TIP3    H168405   4.482   1.754  11.610 -0.1019  0.5962 -0.4637
15638TIP3    H268406   4.594   1.851  11.643  0.4004  0.2403 -1.1197
15639TIP3   OH268407   6.723   3.109  16.909 -0.2574 -0.8583  0.1853
15639TIP3    H168408   6.800   3.109  16.966 -0.4922  0.4530  0.5155
15639TIP3    H268409   6.677   3.189  16.932 -0.9943 -0.9440 -0.9979
15640TIP3   OH268410   4.454   3.860  14.443 -0.2531 -0.0421 -0.0053
15640TIP3    H168411   4.414   3.927  14.387  2.3564  1.2155 -0.4530
15640TIP3    H268412   4.502   3.803  14.383  1.2433  0.3721  0.7483
15641TIP3   OH268413   6.531   6.686  13.090 -0.2763  0.1061  0.8074
15641TIP3    H168414   6.476   6.764  13.084  0.0876  0.3428  0.5582
15641TIP3    H268415   6.592   6.706  13.161  0.3633  0.3885  0.1775
15642TIP3   OH268416   0.737   1.026  13.553  0.4360  0.1845 -0.3177
15642TIP3    H168417   0.692   1.093  13.604 -0.5123  0.4926 -1.5286
15642TIP3    H268418   0.673   0.999  13.487  2.3132  1.2906 -2.6675
15643TIP3   OH268419   6.329   5.306  12.727 -0.5136  0.3478  0.0701
15643TIP3    H168420   6.239   5.294  12.755 -0.4683 -0.1811 -0.0130
15643TIP3    H268421   6.348   5.398  12.746 -0.2793 -0.1496  2.3513
15644TIP3   OH268422   2.871   5.378  11.518  0.2567  0.3506  0.1518
15644TIP3    H168423   2.917   5.304  11.480 -1.4951 -0.5106 -0.3112
15644TIP3    H268424   2.902   5.381  11.609  2.3948  0.7667 -0.5560
15645TIP3   OH268425   1.729   6.535  16.598  0.0470  0.4273  0.5156
15645TIP3    H168426   1.717   6.618  16.552 -1.3391 -0.3323 -0.5505
15645TIP3    H268427   1.764   6.475  16.531 -0.6588 -0.3113  0.7918
15646TIP3   OH268428   3.010   3.300  10.515 -0.3941  0.2861 -0.4112
15646TIP3    H168429   2.932   3.341  10.478 -0.3848 -0.1452 -0.9306
15646TIP3    H268430   3.080   3.320  10.452  0.3746  2.4027  1.0765
15647TIP3   OH268431   3.428   3.050   3.065 -0.6125 -0.2138  0.8203
15647TIP3    H168432   3.504   2.999   3.095  0.1434  0.5825  0.2782
15647TIP3    H268433   3.465   3.118   3.010 -1.3662  2.3164  3.3115
15648TIP3   OH268434   1.162   5.158  10.825  0.3357 -0.0238  0.0304
15648TIP3    H168435   1.073   5.124  10.822  0.4948 -1.1163  4.1727
15648TIP3    H268436   1.201   5.134  10.741 -3.3404  0.7642 -1.9687
15649TIP3   OH268437   4.164   2.948   1.117 -0.0831 -0.5350 -0.5053
15649TIP3    H168438   4.154   2.950   1.213  1.0080 -1.0903 -0.3628
15649TIP3    H268439   4.086   2.902   1.086 -0.9343  0.5255  0.0378
15650TIP3   OH268440   5.052   2.826  12.891  0.0911  0.2170 -0.1306
15650TIP3    H168441   5.032   2.775  12.969  1.3246 -0.5588 -0.3077
15650TIP3    H268442   5.114   2.772  12.842  0.7959  1.5370 -0.7145
15651TIP3   OH268443   6.062   1.050   3.322  0.7357  0.1633 -0.2108
15651TIP3    H168444   6.117   1.106   3.267 -1.1429  0.6349 -1.6521
15651TIP3    H268445   6.057   1.096   3.405 -1.6511  2.7366 -1.7038
15652TIP3   OH268446   0.917   0.480   4.600 -0.2593 -0.2691  0.0385
15652TIP3    H168447   0.998   0.521   4.568 -1.1087  0.2624 -1.5058
15652TIP3    H268448   0.872   0.550   4.648  0.1469 -0.5451  0.8371
15653TIP3   OH268449   2.275   4.115  14.463 -0.8476 -0.1081 -0.1953
15653TIP3    H168450   2.204   4.144  14.520 -0.5629 -0.9300  0.6019
15653TIP3    H268451   2.354   4.122  14.517 -0.8751 -3.1417  0.3413
15654TIP3   OH268452   5.608   6.181   0.212 -0.1624 -0.7218  0.0822
15654TIP3    H168453   5.663   6.219   0.143 -0.3819  0.1476  0.3690
15654TIP3    H268454   5.667   6.125   0.262  0.2262 -0.5825 -0.2171
15655TIP3   OH268455   0.377   3.998   0.804 -0.2117 -0.1337  0.1455
15655TIP3    H168456   0.447   3.941   0.836 -0.3090 -1.1722 -1.4339
15655TIP3    H268457   0.296   3.954   0.831 -0.2948 -1.0304 -1.5092
15656TIP3   OH268458   4.799   3.336   4.592 -0.2014  0.2378  0.0780
15656TIP3    H168459   4.817   3.430   4.594  1.2137  0.0070 -0.6755
15656TIP3    H268460   4.852   3.303   4.519 -1.8372 -0.9142 -0.6127
15657TIP3   OH268461   2.991   6.368  15.480 -0.2862  0.1963  0.4737
15657TIP3    H168462   3.009   6.324  15.563 -1.1105 -0.4333  0.3262
15657TIP3    H268463   2.915   6.423  15.498  0.0360  0.6828  0.3512
15658TIP3   OH268464   2.845   6.178   6.406  0.0728 -0.6309  0.2153
15658TIP3    H168465   2.916   6.152   6.348 -0.0679 -0.6120  0.0347
15658TIP3    H268466   2.872   6.148   6.493  2.7024  3.8029  1.0871
15659TIP3   OH268467   5.010   4.294   0.782 -0.6096 -0.1258 -0.8889
15659TIP3    H168468   5.093   4.314   0.825 -1.5049  0.8845  0.4008
15659TIP3    H268469   5.036   4.250   0.701  1.1899  0.4281 -0.6497
15660TIP3   OH268470   0.087   3.175  15.401  0.3038  0.7144 -0.6317
15660TIP3    H168471   0.153   3.191  15.468  0.8530 -0.0983 -0.9815
15660TIP3    H268472   0.134   3.183  15.318 -0.1429  0.6304 -0.8949
15661TIP3   OH268473   1.099   2.091   5.247  0.4157  0.7119  0.3718
15661TIP3    H168474   1.149   2.026   5.295 -2.7309 -1.6775  0.5976
15661TIP3    H268475   1.115   2.071   5.154 -2.1892 -1.8781  0.3976
15662TIP3   OH268476   1.857   0.694  13.561  0.0760  0.3520 -0.5472
15662TIP3    H168477   1.806   0.685  13.641 -0.9284 -0.0034 -1.2213
15662TIP3    H268478   1.944   0.662  13.585 -0.3657 -0.2698  0.2518
15663TIP3   OH268479   4.601   2.455   3.126 -0.4398  0.0958  0.0364
15663TIP3    H168480   4.521   2.486   3.168 -0.3188  0.2716  0.1363
15663TIP3    H268481   4.571   2.417   3.043 -0.6510 -0.0399  0.1739
15664TIP3   OH268482   6.525   3.740  14.449  0.1921  0.1711 -0.6103
15664TIP3    H168483   6.448   3.788  14.476  1.1856  1.7664 -0.5755
15664TIP3    H268484   6.510   3.719  14.357 -0.6235 -0.2069 -0.3899
15665TIP3   OH268485   4.817   2.155   1.232  0.4673  0.0240  0.1222
15665TIP3    H168486   4.824   2.184   1.323 -0.7137 -2.1716  0.9427
15665TIP3    H268487   4.730   2.116   1.226 -0.1596  1.6850 -2.4323
15666TIP3   OH268488   0.419   5.428  14.875  0.1323  0.1572  0.1152
15666TIP3    H168489   0.358   5.413  14.803  0.4884 -0.5076 -0.0500
15666TIP3    H268490   0.385   5.374  14.947  0.5411 -0.2358  0.0125
15667TIP3   OH268491   2.092   4.447  12.224  0.3149  0.1652  0.0853
15667TIP3    H168492   2.012   4.413  12.184  0.3308 -0.5186  0.6356
15667TIP3    H268493   2.159   4.439  12.156  0.7212 -2.5111  0.7538
15668TIP3   OH268494   4.765   4.961  12.786  0.2426 -0.0456  0.1556
15668TIP3    H168495   4.692   4.909  12.751 -1.1284  1.4241  0.8010
15668TIP3    H268496   4.728   5.048  12.799  2.6622  1.2380 -1.3779
15669TIP3   OH268497   5.668   6.737  12.439 -0.2368 -0.0220 -0.2358
15669TIP3    H168498   5.721   6.676  12.389  0.6764 -1.9902  2.9821
15669TIP3    H268499   5.592   6.685  12.467 -0.9622  1.1653  0.0480
15670TIP3   OH268500   0.781   6.598  16.196 -0.2886  0.1143 -0.2232
15670TIP3    H168501   0.703   6.546  16.217  1.6476 -2.2003  1.6248
15670TIP3    H268502   0.807   6.567  16.109 -3.3534  3.4270 -2.4236
15671TIP3   OH268503   5.113   3.785   1.579  0.0428 -0.2374  0.3066
15671TIP3    H168504   5.039   3.726   1.594  1.0892 -1.7047 -0.2179
15671TIP3    H268505   5.139   3.812   1.667 -1.1518  0.3617  0.4939
15672TIP3   OH268506   6.248   4.628   2.475 -0.0478  0.3024 -0.1238
15672TIP3    H168507   6.273   4.612   2.384 -0.7430  0.3607 -0.3259
15672TIP3    H268508   6.325   4.602   2.526 -0.0042 -0.6638 -0.6587
15673TIP3   OH268509   0.191   3.469   5.840 -0.1722 -0.1227 -0.4380
15673TIP3    H168510   0.145   3.511   5.768 -1.9426 -0.4218  0.4788
15673TIP3    H268511   0.212   3.381   5.808 -0.5736 -0.1134 -0.7241
15674TIP3   OH268512   1.976   2.279   3.049 -0.6295 -0.0347 -0.2616
15674TIP3    H168513   2.016   2.251   3.131 -0.9017 -0.0296 -0.1240
15674TIP3    H268514   1.990   2.373   3.046 -3.0423  0.4350  1.1557
15675TIP3   OH268515   6.789   3.287   2.736  0.4435 -0.0453  0.0691
15675TIP3    H168516   6.739   3.345   2.679 -0.0586  0.0254  0.5798
15675TIP3    H268517   6.815   3.215   2.679  0.0881  0.1087 -0.2914
15676TIP3   OH268518   4.868   2.964  12.278  0.3959 -0.0896  1.1792
15676TIP3    H168519   4.803   2.893  12.278 -1.4357  1.4651 -1.6420
15676TIP3    H268520   4.833   3.028  12.216  2.9670  2.4083  2.1939
15677TIP3   OH268521   0.267   4.234   6.279 -0.4180  0.6471 -0.6279
15677TIP3    H168522   0.355   4.214   6.311 -0.8081 -0.4809 -0.2146
15677TIP3    H268523   0.263   4.193   6.192 -0.8469 -0.1456 -0.2444
15678TIP3   OH268524   4.097   0.650  11.430  0.1486 -0.9273 -0.6895
15678TIP3    H168525   4.080   0.693  11.346  1.4800 -0.5398 -0.7715
15678TIP3    H268526   4.123   0.721  11.488  1.6275 -1.5129 -0.6157
15679TIP3   OH268527   5.950   0.687   5.680 -0.2823  0.1113  0.1538
15679TIP3    H168528   6.038   0.715   5.655 -0.2648  0.2152  0.3333
15679TIP3    H268529   5.919   0.754   5.741 -0.0961 -0.4596  0.8846
15680TIP3   OH268530   6.061   5.234  14.975 -0.9330  0.1338 -0.0731
15680TIP3    H168531   5.968   5.217  14.988 -0.4637 -2.4890  0.1246
15680TIP3    H268532   6.073   5.230  14.880 -0.8627 -0.5723 -0.0409
15681TIP3   OH268533   4.524   6.589   4.595 -1.1776  0.1694  0.1150
15681TIP3    H168534   4.482   6.527   4.535 -0.5833 -0.6757  0.5602
15681TIP3    H268535   4.513   6.550   4.681 -0.5862  0.5656  0.3721
15682TIP3   OH268536   1.602   6.773   1.033  0.0367  0.2150  0.1732
15682TIP3    H168537   1.593   6.731   0.947 -0.5630 -1.8301  1.1965
15682TIP3    H268538   1.667   6.842   1.019 -1.3108  1.0376 -2.3050
15683TIP3   OH268539   2.572   1.894   5.407 -0.9247 -0.3063 -0.3501
15683TIP3    H168540   2.610   1.894   5.319  0.4989 -0.0652  0.2384
15683TIP3    H268541   2.578   1.803   5.436 -0.2788 -0.1735 -0.0523
15684TIP3   OH268542   1.590   3.543  16.028 -0.1287 -0.4680  0.5349
15684TIP3    H168543   1.646   3.614  16.061 -1.4330  0.8488 -0.0306
15684TIP3    H268544   1.650   3.471  16.011  1.2299  0.5033  1.1307
15685TIP3   OH268545   5.415   5.262   2.265 -0.3991  0.1052  0.2331
15685TIP3    H168546   5.414   5.188   2.205  0.3590 -0.2363  0.6298
15685TIP3    H268547   5.323   5.282   2.281 -0.6176  1.2625 -2.3288
15686TIP3   OH268548   5.830   0.335   2.022  0.6178 -0.0070 -0.2706
15686TIP3    H168549   5.754   0.348   1.965  1.1323 -0.9998 -1.1996
15686TIP3    H268550   5.792   0.322   2.109 -0.2799 -0.5479 -0.7369
15687TIP3   OH268551   4.888   3.874   3.099 -0.5790 -0.9192  0.5188
15687TIP3    H168552   4.816   3.925   3.062 -0.3150 -0.5992  0.4432
15687TIP3    H268553   4.909   3.810   3.032  0.4795  0.2225 -0.2501
15688TIP3   OH268554   2.379   5.085  16.384  0.2024  0.1470  0.2488
15688TIP3    H168555   2.463   5.056  16.347 -0.1914 -2.2629  1.1340
15688TIP3    H268556   2.400   5.107  16.475  0.3250  1.8175 -0.1844
15689TIP3   OH268557   6.774   1.781  12.214  0.2425 -0.2019  0.0566
15689TIP3    H168558   6.714   1.824  12.153 -1.0472 -0.0974  1.3640
15689TIP3    H268559   6.717   1.738  12.277  1.5534 -0.7861  0.8592
15690TIP3   OH268560   5.048   4.999   6.041  0.0142 -0.2018  0.5692
15690TIP3    H168561   5.137   5.030   6.027  0.2532 -1.1608 -0.1109
15690TIP3    H268562   5.037   4.929   5.977 -1.2387 -0.0736  0.6367
15691TIP3   OH268563   4.328   0.517  10.484  0.6760 -0.0156 -0.5256
15691TIP3    H168564   4.331   0.426  10.514  2.7684  0.0396 -0.4871
15691TIP3    H268565   4.244   0.524  10.438  1.2596 -2.4691 -2.0795
15692TIP3   OH268566   2.241   1.000  10.654 -0.1947  0.4459  0.5521
15692TIP3    H168567   2.287   1.063  10.599 -1.2408  0.6667 -0.0831
15692TIP3    H268568   2.288   0.918  10.641  0.0813  0.6910 -0.0072
15693TIP3   OH268569   4.691   6.004   6.313  0.1167 -0.0452 -0.5134
15693TIP3    H168570   4.736   6.084   6.339 -0.2663  0.1619 -0.4856
15693TIP3    H268571   4.730   5.981   6.228  0.1825  0.2078 -0.5508
15694TIP3   OH268572   0.731   4.972   5.419 -0.1231 -0.2867 -0.0842
15694TIP3    H168573   0.677   5.050   5.403 -1.1673 -0.9309  0.2666
15694TIP3    H268574   0.766   4.985   5.507 -0.6596 -0.4411  0.1464
15695TIP3   OH268575   2.310   1.620  16.471 -0.4307 -0.3847  0.7935
15695TIP3    H168576   2.300   1.695  16.413 -0.7815 -1.3669 -0.4560
15695TIP3    H268577   2.395   1.633  16.513 -0.0633  0.2167 -0.1304
15696TIP3   OH268578   3.979   3.337   2.405  0.3510  0.0418  0.0060
15696TIP3    H168579   3.912   3.278   2.440 -0.0043  1.2946  1.5057
15696TIP3    H268580   3.945   3.425   2.422  2.2075  0.6941  0.5242
15697TIP3   OH268581   4.159   1.012  13.645 -0.0277 -0.2544 -0.3653
15697TIP3    H168582   4.188   1.002  13.554 -3.0124  2.0372 -1.6539
15697TIP3    H268583   4.177   1.104  13.666  0.2315 -0.6530  1.2299
15698TIP3   OH268584   3.941   3.832   1.235 -0.1822 -0.5468 -0.2118
15698TIP3    H168585   3.973   3.918   1.208 -0.0033  0.0751  1.8676
15698TIP3    H268586   4.016   3.791   1.278 -0.3185 -1.6885 -1.0302
15699TIP3   OH268587   1.918   0.366   0.942 -0.6313  0.0314  0.1140
15699TIP3    H168588   1.958   0.453   0.943  1.7370 -0.9279 -2.9146
15699TIP3    H268589   1.992   0.306   0.956 -2.2175 -1.5364  2.0456
15700TIP3   OH268590   0.213   5.660  14.803 -0.5804  0.2975 -0.5536
15700TIP3    H168591   0.265   5.610  14.740  1.3766  0.6336  0.7476
15700TIP3    H268592   0.246   5.750  14.794 -2.2201  0.8590 -1.0047
15701TIP3   OH268593   4.600   5.038   2.939 -0.4584  0.1040  0.1780
15701TIP3    H168594   4.555   5.123   2.941 -0.7501 -0.0306 -0.3716
15701TIP3    H268595   4.589   5.007   2.849  1.0298  0.2115 -0.0508
15702TIP3   OH268596   0.336   2.248  13.125 -0.7689  0.8344 -0.8429
15702TIP3    H168597   0.312   2.155  13.133  0.6051  0.5731  0.5907
15702TIP3    H268598   0.428   2.251  13.152 -1.2424  2.8418  0.6759
15703TIP3   OH268599   0.289   5.104   5.488  0.5984 -0.3073 -0.4061
15703TIP3    H168600   0.350   5.035   5.515 -0.5048 -1.1512 -0.0706
15703TIP3    H268601   0.237   5.065   5.419  1.1471  0.7736 -1.4506
15704TIP3   OH268602   1.428   5.075   2.039  0.2117  0.0084  0.0715
15704TIP3    H168603   1.504   5.078   2.098  1.1516  0.1251 -1.1342
15704TIP3    H268604   1.430   5.160   1.994 -0.6394  0.0107  0.0304
15705TIP3   OH268605   2.386   3.510   3.379 -0.6638 -0.6122  0.0954
15705TIP3    H168606   2.400   3.526   3.472 -2.3860  0.4083  0.2000
15705TIP3    H268607   2.307   3.456   3.375 -1.6696  0.8893 -0.8345
15706TIP3   OH268608   0.562   5.307   5.668 -0.1590  1.2980 -0.1570
15706TIP3    H168609   0.642   5.346   5.633  0.3346  0.8870  0.5140
15706TIP3    H268610   0.575   5.305   5.762 -0.0421 -0.7579 -0.1934
15707TIP3   OH268611   1.452   1.860  16.222  0.5378 -0.5582 -0.3910
15707TIP3    H168612   1.409   1.796  16.279  1.2288 -1.4966 -0.9136
15707TIP3    H268613   1.434   1.944  16.264 -0.6601 -1.0553  0.1178
15708TIP3   OH268614   0.148   0.204   0.654 -0.1060 -0.5933  0.0918
15708TIP3    H168615   0.057   0.230   0.669 -0.5946 -0.7924 -2.3699
15708TIP3    H268616   0.185   0.195   0.742 -1.4620  2.8808  1.1029
15709TIP3   OH268617   2.348   2.073  14.792  0.4519  0.4330  0.0599
15709TIP3    H168618   2.387   2.075  14.705 -0.3770  2.9598 -0.3031
15709TIP3    H268619   2.253   2.075  14.776  0.2734 -0.1632  0.9981
15710TIP3   OH268620   5.738   5.672   0.215 -0.0506 -0.4102  0.4778
15710TIP3    H168621   5.704   5.613   0.148 -0.4608  0.7086 -0.3312
15710TIP3    H268622   5.758   5.616   0.290 -2.0006 -1.3578  0.3230
15711TIP3   OH268623   0.544   0.594  10.937 -0.2798  0.3947 -0.1114
15711TIP3    H168624   0.619   0.542  10.963 -0.7642 -0.1113  0.2873
15711TIP3    H268625   0.507   0.548  10.862 -2.2581 -1.3234  1.8372
15712TIP3   OH268626   6.690   5.211  10.462 -0.7604 -0.1875  0.5752
15712TIP3    H168627   6.761   5.255  10.414 -1.8056 -0.4250 -1.2182
15712TIP3    H268628   6.712   5.118  10.459 -0.9635 -0.2276  0.3238
15713TIP3   OH268629   4.788   3.818  17.159  0.1284  0.6010 -0.0054
15713TIP3    H168630   4.790   3.785  17.249 -2.2857 -1.2634 -0.5964
15713TIP3    H268631   4.833   3.751  17.108  1.9496  1.8984 -0.1537
15714TIP3   OH268632   4.866   6.277  14.895  0.0397 -0.0170  0.0109
15714TIP3    H168633   4.873   6.372  14.891  0.0024 -0.0444 -0.7306
15714TIP3    H268634   4.776   6.261  14.926 -0.3477  0.1684 -1.0172
15715TIP3   OH268635   4.373   0.409   4.922 -0.0059 -0.5092 -0.4423
15715TIP3    H168636   4.400   0.321   4.948  0.8619 -0.1443 -0.1198
15715TIP3    H268637   4.277   0.404   4.917  0.1244 -1.8762 -1.9025
15716TIP3   OH268638   4.878   3.232   4.827 -0.3321  0.4836  0.7868
15716TIP3    H168639   4.830   3.213   4.747 -2.3870  0.2103  2.0454
15716TIP3    H268640   4.910   3.147   4.857  1.2670  0.7135 -0.2448
15717TIP3   OH268641   0.341   5.870  16.450 -0.3429  0.3840 -0.8373
15717TIP3    H168642   0.414   5.924  16.421 -0.6592  1.5204  0.4312
15717TIP3    H268643   0.383   5.798  16.498 -0.0819  1.7608  1.0617
15718TIP3   OH268644   5.137   5.076   5.201 -0.1312 -0.1284 -0.5016
15718TIP3    H168645   5.168   4.999   5.248  0.6666  1.2073  1.2091
15718TIP3    H268646   5.100   5.041   5.120  1.1955 -2.2111 -0.2528
15719TIP3   OH268647   3.177   4.600  13.394  0.5240  0.0413  0.1400
15719TIP3    H168648   3.262   4.598  13.350  0.4671 -0.5445  0.0558
15719TIP3    H268649   3.195   4.572  13.483  0.5609  0.7669  0.3604
15720TIP3   OH268650   5.218   1.735  15.396  0.1253  0.0324 -0.2852
15720TIP3    H168651   5.135   1.703  15.360  0.3107 -0.2601 -0.4564
15720TIP3    H268652   5.270   1.758  15.320  0.1490  0.3539 -0.1710
15721TIP3   OH268653   1.672   5.827  12.104 -0.2605 -0.7513  0.2505
15721TIP3    H168654   1.742   5.802  12.043 -0.8844  0.2140 -0.8864
15721TIP3    H268655   1.592   5.792  12.065 -0.7907  0.6676  0.0271
15722TIP3   OH268656   4.444   4.713   5.542  0.1657  0.5635  0.2039
15722TIP3    H168657   4.517   4.692   5.484  0.6818 -2.1232  1.7474
15722TIP3    H268658   4.484   4.758   5.617 -0.1957  1.9545 -0.4268
15723TIP3   OH268659   5.730   2.457  13.138  0.1163  0.2265 -0.3548
15723TIP3    H168660   5.811   2.459  13.087  0.4368  0.6169  0.1564
15723TIP3    H268661   5.661   2.477  13.075  0.4946  0.5878 -0.6544
15724TIP3   OH268662   0.349   1.302   1.092  0.0119 -0.7951  0.2800
15724TIP3    H168663   0.334   1.361   1.165  3.7692 -0.0709  0.5790
15724TIP3    H268664   0.309   1.345   1.017 -0.0134  0.6087  1.0842
15725TIP3   OH268665   2.021   1.467   4.351  0.2075 -0.0975 -0.3963
15725TIP3    H168666   1.980   1.552   4.366  0.6995  0.1325 -0.3541
15725TIP3    H268667   2.008   1.420   4.434 -0.6679 -0.3211 -0.6504
15726TIP3   OH268668   2.642   1.524   4.965 -0.4133  0.5099 -0.3776
15726TIP3    H168669   2.681   1.538   5.051  0.0212 -0.6165 -0.3857
15726TIP3    H268670   2.716   1.529   4.904 -0.5697  0.3238 -0.5851
15727TIP3   OH268671   0.605   3.824   5.185  0.3883  0.3706 -0.4606
15727TIP3    H168672   0.654   3.742   5.174  3.7177  2.1608  0.5871
15727TIP3    H268673   0.626   3.875   5.107 -0.3788  0.8909 -0.3304
15728TIP3   OH268674   5.071   5.642  12.969 -0.3139 -0.1068  0.3223
15728TIP3    H168675   5.046   5.655  13.060  1.9126  2.1687  0.6467
15728TIP3    H268676   5.133   5.569  12.972 -0.0928  0.0916  0.6641
15729TIP3   OH268677   2.344   5.793   1.736 -0.0866 -0.3362  0.3156
15729TIP3    H168678   2.315   5.870   1.688 -0.1967 -1.5715 -1.6890
15729TIP3    H268679   2.324   5.720   1.677  1.3884 -1.7514  1.5242
15730TIP3   OH268680   1.551   0.567  15.987 -0.2343 -0.0161  0.2986
15730TIP3    H168681   1.642   0.539  15.978  0.0113  1.1956 -1.2323
15730TIP3    H268682   1.506   0.525  15.914 -0.9454 -0.6822  1.1008
15731TIP3   OH268683   2.516   0.510   3.914  0.1634 -0.3473 -0.2993
15731TIP3    H168684   2.522   0.415   3.927 -2.5877 -0.6359 -0.7743
15731TIP3    H268685   2.448   0.538   3.975  0.8338  1.3168 -0.2888
15732TIP3   OH268686   0.218   0.174  12.477 -0.3085 -0.3281 -0.4088
15732TIP3    H168687   0.278   0.138  12.542 -0.5514 -1.5865 -0.8738
15732TIP3    H268688   0.158   0.103  12.457 -1.4808  0.6701 -0.5411
15733TIP3   OH268689   2.397   6.335   0.182 -0.3874 -0.8984 -0.0822
15733TIP3    H168690   2.492   6.340   0.187 -0.4046 -1.2992  0.6682
15733TIP3    H268691   2.373   6.404   0.120  0.2260  0.7038  1.4223
15734TIP3   OH268692   4.873   0.342  16.432  0.1745 -0.1826 -0.5522
15734TIP3    H168693   4.903   0.393  16.507 -1.8464  0.6966 -0.3162
15734TIP3    H268694   4.862   0.254  16.466 -0.2216  0.0978  0.0475
15735TIP3   OH268695   5.664   2.113  15.558  0.2888 -0.1419  0.2402
15735TIP3    H168696   5.759   2.119  15.558  0.2995 -0.3129  0.0144
15735TIP3    H268697   5.634   2.196  15.594  0.5807 -0.8278  2.1229
15736TIP3   OH268698   2.408   6.741  15.753  0.6172 -0.2917  0.6138
15736TIP3    H168699   2.434   6.774  15.667  0.1868 -0.3890  0.4449
15736TIP3    H268700   2.327   6.692  15.737  0.7851 -0.7007  0.9991
15737TIP3   OH268701   6.532   0.828  16.354  0.6269 -0.2021  0.2209
15737TIP3    H168702   6.533   0.916  16.316  1.8061  0.1966  1.1199
15737TIP3    H268703   6.453   0.826  16.408  0.8646  0.4964  0.6055
15738TIP3   OH268704   5.789   2.782  15.723  0.1201  0.4304 -0.2134
15738TIP3    H168705   5.695   2.786  15.738 -0.1506 -0.2273 -1.6640
15738TIP3    H268706   5.828   2.822  15.801 -1.3602  0.9740  0.2528
15739TIP3   OH268707   3.835   1.219   0.695  0.0577 -0.0039 -0.7016
15739TIP3    H168708   3.812   1.312   0.688  0.3592  0.1619  0.3091
15739TIP3    H268709   3.763   1.173   0.653 -1.5545  0.5691  1.3315
15740TIP3   OH268710   6.539   6.265   2.960  0.0532  0.0841  0.3404
15740TIP3    H168711   6.594   6.232   2.889  0.0593  0.3711  0.2070
15740TIP3    H268712   6.550   6.360   2.955 -0.9092  0.1841 -0.0645
15741TIP3   OH268713   3.182   2.950   2.445  0.1074 -0.1098 -0.0663
15741TIP3    H168714   3.243   2.886   2.408 -0.1617 -0.3621 -0.0746
15741TIP3    H268715   3.105   2.944   2.389  0.3987  0.8238 -0.5824
15742TIP3   OH268716   1.857   2.761   4.742  0.1515 -0.3230  0.4962
15742TIP3    H168717   1.786   2.746   4.679  0.2759 -1.2608  0.5692
15742TIP3    H268718   1.872   2.675   4.781  0.6847  0.0725  1.1661
15743TIP3   OH268719   4.339   1.597  13.834  0.0589 -0.6621  0.4481
15743TIP3    H168720   4.296   1.529  13.886  0.2414 -0.5747  0.7102
15743TIP3    H268721   4.371   1.550  13.757  0.5139 -0.9437  0.8081
15744TIP3   OH268722   1.784   3.246   3.139 -0.2694 -0.3723 -0.0778
15744TIP3    H168723   1.862   3.230   3.193  1.3419 -0.4844 -2.3571
15744TIP3    H268724   1.770   3.164   3.093 -0.8351  0.1240 -0.7965
15745TIP3   OH268725   2.425   3.882   4.996  0.2524  0.0229  0.2949
15745TIP3    H168726   2.366   3.956   5.009 -0.7120 -0.5130 -0.9037
15745TIP3    H268727   2.513   3.920   4.997 -0.2653  1.2733 -0.9140
15746TIP3   OH268728   4.101   3.365  14.961  0.3684  0.5582  0.2513
15746TIP3    H168729   4.178   3.413  14.929  0.3368  1.2519  1.1802
15746TIP3    H268730   4.057   3.427  15.019 -1.5487  0.5878 -1.1810
15747TIP3   OH268731   1.047   4.731  14.217 -0.5636  0.4089 -0.3259
15747TIP3    H168732   0.972   4.721  14.157 -0.4634  1.2234 -0.5855
15747TIP3    H268733   1.008   4.753  14.301 -0.6649 -0.0998 -0.2344
15748TIP3   OH268734   4.515   3.504  15.178 -0.3393 -0.5274 -0.6188
15748TIP3    H168735   4.480   3.448  15.248 -2.8216 -0.1670 -1.5215
15748TIP3    H268736   4.443   3.564  15.157  0.5014 -0.3670 -3.2058
15749TIP3   OH268737   2.877   6.559  11.261  0.3567 -0.2140  0.8265
15749TIP3    H168738   2.891   6.468  11.234 -0.1802 -0.8399  2.5829
15749TIP3    H268739   2.926   6.611  11.197 -0.8837 -1.6192 -1.3481
15750TIP3   OH268740   1.078   3.518  15.338  0.3289  0.3716 -0.8610
15750TIP3    H168741   1.040   3.596  15.300 -1.7182  1.6331  3.5224
15750TIP3    H268742   1.158   3.549  15.382 -0.1019 -0.1208  0.2770
15751TIP3   OH268743   5.137   5.182  17.156  0.7654 -0.8794  0.1940
15751TIP3    H168744   5.178   5.257  17.198 -0.7007  0.5812 -0.9211
15751TIP3    H268745   5.086   5.140  17.226  0.4830 -0.0231  0.5130
15752TIP3   OH268746   6.365   4.118  11.271 -0.1000  0.4645  0.0456
15752TIP3    H168747   6.317   4.124  11.188 -1.8798  1.4568  1.1272
15752TIP3    H268748   6.430   4.050  11.256 -1.6405 -0.7032 -1.5605
15753TIP3   OH268749   2.751   1.240  15.559  0.0991 -0.2021  0.3569
15753TIP3    H168750   2.756   1.186  15.480  0.5943  0.3516 -0.0021
15753TIP3    H268751   2.671   1.212  15.604 -0.3474 -0.3005 -0.5022
15754TIP3   OH268752   5.818   0.663  12.090  0.1054 -0.0045 -0.1702
15754TIP3    H168753   5.800   0.708  12.172 -0.2679  2.1736 -1.4116
15754TIP3    H268754   5.913   0.668  12.080  0.2418 -1.0109  0.5181
15755TIP3   OH268755   2.170   2.618   0.790 -0.1550 -0.3864  0.4557
15755TIP3    H168756   2.157   2.542   0.735 -0.6903 -0.9684  1.3774
15755TIP3    H268757   2.265   2.631   0.792 -0.0406 -1.2577  0.6045
15756TIP3   OH268758   5.053   1.215  16.527  0.0152 -0.1595  0.2140
15756TIP3    H168759   5.005   1.134  16.509 -0.3722  0.1508 -0.1537
15756TIP3    H268760   5.073   1.211  16.621  0.0103 -0.6860  0.1929
15757TIP3   OH268761   0.424   1.577   2.741  0.1876  0.3205  0.4022
15757TIP3    H168762   0.443   1.613   2.654  0.5404 -2.9345 -0.9262
15757TIP3    H268763   0.508   1.580   2.787  0.0031  2.0490  0.6415
15758TIP3   OH268764   1.214   2.414   5.868  0.5908 -0.2331 -0.1448
15758TIP3    H168765   1.154   2.422   5.793 -2.6553 -0.5019  2.3168
15758TIP3    H268766   1.232   2.320   5.875  1.2156 -0.1654 -0.8132
15759TIP3   OH268767   0.601   6.293   3.916 -0.1713  0.0951 -0.6319
15759TIP3    H168768   0.552   6.261   3.841 -0.5995 -0.8115  0.0278
15759TIP3    H268769   0.656   6.219   3.942  1.8131  1.1862 -1.5619
15760TIP3   OH268770   2.847   1.862   4.229  1.0891  0.0776  0.1917
15760TIP3    H168771   2.830   1.956   4.238  0.0393 -0.0831 -0.0344
15760TIP3    H268772   2.890   1.853   4.144 -0.8152  0.1075 -0.7954
15761TIP3   OH268773   0.833   5.558   6.348  0.2319  0.3534 -0.4156
15761TIP3    H168774   0.846   5.632   6.407 -0.9988 -0.6818  1.2023
15761TIP3    H268775   0.879   5.485   6.390 -1.1689 -0.5388 -0.3874
15762TIP3   OH268776   6.740   3.607  10.509  0.0668  0.2899  0.2569
15762TIP3    H168777   6.831   3.582  10.495 -0.8248 -2.1140 -1.4591
15762TIP3    H268778   6.721   3.669  10.438  0.6260  1.5862  1.2120
15763TIP3   OH268779   0.928   4.476  11.151  0.1482 -0.0956  0.0944
15763TIP3    H168780   0.888   4.545  11.097 -2.3380 -1.4878  0.0653
15763TIP3    H268781   0.963   4.414  11.087  0.3197 -0.0111  0.1059
15764TIP3   OH268782   3.613   3.726  14.124 -0.5864 -0.5986  0.0460
15764TIP3    H168783   3.586   3.727  14.216 -2.0970 -1.4923 -0.3616
15764TIP3    H268784   3.583   3.642  14.091  0.6381 -0.6153 -1.0797
15765TIP3   OH268785   1.208   4.454  14.853  0.6509 -0.6864 -0.2453
15765TIP3    H168786   1.160   4.516  14.908 -0.6795 -1.2560 -0.7493
15765TIP3    H268787   1.244   4.508  14.782  1.9400 -0.0369  0.8781
15766TIP3   OH268788   5.446   6.295  15.984 -0.0701 -0.3210 -0.2354
15766TIP3    H168789   5.382   6.317  15.916  0.0304 -2.0077 -0.8901
15766TIP3    H268790   5.505   6.371  15.986 -2.4397  1.5862  0.8642
15767TIP3   OH268791   2.486   0.315  10.605  0.0922  0.0813  0.0469
15767TIP3    H168792   2.480   0.306  10.510  1.0008 -2.7547  0.1905
15767TIP3    H268793   2.542   0.391  10.619  0.5067  0.1119 -1.7114
15768TIP3   OH268794   6.212   2.281  13.823 -0.0887 -0.3359 -0.4778
15768TIP3    H168795   6.203   2.263  13.917 -0.1502  2.3033  0.0760
15768TIP3    H268796   6.307   2.283  13.808 -0.0213  1.2239 -0.0042
15769TIP3   OH268797   1.861   5.312   5.389  0.1469  0.1884  0.2332
15769TIP3    H168798   1.877   5.274   5.303  0.3937  1.2938 -0.2218
15769TIP3    H268799   1.808   5.390   5.371 -1.3167 -0.5585  1.2543
15770TIP3   OH268800   3.438   3.555  15.561 -0.4909  0.3437  0.2977
15770TIP3    H168801   3.488   3.510  15.630 -2.4323 -1.1134  0.7926
15770TIP3    H268802   3.457   3.648  15.574 -0.3650  0.0458  2.4258
15771TIP3   OH268803   3.350   2.778  13.406  0.3125  0.1931  0.3349
15771TIP3    H168804   3.263   2.750  13.379 -0.1011  1.8533 -0.0560
15771TIP3    H268805   3.336   2.841  13.476  1.1204  1.7037 -0.8227
15772TIP3   OH268806   0.791   6.647  14.866 -0.3377 -0.3680  0.3129
15772TIP3    H168807   0.759   6.732  14.834  1.0332  0.2022  0.4329
15772TIP3    H268808   0.716   6.588  14.855 -0.9221  0.5692 -0.9141
15773TIP3   OH268809   0.729   6.632   6.185 -0.0509  0.1338 -0.7818
15773TIP3    H168810   0.637   6.606   6.185  0.2963 -1.3237  2.3451
15773TIP3    H268811   0.735   6.704   6.248  0.7601  1.0878 -1.9096
15774TIP3   OH268812   4.016   4.838   2.666  0.1937 -0.0864 -0.4406
15774TIP3    H168813   4.058   4.771   2.612  0.3285 -0.2432 -0.1418
15774TIP3    H268814   3.953   4.880   2.607 -0.4297 -0.9716 -0.4308
15775TIP3   OH268815   2.933   3.777  16.943  0.6162 -0.0900 -0.1297
15775TIP3    H168816   2.902   3.699  16.988 -1.8357  1.1117  0.3364
15775TIP3    H268817   2.890   3.774  16.857 -0.9472  1.6839  0.5744
15776TIP3   OH268818   0.961   5.378  12.885 -0.4813 -0.1092  0.4542
15776TIP3    H168819   1.002   5.445  12.831  0.2509 -0.5375  0.4635
15776TIP3    H268820   0.867   5.396  12.880 -0.3772  0.1370 -0.5573
15777TIP3   OH268821   2.072   4.622  15.830  0.3222  0.1889  0.7654
15777TIP3    H168822   2.158   4.661  15.813 -0.3175  1.9589  1.4172
15777TIP3    H268823   2.091   4.542  15.878  1.6250  0.4873  0.7671
15778TIP3   OH268824   1.025   5.775  11.861  0.0823  0.0229 -0.2203
15778TIP3    H168825   1.051   5.683  11.868  0.3255  0.0376 -0.8281
15778TIP3    H268826   0.935   5.777  11.892 -0.8033 -0.8823 -2.5653
15779TIP3   OH268827   1.250   0.335   2.045  0.3773 -0.0591  0.2217
15779TIP3    H168828   1.169   0.359   2.090 -0.4324 -0.6759 -0.8655
15779TIP3    H268829   1.301   0.287   2.110 -0.5589 -0.5078  0.6320
15780TIP3   OH268830   5.000   6.278  11.575 -0.0152  0.1265 -0.0249
15780TIP3    H168831   5.043   6.281  11.661 -1.3170  2.6057  0.5816
15780TIP3    H268832   5.061   6.323  11.517  0.6753 -1.1852 -0.3369
15781TIP3   OH268833   4.266   5.913   4.641  0.0698 -0.6074 -0.5509
15781TIP3    H168834   4.343   5.878   4.596  0.2980 -1.8730  0.8031
15781TIP3    H268835   4.265   5.869   4.726 -0.1556  2.0397  0.8734
15782TIP3   OH268836   5.631   1.349   1.915 -0.1151 -0.3837  0.2841
15782TIP3    H168837   5.663   1.430   1.875  0.7347 -1.2439 -0.8074
15782TIP3    H268838   5.572   1.311   1.849 -0.0635 -0.9359  0.5507
15783TIP3   OH268839   3.723   6.577   2.036  0.3187  0.2051 -0.1796
15783TIP3    H168840   3.694   6.509   2.098 -1.2424  0.3544 -0.7299
15783TIP3    H268841   3.796   6.620   2.081 -1.3699  0.9264  1.9852
15784TIP3   OH268842   3.740   2.232   0.970  0.4578  0.3819 -0.4356
15784TIP3    H168843   3.657   2.280   0.975  0.1339 -0.3201  0.9644
15784TIP3    H268844   3.792   2.265   1.043  0.7181 -0.5084 -0.2128
15785TIP3   OH268845   4.734   3.924  16.159  0.1389  0.3140  1.0123
15785TIP3    H168846   4.683   3.942  16.080  0.1571 -0.3889  0.8386
15785TIP3    H268847   4.807   3.871  16.128 -0.6582 -1.2155  1.7379
15786TIP3   OH268848   4.158   6.475  13.514 -0.3844  0.0015 -0.2620
15786TIP3    H168849   4.179   6.495  13.423  1.3675 -0.6413 -0.0211
15786TIP3    H268850   4.137   6.382  13.514  1.1643 -0.3605  0.2375
15787TIP3   OH268851   1.989   3.454  14.874  0.1713  0.1804  0.3183
15787TIP3    H168852   1.923   3.384  14.873  0.7918 -0.4783  2.2645
15787TIP3    H268853   2.043   3.438  14.797 -1.5018  0.3113 -0.9060
15788TIP3   OH268854   1.876   5.168  15.937  0.2149 -0.5491  0.5996
15788TIP3    H168855   1.962   5.132  15.960  0.4170 -0.1678  0.4338
15788TIP3    H268856   1.818   5.136  16.006  0.5133 -0.7052  0.7807
15789TIP3   OH268857   3.770   1.965   0.921 -0.0045 -0.1914 -0.4032
15789TIP3    H168858   3.681   1.962   0.886 -0.2354  0.7851  0.0633
15789TIP3    H268859   3.783   2.057   0.945 -0.0712 -0.9026  2.5434
15790TIP3   OH268860   2.549   0.468  11.407 -0.2738 -0.4233 -0.0961
15790TIP3    H168861   2.636   0.447  11.442 -0.1574 -1.6891 -1.1271
15790TIP3    H268862   2.566   0.495  11.317 -0.7974  0.8664  0.1779
15791TIP3   OH268863   2.144   4.010   5.409  0.0859  0.4921 -0.1106
15791TIP3    H168864   2.140   4.102   5.433  0.3627  0.3382  0.5574
15791TIP3    H268865   2.227   3.979   5.446 -0.4256 -0.2301  0.4691
15792TIP3   OH268866   5.109   2.402  15.188 -0.2516  0.2547 -0.0451
15792TIP3    H168867   5.143   2.315  15.171 -1.6141  0.1429 -2.5100
15792TIP3    H268868   5.058   2.393  15.269  0.0992 -1.0998  0.0296
15793TIP3   OH268869   1.876   4.228  16.768  0.1682  0.3311  0.1534
15793TIP3    H168870   1.890   4.311  16.813 -0.6238  0.3298  0.4116
15793TIP3    H268871   1.835   4.172  16.834  0.9499 -0.3615  0.0693
15794TIP3   OH268872   4.216   4.933  12.154  0.3360  0.3762  0.4663
15794TIP3    H168873   4.300   4.976  12.136  0.8914 -0.6775  0.5413
15794TIP3    H268874   4.176   4.922  12.068  0.0967  1.2295  0.4650
15795TIP3   OH268875   0.870   3.813   4.726 -0.4415  0.5416 -0.3016
15795TIP3    H168876   0.886   3.757   4.650  1.1274  2.2032 -1.2345
15795TIP3    H268877   0.937   3.881   4.720 -0.3944  0.8029  2.4949
15796TIP3   OH268878   3.706   0.213   0.969  0.2024 -0.1229  0.6812
15796TIP3    H168879   3.621   0.214   0.925  0.0029 -0.8879  1.0474
15796TIP3    H268880   3.721   0.122   0.992  0.8606  0.0918  1.1354
15797TIP3   OH268881   0.192   5.559   3.819  0.1564 -0.0717 -0.0208
15797TIP3    H168882   0.143   5.610   3.883  2.7462  2.7859 -0.1822
15797TIP3    H268883   0.273   5.537   3.864  1.3972  0.7414 -1.7879
15798TIP3   OH268884   3.164   3.550  13.001 -1.0308 -0.1488  0.3960
15798TIP3    H168885   3.132   3.639  12.984  0.4442  0.6620  1.7678
15798TIP3    H268886   3.175   3.545  13.096 -0.3013 -1.5194  0.2614
15799TIP3   OH268887   5.859   4.088  15.252 -0.3891  0.0974  0.1486
15799TIP3    H168888   5.814   4.004  15.242 -0.2972 -0.2390  2.2407
15799TIP3    H268889   5.946   4.073  15.214 -1.3972  0.2035 -2.2644
15800TIP3   OH268890   1.011   1.238   1.922  0.2104  0.0564 -0.3922
15800TIP3    H168891   1.022   1.148   1.893  0.0997  0.6381 -2.3030
15800TIP3    H268892   0.916   1.247   1.936  0.0180  0.3327 -1.7974
15801TIP3   OH268893   3.620   3.967   4.144 -0.1900  0.0577 -0.3564
15801TIP3    H168894   3.623   3.896   4.209  0.2230 -0.5953 -1.0832
15801TIP3    H268895   3.530   3.965   4.111 -0.5827  0.8089  0.6538
15802TIP3   OH268896   0.540   0.925  16.402  0.0837 -0.2806  0.3537
15802TIP3    H168897   0.591   0.867  16.459  1.8099  1.2133  0.3853
15802TIP3    H268898   0.607   0.975  16.355 -1.3608  2.0464  0.7240
15803TIP3   OH268899   0.960   5.906  12.740  0.9097 -0.0667 -0.5993
15803TIP3    H168900   0.948   5.831  12.797  0.9661 -1.6006 -2.5616
15803TIP3    H268901   1.055   5.911  12.726  0.9908  0.9424  0.2735
15804TIP3   OH268902   2.902   6.339  16.759 -0.1409 -0.8218 -0.2478
15804TIP3    H168903   2.873   6.429  16.744  2.4661  0.1375  0.3047
15804TIP3    H268904   2.903   6.299  16.672 -3.1043 -0.9376 -0.2994
15805TIP3   OH268905   1.943   2.954   4.144 -0.8611 -0.6569  0.7902
15805TIP3    H168906   1.927   2.861   4.125 -0.5447 -0.2046 -1.9474
15805TIP3    H268907   1.856   2.993   4.151 -0.9952 -1.1750  2.0304
15806TIP3   OH268908   0.369   2.745   3.893 -0.5971  0.5158 -0.1990
15806TIP3    H168909   0.275   2.724   3.891 -0.5103 -0.4538  2.8158
15806TIP3    H268910   0.373   2.839   3.879 -1.9980  0.4731 -0.9319
15807TIP3   OH268911   0.352   1.871   5.576  0.3112 -0.5192 -0.5948
15807TIP3    H168912   0.300   1.939   5.533  1.1075  1.0996  0.8853
15807TIP3    H268913   0.361   1.801   5.511 -2.1909 -0.0575 -1.4683
15808TIP3   OH268914   1.128   4.645   1.080  0.3246  0.0177  0.0300
15808TIP3    H168915   1.125   4.711   1.150  1.9799 -0.7930  0.9157
15808TIP3    H268916   1.172   4.689   1.008 -0.6385  0.5974 -0.2103
15809TIP3   OH268917   4.486   1.888   2.409 -0.1705 -0.0290 -0.2117
15809TIP3    H168918   4.477   1.883   2.504  2.1268  0.7519  0.0679
15809TIP3    H268919   4.488   1.982   2.390  0.6192 -0.1794 -0.8923
15810TIP3   OH268920   5.329   4.582  11.175 -0.8890 -0.0854  0.2040
15810TIP3    H168921   5.336   4.487  11.166  2.5891  0.2140 -0.6644
15810TIP3    H268922   5.258   4.606  11.114 -0.8724 -1.9792 -0.5898
15811TIP3   OH268923   6.810   1.421  16.033 -0.5759  0.0687 -0.3893
15811TIP3    H168924   6.731   1.455  16.076 -1.4647 -1.4595 -0.7636
15811TIP3    H268925   6.844   1.495  15.983 -1.3486  0.9562  0.3690
15812TIP3   OH268926   2.276   5.074  15.618 -0.1048  0.7775  0.0159
15812TIP3    H168927   2.323   5.158  15.619  0.7206  0.3299  1.7160
15812TIP3    H268928   2.225   5.076  15.537  1.1294  2.2441 -0.7637
15813TIP3   OH268929   3.034   1.328   0.691  0.0080 -0.6466  0.8279
15813TIP3    H168930   2.984   1.370   0.621 -0.8963 -2.7183  0.2166
15813TIP3    H268931   3.113   1.297   0.648  0.3668 -0.1823  1.1468
15814TIP3   OH268932   1.693   2.394   1.404 -0.5075 -0.0931 -0.0489
15814TIP3    H168933   1.600   2.412   1.415 -0.5019 -0.1569  0.0950
15814TIP3    H268934   1.722   2.360   1.488 -0.0849  1.0812  0.2997
15815TIP3   OH268935   4.480   4.111  15.415  0.5924 -0.3927  0.1403
15815TIP3    H168936   4.520   4.177  15.359  1.1589 -0.4767  0.4372
15815TIP3    H268937   4.531   4.115  15.497 -0.5392  0.0784  0.8307
15816TIP3   OH268938   6.648   5.352   1.343  0.0670 -0.2879  0.3661
15816TIP3    H168939   6.689   5.437   1.358  1.4705 -1.2083  2.1626
15816TIP3    H268940   6.641   5.314   1.431  0.3299 -2.3839 -0.4841
15817TIP3   OH268941   1.112   5.650   3.647  0.0784 -0.5250 -0.2829
15817TIP3    H168942   1.201   5.637   3.612  0.6003 -1.7599  1.4261
15817TIP3    H268943   1.061   5.580   3.606 -0.3011  0.6353 -1.8413
15818TIP3   OH268944   3.108   0.208   0.716 -0.5198 -0.1193  0.3337
15818TIP3    H168945   3.141   0.121   0.694  3.1050  1.0408  0.8051
15818TIP3    H268946   3.136   0.263   0.643  0.7747  1.3817  1.9226
15819TIP3   OH268947   4.666   4.925  17.197  0.1100  0.0564 -0.1513
15819TIP3    H168948   4.738   4.946  17.137 -0.0203 -0.2581 -0.4182
15819TIP3    H268949   4.696   4.956  17.282  0.0288  1.0954 -0.4918
15820TIP3   OH268950   3.381   5.753   3.985  0.0170 -0.3067  0.2225
15820TIP3    H168951   3.363   5.809   4.061  0.4016 -0.8156  0.6947
15820TIP3    H268952   3.476   5.752   3.979 -0.0178 -0.2422 -0.2916
15821TIP3   OH268953   6.613   1.897   0.018 -0.1878  0.1127 -0.4663
15821TIP3    H168954   6.684   1.922   0.077  1.9756  0.8154 -3.2768
15821TIP3    H268955   6.636   1.808  -0.009  0.2836  0.7837 -2.3127
15822TIP3   OH268956   0.365   6.024   1.386  0.3798 -0.0357  0.7669
15822TIP3    H168957   0.455   5.996   1.369  0.4620 -0.3891  1.7618
15822TIP3    H268958   0.328   5.955   1.441 -0.3709  0.3058  0.7009
15823TIP3   OH268959   4.165   0.129   5.345  0.7765 -0.0794 -0.2724
15823TIP3    H168960   4.202   0.107   5.431  1.6308 -1.9733 -1.0937
15823TIP3    H268961   4.242   0.144   5.290  0.2315  1.2092 -0.7040
15824TIP3   OH268962   0.151   4.106   2.886  0.7336  0.0343  0.0146
15824TIP3    H168963   0.148   4.020   2.845 -0.2479  0.7255 -1.4182
15824TIP3    H268964   0.185   4.090   2.974  1.6033 -1.6521 -0.6175
15825TIP3   OH268965   1.550   2.878   5.101  0.0179  0.1161 -0.4087
15825TIP3    H168966   1.459   2.882   5.132  0.1255 -0.6623  0.0182
15825TIP3    H268967   1.594   2.950   5.148  0.1426 -0.9631  1.1548
15826TIP3   OH268968   0.840   1.588  16.249 -0.0534  0.5056  0.3454
15826TIP3    H168969   0.914   1.528  16.260  0.2532  0.6496 -0.7966
15826TIP3    H268970   0.879   1.675  16.247  0.0114  0.4692 -2.2289
15827TIP3   OH268971   2.873   5.365  13.846  0.3478 -0.7362  0.3573
15827TIP3    H168972   2.874   5.360  13.750  1.6527 -0.5174  0.3384
15827TIP3    H268973   2.914   5.450  13.865  0.0691 -0.7694  1.1096
15828TIP3   OH268974   1.472   0.234  16.795 -0.2506 -0.3292 -0.3902
15828TIP3    H168975   1.513   0.314  16.764  2.7167 -1.3324  0.7839
15828TIP3    H268976   1.506   0.166  16.736 -0.1099 -1.2166  0.7135
15829TIP3   OH268977   4.770   6.310  15.986 -0.3470 -0.1510 -0.0204
15829TIP3    H168978   4.755   6.365  15.909 -0.3785 -0.2362 -0.0753
15829TIP3    H268979   4.725   6.228  15.966  0.8119 -0.6820 -0.5015
15830TIP3   OH268980   6.090   1.212   4.962  0.2468 -0.2831  0.0080
15830TIP3    H168981   6.057   1.139   5.014  1.5320  1.1715  2.9511
15830TIP3    H268982   6.051   1.199   4.875 -0.5822 -3.7160  0.8143
15831TIP3   OH268983   2.684   2.965  16.128  0.3636  0.2393  0.2720
15831TIP3    H168984   2.717   2.979  16.040 -1.3619 -1.0073 -0.6039
15831TIP3    H268985   2.641   3.048  16.151 -0.1113  0.2029 -0.4803
15832TIP3   OH268986   4.240   5.234  13.139  0.1431 -0.5728 -0.8500
15832TIP3    H168987   4.308   5.274  13.193  2.5795  1.1737 -4.9521
15832TIP3    H268988   4.239   5.142  13.166  0.9401  0.3033  2.3665
15833TIP3   OH268989   4.609   2.848  12.900 -0.6535  1.1010  0.4243
15833TIP3    H168990   4.571   2.859  12.987 -0.7264 -0.4171  0.5898
15833TIP3    H268991   4.606   2.754  12.883  1.8268  1.0700 -0.0956
15834TIP3   OH268992   3.261   4.261   2.305 -0.2777  0.2249 -0.1058
15834TIP3    H168993   3.171   4.227   2.313 -0.2940  0.3755  0.3030
15834TIP3    H268994   3.266   4.291   2.214  0.2515 -2.3810 -0.9939
15835TIP3   OH268995   4.385   3.146   5.404  0.1661 -0.9942 -0.3616
15835TIP3    H168996   4.449   3.215   5.386 -0.4991 -0.6247 -1.3323
15835TIP3    H268997   4.345   3.127   5.319 -1.3206 -0.9327  0.3044
15836TIP3   OH268998   6.673   5.014  14.697  0.1430  0.0978 -0.0529
15836TIP3    H168999   6.673   4.970  14.612 -2.3183 -1.0066  0.4923
15836TIP3    H269000   6.631   5.098  14.680  0.8214  0.4150 -0.1808
15837TIP3   OH269001   4.773   4.975   4.175  0.7116  0.4403  0.0432
15837TIP3    H169002   4.700   4.992   4.116  0.9663  0.4892 -0.2572
15837TIP3    H269003   4.788   5.060   4.218 -0.4292  0.0363  1.2592
15838TIP3   OH269004   3.241   3.155  14.431 -0.2353  0.1720 -0.6046
15838TIP3    H169005   3.301   3.081  14.424 -0.1002  0.2901 -0.6907
15838TIP3    H269006   3.271   3.203  14.508 -2.2154 -1.5707  1.3278
15839TIP3   OH269007   5.352   0.032  13.810 -0.3044  0.2554 -0.0134
15839TIP3    H169008   5.263   0.067  13.807  0.4757  2.3210  0.1544
15839TIP3    H269009   5.360  -0.020  13.730 -0.7147  2.4604 -1.5539
15840TIP3   OH269010   5.316   5.637  16.725  0.4200  0.7775 -0.0761
15840TIP3    H169011   5.379   5.630  16.653  1.0710 -0.3387  0.5976
15840TIP3    H269012   5.351   5.582  16.794 -0.9472  0.6865  0.5709
15841TIP3   OH269013   0.701   2.938  11.684 -0.4740 -0.3907 -0.1027
15841TIP3    H169014   0.611   2.963  11.663 -1.3718 -2.5230  1.0875
15841TIP3    H269015   0.730   2.887  11.608 -1.2149 -1.9770  0.6683
15842TIP3   OH269016   0.169   1.298   0.018 -0.0061 -0.4481 -0.1688
15842TIP3    H169017   0.248   1.282   0.069  0.4307  0.6338 -0.4926
15842TIP3    H269018   0.180   1.246  -0.061  0.4718 -0.1411 -0.3033
15843TIP3   OH269019   1.270   6.377   3.348 -0.5979 -0.3967 -0.4324
15843TIP3    H169020   1.244   6.448   3.289  1.8603 -1.0171 -2.3205
15843TIP3    H269021   1.331   6.324   3.297  1.3048 -1.1845  2.5255
15844TIP3   OH269022   1.720   5.392  14.097 -0.2499 -0.0494 -0.0796
15844TIP3    H169023   1.756   5.465  14.147  0.1948  0.1099 -0.6282
15844TIP3    H269024   1.780   5.382  14.024 -1.0722 -0.0812 -0.7499
15845TIP3   OH269025   3.194   1.105   0.410 -0.1004  0.4483  0.1111
15845TIP3    H169026   3.226   1.195   0.402  0.2126  0.3552  0.2966
15845TIP3    H269027   3.187   1.090   0.504  0.3321  0.1121  0.0949
15846TIP3   OH269028   3.361   2.312   1.246  0.0551  0.0240 -0.2936
15846TIP3    H169029   3.271   2.344   1.251  0.1314  0.2554 -0.3998
15846TIP3    H269030   3.414   2.382   1.284 -0.0221 -1.0753  1.9368
15847TIP3   OH269031   1.968   3.302   0.821  0.4074 -0.7916 -0.8342
15847TIP3    H169032   1.893   3.315   0.879  0.8596 -0.0823 -0.4050
15847TIP3    H269033   1.937   3.239   0.755 -0.9341  0.3746 -1.3447
15848TIP3   OH269034   3.084   2.299  13.674 -0.2390  0.1933 -0.2272
15848TIP3    H169035   3.013   2.352  13.712 -0.6171  0.2288 -0.9785
15848TIP3    H269036   3.164   2.348  13.696 -0.4874  0.4519  0.1235
15849TIP3   OH269037   2.166   1.626  15.424  0.2281  0.3557  0.0408
15849TIP3    H169038   2.130   1.628  15.513 -0.2187 -2.4958 -0.0387
15849TIP3    H269039   2.259   1.608  15.436 -0.1065 -1.5170 -0.1147
15850TIP3   OH269040   2.512   4.698   5.342  0.0962  0.6008 -0.0106
15850TIP3    H169041   2.420   4.722   5.345  0.2193  1.0032  0.8305
15850TIP3    H269042   2.557   4.778   5.317  0.0413 -0.1306 -2.5673
15851TIP3   OH269043   3.710   2.486  15.501 -0.2236 -0.5248 -0.4051
15851TIP3    H169044   3.737   2.396  15.523  0.4400 -0.6558 -1.7227
15851TIP3    H269045   3.786   2.540  15.525  0.4854 -0.6608 -2.2226
15852TIP3   OH269046   2.903   1.286  13.452 -0.7374 -0.0594 -0.0227
15852TIP3    H169047   2.870   1.360  13.503  0.4661  1.3831 -1.2964
15852TIP3    H269048   2.847   1.284  13.374 -1.4008 -1.1170  0.4755
15853TIP3   OH269049   3.056   2.367  16.470 -0.2950  0.3868  0.1235
15853TIP3    H169050   3.043   2.357  16.564 -0.8063  0.8519  0.1122
15853TIP3    H269051   3.142   2.329  16.452  1.3478  3.4000  1.3275
15854TIP3   OH269052   6.488   0.114   6.055 -0.0062  0.3973 -0.4390
15854TIP3    H169053   6.575   0.154   6.043  0.3819 -0.6901 -1.3805
15854TIP3    H269054   6.454   0.104   5.966 -1.7243  2.1005 -0.0167
15855TIP3   OH269055   2.271   1.001   3.491  0.1402 -0.2359  0.4720
15855TIP3    H169056   2.193   0.947   3.483 -0.2924  0.7452 -2.6136
15855TIP3    H269057   2.340   0.940   3.515 -1.5806 -1.0677  3.6009
15856TIP3   OH269058   1.045   5.521   1.510  0.0598  0.4451  0.2810
15856TIP3    H169059   1.045   5.463   1.587 -0.6669  0.4293  0.2710
15856TIP3    H269060   0.959   5.508   1.470 -0.3618  2.0153  0.6430
15857TIP3   OH269061   0.418   1.897   0.931 -0.3836 -0.2942 -0.2503
15857TIP3    H169062   0.369   1.816   0.925 -0.9971  0.2066 -2.1740
15857TIP3    H269063   0.505   1.875   0.898 -0.7846  0.0113 -1.5308
15858TIP3   OH269064   2.697   5.129   3.748  0.3671  0.0251  0.2747
15858TIP3    H169065   2.630   5.080   3.699 -0.4804 -0.5420  1.9728
15858TIP3    H269066   2.733   5.190   3.683 -0.2126 -1.2125 -1.2512
15859TIP3   OH269067   5.119   2.104   2.254  0.0451 -0.1313  0.2467
15859TIP3    H169068   5.188   2.103   2.320  0.1913  0.4018  0.1069
15859TIP3    H269069   5.079   2.017   2.259  3.3737 -1.9741 -2.4158
15860TIP3   OH269070   0.655   5.480  14.993 -0.4694 -0.5527 -0.1424
15860TIP3    H169071   0.705   5.484  14.912  0.2104  0.1483  0.3020
15860TIP3    H269072   0.564   5.488  14.966 -0.1364  1.5523 -0.6915
15861TIP3   OH269073   0.406   1.667   5.935 -0.0278 -0.2548 -0.0712
15861TIP3    H169074   0.443   1.650   5.849  2.1705 -1.9171  1.1551
15861TIP3    H269075   0.407   1.763   5.943  1.3212 -0.1505 -1.2361
15862TIP3   OH269076   3.177   0.746  14.468 -0.3437  0.4761 -0.4446
15862TIP3    H169077   3.203   0.655  14.453  1.8012  1.1222 -0.7727
15862TIP3    H269078   3.258   0.796  14.460 -1.5160  2.4432 -0.3912
15863TIP3   OH269079   5.455   5.336  15.253 -0.4007 -0.7418 -0.3183
15863TIP3    H169080   5.379   5.352  15.197 -1.6269 -0.0655  1.4639
15863TIP3    H269081   5.493   5.254  15.221 -1.6030 -0.8237 -1.5519
15864TIP3   OH269082   0.586   0.684   0.753 -0.1455 -0.2479  0.6455
15864TIP3    H169083   0.542   0.724   0.678 -1.6793 -1.8256  0.6849
15864TIP3    H269084   0.656   0.631   0.715 -0.7895 -0.8824  0.3564
15865TIP3   OH269085   2.929   6.510  12.104 -0.2176 -0.0076  0.6543
15865TIP3    H169086   2.868   6.520  12.177 -0.8912  0.4161  0.0429
15865TIP3    H269087   2.982   6.589  12.105 -0.5547  0.2220  0.3856
15866TIP3   OH269088   6.391   3.340   1.372  0.1460  0.0892  0.3065
15866TIP3    H169089   6.414   3.300   1.456  1.1097  0.7378  0.3574
15866TIP3    H269090   6.464   3.399   1.353 -0.9308  1.3158 -0.0928
15867TIP3   OH269091   3.415   0.109   5.103 -0.0722 -0.2965  0.6543
15867TIP3    H169092   3.489   0.065   5.146  0.7154  1.2776  0.9492
15867TIP3    H269093   3.391   0.179   5.163 -1.0843 -0.1098  0.0334
15868TIP3   OH269094   2.699   5.703   3.848  0.1339  0.3932 -0.0701
15868TIP3    H169095   2.701   5.629   3.786 -2.2432  0.1886  0.0793
15868TIP3    H269096   2.772   5.685   3.908  0.9478 -0.6696 -1.3372
15869TIP3   OH269097   0.935   2.897  16.545 -0.5572 -0.3364  0.6498
15869TIP3    H169098   0.988   2.974  16.526  1.0880 -1.8307 -1.0242
15869TIP3    H269099   0.910   2.907  16.637  0.4863  1.6616  0.7404
15870TIP3   OH269100   6.149   0.690   3.861  0.0361 -0.1247  0.3676
15870TIP3    H169101   6.113   0.609   3.824 -0.8080  0.8618 -0.9972
15870TIP3    H269102   6.153   0.750   3.787 -2.1090  2.0579  1.9556
15871TIP3   OH269103   3.112   3.917  15.354  0.3620 -0.6853  0.3206
15871TIP3    H169104   3.071   3.858  15.418  3.2456 -3.3773 -0.2111
15871TIP3    H269105   3.100   3.873  15.270 -0.7087  1.3579 -0.6348
15872TIP3   OH269106   1.340   4.128   0.588  0.2116  0.1689  0.0896
15872TIP3    H169107   1.408   4.168   0.643 -1.3005  0.3841  1.8628
15872TIP3    H269108   1.316   4.047   0.634 -3.0452  1.7323  1.3436
15873TIP3   OH269109   2.600   1.462   2.607  0.1690 -0.4520 -0.3794
15873TIP3    H169110   2.631   1.489   2.694 -0.0738 -0.3332 -0.3297
15873TIP3    H269111   2.671   1.408   2.572  0.6666  0.2655 -0.4888
15874TIP3   OH269112   5.436   0.936  12.065  0.2424  0.4779 -0.2538
15874TIP3    H169113   5.514   0.982  12.095 -0.9693  2.8448 -0.6577
15874TIP3    H269114   5.385   1.002  12.018 -0.8438 -1.6461 -2.1645
15875TIP3   OH269115   0.063   2.535  13.827 -0.1506 -0.3668 -0.3983
15875TIP3    H169116   0.045   2.619  13.870  0.8758  1.5018 -3.4700
15875TIP3    H269117   0.031   2.547  13.737  3.8313 -1.7560 -2.0870
15876TIP3   OH269118   2.139   5.064  15.393  0.0144  0.0772 -0.0384
15876TIP3    H169119   2.139   4.970  15.372 -1.7948  0.0970 -0.2299
15876TIP3    H269120   2.158   5.107  15.310  0.9878 -0.1244  0.0793
15877TIP3   OH269121   3.942   4.081   1.709  0.1126  0.3404  0.0649
15877TIP3    H169122   3.971   4.062   1.620  1.1094 -0.4572  0.5543
15877TIP3    H269123   3.855   4.119   1.698 -0.1497 -0.5881 -1.1975
15878TIP3   OH269124   2.221   1.213   3.640 -0.3308  0.1318  0.3435
15878TIP3    H169125   2.278   1.168   3.704 -0.8389 -0.0075  0.7036
15878TIP3    H269126   2.220   1.154   3.564 -0.7185 -0.3078  0.6833
15879TIP3   OH269127   0.342   4.112   1.544 -0.1256 -0.0463  0.1365
15879TIP3    H169128   0.351   4.181   1.609 -0.9957 -0.5643  0.8185
15879TIP3    H269129   0.346   4.030   1.594  0.8090 -0.4874 -0.6486
15880TIP3   OH269130   2.508   2.765  13.822  0.0130 -0.2445  0.5739
15880TIP3    H169131   2.529   2.675  13.847 -0.1338 -0.3615  0.2870
15880TIP3    H269132   2.591   2.800  13.788 -0.0051 -0.3771  0.3883
15881TIP3   OH269133   1.823   4.913   3.681  0.5380 -0.0242  0.1776
15881TIP3    H169134   1.853   4.894   3.592  0.9014  0.5579  0.1732
15881TIP3    H269135   1.778   4.833   3.709 -1.8731  0.6632 -1.5065
15882TIP3   OH269136   6.499   6.214  15.526  0.7331 -0.0511 -0.2542
15882TIP3    H169137   6.429   6.153  15.505 -0.1335  0.8665 -0.0721
15882TIP3    H269138   6.551   6.169  15.592 -0.0606 -0.4792  0.0869
15883TIP3   OH269139   1.785   2.662   0.848 -0.5303  0.1229 -0.6886
15883TIP3    H169140   1.842   2.700   0.781 -0.4479  0.3557 -0.4857
15883TIP3    H269141   1.841   2.655   0.925 -0.4267 -0.7784 -0.8319
15884TIP3   OH269142   0.337   2.706   2.418 -0.2168  0.5731  0.4291
15884TIP3    H169143   0.384   2.718   2.335 -0.1714  0.5428  0.4501
15884TIP3    H269144   0.406   2.700   2.484 -0.2989  2.1338  0.6734
15885TIP3   OH269145   2.753   5.621   5.569 -0.2183  0.0285  0.6384
15885TIP3    H169146   2.805   5.556   5.615  1.2470  0.7223 -0.0175
15885TIP3    H269147   2.740   5.691   5.632 -0.1853 -0.0548  0.7368
15886TIP3   OH269148   4.974   4.987  17.286  0.2398 -0.0370  0.0681
15886TIP3    H169149   5.023   4.915  17.323  1.2291  1.7137  2.2816
15886TIP3    H269150   4.943   5.037  17.362 -1.0484  1.4592 -1.3890
15887TIP3   OH269151   2.984   2.326   4.713 -0.0890 -0.1937 -0.1761
15887TIP3    H169152   2.915   2.264   4.692 -0.3849 -0.5180  1.6521
15887TIP3    H269153   3.057   2.271   4.744 -0.8420  0.3760  2.8019
15888TIP3   OH269154   6.676   3.291  13.485 -0.7869 -0.1247  0.3359
15888TIP3    H169155   6.763   3.323  13.460 -0.6745 -0.0495  0.8121
15888TIP3    H269156   6.644   3.356  13.548 -0.9623 -0.4384  0.5706
15889TIP3   OH269157   2.602   4.320  16.924  0.5064 -0.1060 -0.0399
15889TIP3    H169158   2.527   4.281  16.969 -0.7678  1.6728 -0.5351
15889TIP3    H269159   2.571   4.333  16.834  0.4486  3.1038  0.3926
15890TIP3   OH269160   5.110   3.008  16.119 -0.4416  0.0768 -0.1286
15890TIP3    H169161   5.067   3.036  16.201 -0.0110 -0.4391  0.2730
15890TIP3    H269162   5.045   2.952  16.076 -0.5470  0.0957  0.0051
15891TIP3   OH269163   0.815   4.686   5.606  0.2783 -0.4088  0.1013
15891TIP3    H169164   0.733   4.680   5.556  0.6552 -0.1826 -0.5466
15891TIP3    H269165   0.866   4.611   5.577  0.8843  0.2507 -0.5600
15892TIP3   OH269166   5.455   3.206   2.556  0.4468 -0.1610  0.6239
15892TIP3    H169167   5.549   3.193   2.564  0.4346 -1.2603 -0.7418
15892TIP3    H269168   5.431   3.160   2.476 -1.1307  0.7888  0.5209
15893TIP3   OH269169   0.809   2.248   3.373  0.0668  0.5263  0.0994
15893TIP3    H169170   0.876   2.187   3.404  0.1806  0.9865  0.7865
15893TIP3    H269171   0.841   2.279   3.289  0.6003  0.5511  0.3113
15894TIP3   OH269172   3.047   2.318   5.690 -0.0259 -0.2524 -0.0865
15894TIP3    H169173   3.062   2.403   5.730  0.5912  0.1170 -1.0857
15894TIP3    H269174   3.052   2.256   5.763  2.0904  0.3038  0.2955
15895TIP3   OH269175   5.563   0.344   1.934  0.2122 -0.2758  0.2284
15895TIP3    H169176   5.547   0.250   1.938  2.3359 -0.7253 -1.0182
15895TIP3    H269177   5.488   0.380   1.887 -1.3021 -1.1396  1.9405
15896TIP3   OH269178   0.366   3.259   1.456  0.6091  0.0101  0.6279
15896TIP3    H169179   0.285   3.227   1.415  0.3342  0.0353  1.1502
15896TIP3    H269180   0.360   3.231   1.547  0.4538  1.3686  1.0510
15897TIP3   OH269181   0.879   0.101  15.076 -0.0805  0.0995 -0.3271
15897TIP3    H169182   0.958   0.105  15.023 -1.4391  0.8013 -2.3650
15897TIP3    H269183   0.874   0.010  15.105  0.3945 -0.4537 -1.9176
15898TIP3   OH269184   0.559   1.058  15.669 -0.0031 -0.3019 -0.3635
15898TIP3    H169185   0.614   1.119  15.719 -0.2545  0.1712 -0.6640
15898TIP3    H269186   0.563   1.091  15.579 -2.5343  1.0063 -0.0167
15899TIP3   OH269187   6.677   1.195  13.468  0.4683  0.0083 -0.4018
15899TIP3    H169188   6.653   1.162  13.555  0.0503 -1.7345 -1.1569
15899TIP3    H269189   6.753   1.143  13.443  0.8109  0.7572 -0.9393
15900TIP3   OH269190   6.470   1.739  15.196  0.4794  0.1396  0.3758
15900TIP3    H169191   6.457   1.652  15.235 -1.0871  0.7869  1.3497
15900TIP3    H269192   6.505   1.792  15.267  2.3055  0.0761 -0.4735
15901TIP3   OH269193   0.303   6.498  14.344  0.2326  0.0293 -0.1575
15901TIP3    H169194   0.382   6.469  14.297 -0.2468 -0.4679 -0.6652
15901TIP3    H269195   0.237   6.432  14.322 -0.8820  1.4894 -1.3450
15902TIP3   OH269196   3.190   6.054  12.683  0.3285 -0.2520  0.4406
15902TIP3    H169197   3.145   6.079  12.763 -0.7359  1.1938 -0.5881
15902TIP3    H269198   3.151   6.109  12.615  0.7167 -1.9542 -1.1947
15903TIP3   OH269199   1.042   1.365   2.175  0.2722  0.3297 -0.1898
15903TIP3    H169200   1.019   1.322   2.092  1.9523 -1.0630  0.0277
15903TIP3    H269201   0.984   1.324   2.239 -1.1222  1.5007 -0.6802
15904TIP3   OH269202   5.885   5.794  13.412 -0.2078 -0.0694 -0.4648
15904TIP3    H169203   5.930   5.710  13.404 -0.3866 -0.2246  0.1788
15904TIP3    H269204   5.876   5.825  13.322  1.1460 -0.0626 -0.6146
15905TIP3   OH269205   0.011   3.062  16.647  0.2986 -0.3497 -0.3514
15905TIP3    H169206   0.045   2.973  16.653  2.7643  0.5915  0.3242
15905TIP3    H269207  -0.018   3.082  16.736  0.2395 -0.2944 -0.3843
15906TIP3   OH269208   1.468   4.825  16.069 -0.0579 -0.3145  0.0897
15906TIP3    H169209   1.518   4.883  16.012 -0.4463 -0.4103 -0.3570
15906TIP3    H269210   1.531   4.758  16.097  0.4633  0.4790  0.8444
15907TIP3   OH269211   1.122   1.121   4.243 -0.3314 -0.5174 -0.1258
15907TIP3    H169212   1.180   1.103   4.170 -0.4269 -2.1075  0.1818
15907TIP3    H269213   1.034   1.116   4.206 -0.3582 -0.6011 -0.0505
15908TIP3   OH269214   5.289   3.105  12.312  0.0789  0.2190 -0.0893
15908TIP3    H169215   5.346   3.067  12.245 -0.8880 -0.4963 -0.5213
15908TIP3    H269216   5.227   3.035  12.333 -0.2344  0.7697  0.8496
15909TIP3   OH269217   3.735   0.178  16.060  0.6416 -0.2106 -0.0865
15909TIP3    H169218   3.758   0.271  16.068 -2.5152  0.4427  2.8196
15909TIP3    H269219   3.754   0.141  16.146 -0.3927 -1.6779 -0.4697
15910TIP3   OH269220   2.857   6.378   4.203 -0.2377  0.4135 -0.1514
15910TIP3    H169221   2.931   6.317   4.209  0.3701  1.2476  1.0174
15910TIP3    H269222   2.867   6.419   4.117  0.3244  0.1107 -0.2348
15911TIP3   OH269223   0.030   6.299  13.441  0.1697  0.2582  0.0116
15911TIP3    H169224   0.121   6.325  13.424  0.4273 -0.8564 -0.3338
15911TIP3    H269225   0.033   6.204  13.449 -1.3120 -0.0106 -2.1209
15912TIP3   OH269226   0.852   4.340  16.609  0.3043 -0.4924 -0.7470
15912TIP3    H169227   0.822   4.295  16.688  0.0586  1.0458  0.0622
15912TIP3    H269228   0.790   4.314  16.541  0.0178 -1.1563 -0.2383
15913TIP3   OH269229   4.960   0.786   4.146 -0.1144  0.1619  0.3093
15913TIP3    H169230   5.024   0.771   4.077 -1.9024 -1.3658 -1.0385
15913TIP3    H269231   4.932   0.877   4.133  1.5517  0.7651  0.7578
15914TIP3   OH269232   3.565   6.340  13.022 -0.0551  0.1162  0.1118
15914TIP3    H169233   3.486   6.393  13.030 -1.2656 -1.2830 -2.2165
15914TIP3    H269234   3.546   6.261  13.074  0.2349  0.2245  0.3888
15915TIP3   OH269235   3.794   4.524   0.211 -0.4983  0.1728 -0.2202
15915TIP3    H169236   3.851   4.470   0.157 -1.1813  0.6111 -1.3943
15915TIP3    H269237   3.751   4.463   0.270  1.2953 -0.1518  0.8065
15916TIP3   OH269238   5.930   2.921  15.293 -0.2904  0.0280 -0.4055
15916TIP3    H169239   5.958   2.928  15.202 -2.4278 -0.8024 -1.1579
15916TIP3    H269240   5.885   3.004  15.311 -0.6192 -0.1635 -0.3566
15917TIP3   OH269241   3.466   0.663  13.723  0.6364  0.2881 -0.3337
15917TIP3    H169242   3.553   0.703  13.716 -1.2828  4.9536  0.7267
15917TIP3    H269243   3.423   0.685  13.641 -1.1475  2.2011  1.0815
15918TIP3   OH269244   4.924   2.772  13.971  0.2919 -0.0719 -0.0690
15918TIP3    H169245   4.845   2.785  14.023  0.1795 -0.9236 -0.0175
15918TIP3    H269246   4.992   2.822  14.016 -0.2560  0.8143 -0.2177
15919TIP3   OH269247   3.285   2.658  16.393  0.0932  0.2865 -0.6176
15919TIP3    H169248   3.299   2.613  16.476 -1.4311  0.0586 -0.4813
15919TIP3    H269249   3.196   2.693  16.398  0.9690  2.7024 -1.0261
15920TIP3   OH269250   6.364   0.050  13.726 -0.6905  0.1793 -0.2359
15920TIP3    H169251   6.456   0.063  13.749 -1.2689 -0.0452  2.3498
15920TIP3    H269252   6.351   0.103  13.647  1.4952  0.7026 -0.2669
15921TIP3   OH269253   2.571   4.837   3.830 -0.6245 -0.1296  0.3569
15921TIP3    H169254   2.522   4.778   3.773 -0.0564 -1.1596  0.9246
15921TIP3    H269255   2.653   4.852   3.784 -0.6516 -0.0041  0.3489
15922TIP3   OH269256   4.699   5.925  13.801 -0.0952 -0.3566  1.1426
15922TIP3    H169257   4.725   5.834  13.784 -1.8544 -1.0594  2.1550
15922TIP3    H269258   4.621   5.939  13.748  0.3104  0.6741  0.7869
15923TIP3   OH269259   1.778   1.901  11.211 -0.7574  0.2594 -0.0985
15923TIP3    H169260   1.722   1.972  11.242 -2.0756  0.2762 -2.3873
15923TIP3    H269261   1.719   1.845  11.159  0.5054 -1.8477  0.6596
15924TIP3   OH269262   2.497   1.810  15.715 -0.1725  0.1145  0.0987
15924TIP3    H169263   2.479   1.738  15.654 -0.1474  0.0235  0.1995
15924TIP3    H269264   2.439   1.881  15.685 -0.5690 -0.1195  0.3130
15925TIP3   OH269265   3.987   4.049  13.625  0.2544 -0.4733  0.8078
15925TIP3    H169266   3.923   3.990  13.586  1.7110 -0.7017 -1.2686
15925TIP3    H269267   3.980   4.033  13.719 -1.7300 -1.5068  0.5003
15926TIP3   OH269268   3.285   4.398  14.996 -0.0507 -0.5324  0.2945
15926TIP3    H169269   3.291   4.401  14.900 -1.0040 -1.2363  0.2034
15926TIP3    H269270   3.216   4.334  15.014 -1.8166  1.6042  1.3758
15927TIP3   OH269271   2.822   1.974  14.719  0.2475  0.4870  0.3492
15927TIP3    H169272   2.892   2.040  14.717  0.2553  0.4591 -0.4925
15927TIP3    H269273   2.745   2.023  14.748  0.5439  0.5820  0.9914
15928TIP3   OH269274   2.513   1.051   3.317 -0.0578  0.0713  0.0659
15928TIP3    H169275   2.528   1.098   3.235 -1.1844  1.1873  0.4814
15928TIP3    H269276   2.455   1.108   3.367 -0.6655 -1.3331  0.9943
15929TIP3   OH269277   4.752   4.925   0.181  0.0030  0.4172  0.4373
15929TIP3    H169278   4.794   4.956   0.262  0.4574  1.0910 -0.0511
15929TIP3    H269279   4.660   4.913   0.206  0.3529 -0.4382  1.3433
15930TIP3   OH269280   4.070   4.076  13.280 -0.0700  0.6400  0.2279
15930TIP3    H169281   4.131   4.140  13.317  0.7800 -1.1008  1.8905
15930TIP3    H269282   3.984   4.103  13.314  0.3718  0.5314  1.4526
15931TIP3   OH269283   5.106   6.501  11.013  0.0022 -0.1563 -0.0513
15931TIP3    H169284   5.051   6.427  10.988  0.3938 -0.7376  0.7548
15931TIP3    H269285   5.157   6.521  10.935  1.4620 -2.1516  0.3234
15932TIP3   OH269286   1.930   4.023  15.963 -0.1735 -0.2404 -0.0855
15932TIP3    H169287   1.835   4.028  15.970 -0.1135 -1.1393  1.7472
15932TIP3    H269288   1.946   3.941  15.916 -0.3423  1.1108 -2.5687
15933TIP3   OH269289   0.817   3.856   6.444 -0.1219 -0.3075  0.3345
15933TIP3    H169290   0.818   3.874   6.538 -2.1581 -1.1746  0.5447
15933TIP3    H269291   0.737   3.807   6.430  0.8971 -1.4674 -1.6447
15934TIP3   OH269292   0.326   0.641  11.714  0.2052  0.2498  0.2502
15934TIP3    H169293   0.387   0.582  11.758  0.7413 -0.1249 -0.9536
15934TIP3    H269294   0.252   0.585  11.689  0.5772  0.1281 -0.6220
15935TIP3   OH269295   4.698   3.022  11.379 -0.4508  0.0324  0.0198
15935TIP3    H169296   4.675   2.932  11.403 -0.1054  0.6155  2.7334
15935TIP3    H269297   4.790   3.018  11.353 -0.0323 -0.1908  1.4905
15936TIP3   OH269298   1.713   3.064  15.714 -0.0593  0.2975  0.4355
15936TIP3    H169299   1.621   3.056  15.688 -0.3480 -2.0553  1.9220
15936TIP3    H269300   1.711   3.126  15.787 -0.3413  1.0119 -0.1810
15937TIP3   OH269301   3.354   6.491  12.048  0.3057  0.0910 -0.2675
15937TIP3    H169302   3.372   6.418  11.989  0.6318  1.0114 -1.3162
15937TIP3    H269303   3.308   6.451  12.122 -0.8631 -0.9375 -1.5205
15938TIP3   OH269304   6.432   5.787   3.557  0.9394 -0.4870 -0.6445
15938TIP3    H169305   6.515   5.762   3.597  0.6266 -0.0076  0.3282
15938TIP3    H269306   6.435   5.882   3.552 -0.2733 -0.3130  1.0826
15939TIP3   OH269307   2.337   5.956  14.122  0.2826 -0.0080 -0.6268
15939TIP3    H169308   2.431   5.945  14.139  0.1460  1.8019  1.5076
15939TIP3    H269309   2.334   6.008  14.041  1.0729 -1.4865 -1.6341
15940TIP3   OH269310   2.573   6.152   1.383  0.7232 -0.1290  0.1611
15940TIP3    H169311   2.649   6.196   1.422  0.5304  0.8070 -0.5032
15940TIP3    H269312   2.575   6.064   1.421  1.2710  0.3560  1.3136
15941TIP3   OH269313   0.077   4.917   2.395  0.3607  0.1050  0.4997
15941TIP3    H169314   0.058   5.007   2.368 -0.9032 -0.1927  0.3805
15941TIP3    H269315   0.002   4.867   2.365  1.7540 -1.2636 -0.7761
15942TIP3   OH269316   0.623   0.202   0.567 -0.1093  0.0156  0.1208
15942TIP3    H169317   0.562   0.146   0.615 -0.3476 -0.2441 -0.4892
15942TIP3    H269318   0.707   0.188   0.611  0.1478 -1.9709 -0.9697
15943TIP3   OH269319   3.266   4.234  13.534  0.0849 -0.0114 -0.5776
15943TIP3    H169320   3.232   4.249  13.445 -1.1664  1.2020  0.0950
15943TIP3    H269321   3.269   4.138  13.542 -2.5805 -0.1633 -0.8930
15944TIP3   OH269322   2.934   2.600   4.766  0.0247  0.5905  0.3998
15944TIP3    H169323   2.871   2.588   4.837  0.2305 -0.1983  0.4457
15944TIP3    H269324   2.953   2.512   4.735 -0.4618  0.9718 -0.9847
15945TIP3   OH269325   1.412   3.869  14.106 -0.3649  0.0601  0.2858
15945TIP3    H169326   1.394   3.871  14.200 -1.0464  1.7702  0.1496
15945TIP3    H269327   1.359   3.797  14.073  0.2723 -0.8841  1.2863
15946TIP3   OH269328   6.557   1.272  15.583  0.1526  0.2875 -0.4619
15946TIP3    H169329   6.519   1.191  15.619 -1.2801  0.2029 -2.0985
15946TIP3    H269330   6.637   1.244  15.540  0.7597  0.0650  0.7930
15947TIP3   OH269331   5.735   4.299  15.355 -0.1274  0.3093  0.1505
15947TIP3    H169332   5.784   4.259  15.282  0.7749 -0.4895  1.1715
15947TIP3    H269333   5.789   4.283  15.431 -1.5869  0.1742  1.1811
15948TIP3   OH269334   2.527   0.348   4.716  0.7793  0.8335  0.0586
15948TIP3    H169335   2.556   0.282   4.653 -0.2997 -0.1089  0.5380
15948TIP3    H269336   2.595   0.348   4.784  1.5653  1.3253 -0.7204
15949TIP3   OH269337   6.768   3.068   3.537  0.1656  0.2778 -0.4065
15949TIP3    H169338   6.772   3.080   3.442  0.5123  0.2284 -0.4010
15949TIP3    H269339   6.685   3.108   3.563 -0.6753 -1.1111 -0.9256
15950TIP3   OH269340   3.036   6.267   4.510 -0.4681 -0.3837  0.2943
15950TIP3    H169341   3.118   6.316   4.511 -0.4913 -0.3465  0.7995
15950TIP3    H269342   3.011   6.262   4.418  0.0439 -0.2972  0.1514
15951TIP3   OH269343   1.600   4.205  15.657  0.1844 -0.0767  0.1031
15951TIP3    H169344   1.636   4.285  15.620  0.3267 -0.7646 -1.3053
15951TIP3    H269345   1.515   4.231  15.693  1.1659  1.1271  1.5850
15952TIP3   OH269346   5.003   6.319   4.139 -0.5208 -0.2460  0.5066
15952TIP3    H169347   4.981   6.237   4.094 -2.1114  0.7380 -0.4982
15952TIP3    H269348   4.939   6.382   4.108 -0.7446  0.8219  3.0462
15953TIP3   OH269349   2.914   3.486  15.288 -0.3558 -0.3865  0.2333
15953TIP3    H169350   2.845   3.545  15.260  2.1464  1.9419 -1.2162
15953TIP3    H269351   2.962   3.534  15.356  0.7368 -1.3692  0.1818
15954TIP3   OH269352   0.108   2.801   6.651  0.4420 -0.6559  0.4396
15954TIP3    H169353   0.191   2.765   6.682  0.8112  0.7229  1.1214
15954TIP3    H269354   0.079   2.858   6.723 -0.6822 -0.5088 -0.1313
15955TIP3   OH269355   4.565   2.725   3.631  0.2695 -0.0954  0.4412
15955TIP3    H169356   4.650   2.756   3.663  1.9974 -2.9607 -1.1423
15955TIP3    H269357   4.573   2.630   3.630 -3.1905 -0.4572  0.7486
15956TIP3   OH269358   6.435   5.044  14.937 -0.1317 -0.5587 -0.5776
15956TIP3    H169359   6.400   4.957  14.916 -2.1786  0.6433 -2.4448
15956TIP3    H269360   6.464   5.079  14.853 -0.5838  1.0798 -0.0665
15957TIP3   OH269361   3.496   4.979  13.355  0.3406 -0.1988 -0.2958
15957TIP3    H169362   3.580   5.018  13.332  1.2678 -0.9830  1.6078
15957TIP3    H269363   3.474   5.017  13.440 -0.7529 -0.7240 -0.3311
15958TIP3   OH269364   1.971   4.154   1.294  0.2372  0.9173  0.1113
15958TIP3    H169365   2.022   4.094   1.348  0.0593  0.3894 -0.3081
15958TIP3    H269366   2.031   4.226   1.275  1.0074  0.0444 -0.8187
15959TIP3   OH269367   0.555   0.465  10.560 -0.3410 -0.0461  0.1787
15959TIP3    H169368   0.636   0.414  10.561  0.0656  0.4517 -2.8890
15959TIP3    H269369   0.511   0.440  10.641  2.4494 -1.0005  1.4895
15960TIP3   OH269370   0.052   6.035   4.178  0.4534 -0.1354 -0.7151
15960TIP3    H169371  -0.007   6.072   4.244 -0.8274 -1.4820 -1.0941
15960TIP3    H269372   0.093   6.112   4.137 -0.0294  0.7625  0.4600
15961TIP3   OH269373   3.673   3.708   2.608  0.1109 -0.1329  0.2671
15961TIP3    H169374   3.605   3.660   2.656 -1.6297  1.2743 -0.7205
15961TIP3    H269375   3.751   3.699   2.662 -0.8999 -1.6119  1.5477
15962TIP3   OH269376   0.937   6.492   3.342 -0.2492 -0.3280 -0.2884
15962TIP3    H169377   1.019   6.464   3.302 -0.7003 -0.4011 -1.1575
15962TIP3    H269378   0.927   6.583   3.314  0.3646  0.2033  1.1621
15963TIP3   OH269379   5.027   0.601  11.136  0.2530  0.6138  0.0854
15963TIP3    H169380   4.996   0.689  11.112  2.5036  0.8323 -2.2662
15963TIP3    H269381   5.117   0.598  11.103  1.4309 -1.3391  3.2800
15964TIP3   OH269382   5.429   0.787   2.017 -0.2816 -0.2760  0.1918
15964TIP3    H169383   5.427   0.775   1.922 -0.3801  1.0906  0.0089
15964TIP3    H269384   5.341   0.762   2.046 -0.8111  0.9647 -0.3010
15965TIP3   OH269385   3.012   2.703  12.190 -0.0821  0.5155  0.2103
15965TIP3    H169386   2.927   2.701  12.146  0.7506  1.4053 -1.4683
15965TIP3    H269387   3.029   2.611  12.213 -1.4303  0.3181  0.4655
15966TIP3   OH269388   5.795   0.632  12.742  0.0773  0.2276 -0.5429
15966TIP3    H169389   5.764   0.637  12.652 -0.9546 -0.2378 -0.2147
15966TIP3    H269390   5.785   0.540  12.767  0.9750  0.2250 -0.1651
15967TIP3   OH269391   1.889   6.659   0.635 -0.2934  0.2907 -0.3248
15967TIP3    H169392   1.879   6.565   0.649  0.2712  0.5007  1.5868
15967TIP3    H269393   1.953   6.666   0.564  1.2050 -0.7776  0.8731
15968TIP3   OH269394   2.028   0.684  17.203  0.3219  0.4932  0.2563
15968TIP3    H169395   1.956   0.737  17.171 -0.8511 -1.0886  0.2311
15968TIP3    H269396   2.057   0.729  17.282 -3.7506 -1.2932  2.9336
15969TIP3   OH269397   1.468   0.397   5.341 -0.0920 -0.0927 -0.6794
15969TIP3    H169398   1.510   0.466   5.289 -2.3734  2.1469  0.3257
15969TIP3    H269399   1.524   0.321   5.330  2.6305  1.9919 -1.6590
15970TIP3   OH269400   5.189   2.132  15.118  0.5570 -0.3427 -0.0066
15970TIP3    H169401   5.258   2.121  15.183  0.3512 -2.1819 -0.0453
15970TIP3    H269402   5.234   2.129  15.034  0.6995  0.9295  0.0215
15971TIP3   OH269403   1.734   3.375  14.639 -0.3843  0.3989 -0.0001
15971TIP3    H169404   1.827   3.379  14.659 -0.2104 -1.3846 -0.3162
15971TIP3    H269405   1.692   3.355  14.722 -0.3207 -0.3201 -0.1346
15972TIP3   OH269406   4.371   0.368  12.795  0.2748  0.3800  0.0265
15972TIP3    H169407   4.352   0.450  12.840 -1.8866  0.0553 -0.2112
15972TIP3    H269408   4.445   0.387  12.738 -0.4386  2.2722 -0.2928
15973TIP3   OH269409   3.640   0.454  15.088 -0.1269 -0.2465  0.5352
15973TIP3    H169410   3.666   0.516  15.019 -0.5110 -2.1064 -1.3295
15973TIP3    H269411   3.551   0.481  15.112 -0.5360 -0.4332 -0.7187
15974TIP3   OH269412   2.574   3.830  16.567 -0.0814  0.1711  0.3590
15974TIP3    H169413   2.625   3.891  16.513 -0.9599  0.0705 -0.5880
15974TIP3    H269414   2.546   3.882  16.642 -0.3904  0.7956 -0.1859
15975TIP3   OH269415   5.452   1.196  11.621  0.7125  0.1241 -0.0853
15975TIP3    H169416   5.367   1.193  11.664  1.2693 -0.8767  1.0001
15975TIP3    H269417   5.514   1.167  11.689  1.8437  0.3184 -1.0159
15976TIP3   OH269418   0.285   4.474  15.757 -0.1304 -0.2270  0.9592
15976TIP3    H169419   0.200   4.431  15.768 -0.1328 -0.6696 -0.7506
15976TIP3    H269420   0.340   4.409  15.714 -0.0662  1.3511 -1.4517
15977TIP3   OH269421   4.917   5.628  13.219 -0.5101 -0.5415 -0.3630
15977TIP3    H169422   4.935   5.584  13.302 -0.1893 -0.6532 -0.4886
15977TIP3    H269423   4.892   5.557  13.159  0.1643 -0.5725 -0.6097
15978TIP3   OH269424   6.302   1.109   2.373  0.2147 -0.7073 -0.0593
15978TIP3    H169425   6.274   1.174   2.309  0.7518  0.2737  0.7102
15978TIP3    H269426   6.267   1.026   2.338 -1.6532  0.1605 -0.3289
15979TIP3   OH269427   6.603   3.634   5.350  1.0084  0.3794  0.6368
15979TIP3    H169428   6.541   3.623   5.278  2.3508 -0.5070 -0.4121
15979TIP3    H269429   6.591   3.725   5.379  0.8871  0.9416 -1.1293
15980TIP3   OH269430   0.980   2.462  14.575  0.3925 -0.2957  0.1087
15980TIP3    H169431   0.928   2.403  14.520 -0.9407 -0.5175  1.5639
15980TIP3    H269432   1.070   2.446  14.548 -0.3481  1.5685 -3.9226
15981TIP3   OH269433   4.555   4.319  13.724  0.1982 -0.3107  0.1684
15981TIP3    H169434   4.495   4.247  13.700 -0.2413 -1.3057  3.9651
15981TIP3    H269435   4.512   4.397  13.690 -0.9982 -1.4927 -1.1410
15982TIP3   OH269436   4.496   0.589  13.201  0.2673  0.4099 -0.2065
15982TIP3    H169437   4.542   0.521  13.249 -1.5978 -1.0081 -0.3681
15982TIP3    H269438   4.447   0.637  13.268 -0.4531 -0.0601 -0.3899
15983TIP3   OH269439   1.010   1.608  17.260 -0.7161 -0.6321 -0.0763
15983TIP3    H169440   0.919   1.639  17.267 -0.1523  0.6979  1.7651
15983TIP3    H269441   1.058   1.682  17.224  0.3713  0.2300  2.9466
15984TIP3   OH269442   5.967   1.907   0.772 -0.2109  0.0950 -0.0406
15984TIP3    H169443   6.034   1.845   0.800 -0.0068 -0.1137 -0.9748
15984TIP3    H269444   6.015   1.990   0.764 -0.5184  0.4350  1.3815
15985TIP3   OH269445   2.213   5.407  11.029 -0.2346 -0.0889 -0.5625
15985TIP3    H169446   2.207   5.337  11.094 -0.9098 -0.0056 -0.5297
15985TIP3    H269447   2.302   5.440  11.038 -0.5658  0.4483  0.8755
15986TIP3   OH269448   0.534   1.801  15.275 -0.1679  0.1363  0.0580
15986TIP3    H169449   0.586   1.808  15.195  0.6482  0.7826  0.6308
15986TIP3    H269450   0.451   1.843  15.254  0.9448  2.5355  0.2963
15987TIP3   OH269451   5.370   6.603  13.639  0.0776 -0.3662  0.0118
15987TIP3    H169452   5.461   6.630  13.656  0.2043 -1.9792  2.1762
15987TIP3    H269453   5.378   6.528  13.581  0.1074 -0.4009  0.0607
15988TIP3   OH269454   2.087   3.079   2.012 -0.2291  0.0876 -0.5056
15988TIP3    H169455   2.031   3.126   2.074  0.8268  0.7466 -0.0516
15988TIP3    H269456   2.176   3.090   2.045  0.0773 -1.9694 -0.5511
15989TIP3   OH269457   1.579   2.098   1.837  0.9876 -0.4552 -0.3132
15989TIP3    H169458   1.634   2.039   1.889 -1.5625 -2.4929  0.1165
15989TIP3    H269459   1.501   2.112   1.891 -0.7218 -0.8219 -2.6257
15990TIP3   OH269460   1.612   4.267  11.607  0.0782 -0.5692 -0.1015
15990TIP3    H169461   1.633   4.361  11.603  0.3571 -0.6434 -0.3836
15990TIP3    H269462   1.696   4.226  11.629  0.3069 -0.8996 -1.5558
15991TIP3   OH269463   0.130   0.360  16.661  0.0489 -0.4419  0.4360
15991TIP3    H169464   0.071   0.310  16.717 -0.3834  0.0704  0.4492
15991TIP3    H269465   0.074   0.394  16.592  0.2168  0.5574  0.7891
15992TIP3   OH269466   5.100   0.739   0.135 -0.0261 -0.3339  0.1110
15992TIP3    H169467   5.010   0.740   0.102 -0.2880 -1.5512  0.7438
15992TIP3    H269468   5.147   0.803   0.080 -1.2172  0.1390 -0.3682
15993TIP3   OH269469   3.659   2.894   3.124 -0.0942  0.4589  0.7568
15993TIP3    H169470   3.740   2.914   3.077  0.7439  0.7934  2.3231
15993TIP3    H269471   3.632   2.809   3.089  1.4050 -0.0631  0.8402
15994TIP3   OH269472   2.014   2.831  17.283 -0.1947 -0.3955  0.0278
15994TIP3    H169473   1.936   2.805  17.235  0.1280  0.5121 -1.0173
15994TIP3    H269474   2.086   2.786  17.239  0.0420  0.0089 -0.0094
15995TIP3   OH269475   1.317   1.596  13.823 -0.0538 -0.4856 -0.1302
15995TIP3    H169476   1.392   1.553  13.782  1.7179  0.2678  2.2428
15995TIP3    H269477   1.281   1.652  13.754  1.7009 -0.6681 -1.2205
15996TIP3   OH269478   3.243   2.584  15.643 -0.6293 -0.2405  0.4287
15996TIP3    H169479   3.327   2.604  15.683 -0.9666  1.9714  0.0732
15996TIP3    H269480   3.201   2.669  15.630 -1.8844 -1.1393 -1.6495
15997TIP3   OH269481   4.090   1.325  11.648 -0.0285 -0.1218 -0.3126
15997TIP3    H169482   4.142   1.390  11.694 -1.3090  0.8775 -0.2463
15997TIP3    H269483   4.077   1.255  11.711  0.6934 -0.0941 -0.1278
15998TIP3   OH269484   5.081   1.605   1.741 -0.4649 -0.1132  0.2315
15998TIP3    H169485   5.126   1.541   1.687  0.3907 -0.4694  1.3412
15998TIP3    H269486   5.077   1.684   1.687  0.7003 -0.3502 -0.2028
15999TIP3   OH269487   1.604   1.432  13.830  0.1856 -0.0927  0.2873
15999TIP3    H169488   1.691   1.394  13.845  0.5510  1.1899  1.6134
15999TIP3    H269489   1.551   1.402  13.903 -0.4996 -0.8735 -0.5237
16000TIP3   OH269490   0.406   1.420   2.171  0.2473  0.5138 -0.4024
16000TIP3    H169491   0.474   1.472   2.215  0.2195  0.4182 -0.2456
16000TIP3    H269492   0.360   1.483   2.116  0.1233  0.6843 -0.1048
16001TIP3   OH269493   5.855   0.606   0.337  0.0319  0.3144 -0.8398
16001TIP3    H169494   5.776   0.572   0.378 -0.3062  0.4044 -1.4122
16001TIP3    H269495   5.853   0.571   0.248  0.5566  0.4404 -0.9054
16002TIP3   OH269496   6.260   4.957   5.258 -0.0296  0.4472 -0.4253
16002TIP3    H169497   6.238   4.867   5.233 -0.4938  0.8688 -1.5434
16002TIP3    H269498   6.178   4.995   5.288  0.4227  0.1059  1.2600
16003TIP3   OH269499   1.459   4.602   1.618 -0.1070  0.4156 -0.1753
16003TIP3    H169500   1.380   4.656   1.627  0.6722  1.6531 -0.6001
16003TIP3    H269501   1.530   4.658   1.650  0.6381 -0.5956 -0.0328
16004TIP3   OH269502   0.248   3.757   0.422 -0.4075 -0.0356 -0.4215
16004TIP3    H169503   0.220   3.838   0.466  0.8435 -0.3090  0.9268
16004TIP3    H269504   0.180   3.741   0.357 -2.5535  0.2094  1.6619
16005TIP3   OH269505   4.344   3.074  15.463 -0.5216  0.2879 -0.0034
16005TIP3    H169506   4.436   3.084  15.489 -0.5509 -0.7132  0.4913
16005TIP3    H269507   4.301   3.037  15.539 -1.1429 -0.1584 -0.5692
16006TIP3   OH269508   6.141   3.615   2.399  0.0680 -0.2289  0.0414
16006TIP3    H169509   6.216   3.557   2.398  0.6614  0.5309  0.3892
16006TIP3    H269510   6.066   3.558   2.382  0.7131 -0.9902 -0.2474
16007TIP3   OH269511   4.997   6.507  15.881 -0.2025 -0.4122  0.0349
16007TIP3    H169512   5.092   6.511  15.884 -0.3035  2.3312  1.8647
16007TIP3    H269513   4.974   6.439  15.944  0.5395 -0.5803  0.1325
16008TIP3   OH269514   3.769   3.945  15.505 -0.0564  0.3497 -0.2683
16008TIP3    H169515   3.734   4.033  15.497 -0.5202  0.2129  0.2522
16008TIP3    H269516   3.744   3.917  15.593  0.4719 -0.1324 -0.2670
16009TIP3   OH269517   0.260   3.665  13.990  0.0379  0.1417  0.4250
16009TIP3    H169518   0.336   3.701  14.035 -0.4098  1.3368  0.2298
16009TIP3    H269519   0.260   3.572  14.014  0.3725  0.5603  2.0854
16010TIP3   OH269520   3.805   2.672  16.994  0.1039 -0.2654 -0.2258
16010TIP3    H169521   3.763   2.730  17.057  1.3601  0.5851 -0.1635
16010TIP3    H269522   3.744   2.598  16.986  0.5400 -1.0344  2.9732
16011TIP3   OH269523   6.372   0.675  13.258 -0.2782  0.0548 -0.4083
16011TIP3    H169524   6.394   0.624  13.336 -0.8474 -2.3493 -1.8024
16011TIP3    H269525   6.457   0.694  13.217  0.0211  1.3062  0.7496
16012TIP3   OH269526   1.454   4.129  14.409 -0.2666  0.3521 -0.1260
16012TIP3    H169527   1.475   4.186  14.335  0.0509 -2.1572 -2.0522
16012TIP3    H269528   1.535   4.081  14.426 -0.6354  0.1778  1.2052
16013TIP3   OH269529   0.510   3.077   0.969  0.2799 -0.8648 -0.5869
16013TIP3    H169530   0.583   3.122   0.925 -0.2233  0.7148  0.1426
16013TIP3    H269531   0.432   3.108   0.922  0.0432 -2.2965 -1.1583
16014TIP3   OH269532   1.534   0.567   1.895 -0.4614 -0.5342  0.0088
16014TIP3    H169533   1.521   0.519   1.813  0.6725  0.6316 -0.8811
16014TIP3    H269534   1.565   0.502   1.957  0.7015 -1.0294 -1.0839
16015TIP3   OH269535   4.052   3.549   0.928  0.6115  0.1785  0.2865
16015TIP3    H169536   4.021   3.466   0.892 -1.0401  1.7181 -1.9944
16015TIP3    H269537   4.138   3.561   0.889  0.1974  0.2806 -0.5980
16016TIP3   OH269538   4.995   3.289  16.720 -0.3849  0.0784 -0.0580
16016TIP3    H169539   5.025   3.283  16.630  0.7146 -0.4337  0.3280
16016TIP3    H269540   4.914   3.339  16.716 -0.1450  0.3709 -1.2812
16017TIP3   OH269541   6.173   3.548   6.238  0.3038 -0.4048 -0.5469
16017TIP3    H169542   6.170   3.471   6.296 -0.0549 -0.8627 -1.1673
16017TIP3    H269543   6.187   3.622   6.297 -1.1497 -0.7410  0.2458
16018TIP3   OH269544   0.324   2.726  11.751 -0.3587 -0.2259 -0.1357
16018TIP3    H169545   0.391   2.662  11.728 -0.5894  0.3114 -2.3676
16018TIP3    H269546   0.361   2.811  11.725 -0.6443  0.4393  1.5027
16019TIP3   OH269547   3.130   1.198  12.262  0.0955 -0.0731 -0.1505
16019TIP3    H169548   3.178   1.146  12.197 -1.3467  0.8474 -2.0210
16019TIP3    H269549   3.177   1.184  12.344  3.3331  0.4864 -1.8079
16020TIP3   OH269550   5.555   5.150  12.919 -0.0961 -0.9489  0.2957
16020TIP3    H169551   5.578   5.229  12.968 -0.5951  0.2991 -1.4465
16020TIP3    H269552   5.464   5.132  12.943 -0.2615 -0.4861  0.0136
16021TIP3   OH269553   0.442   3.022   3.962 -0.2116 -0.4904  0.0986
16021TIP3    H169554   0.462   3.079   3.888  1.4032 -0.8014  0.2808
16021TIP3    H269555   0.385   3.075   4.018 -1.4146 -0.2383 -1.3131
16022TIP3   OH269556   5.519   2.291   0.271  0.3713  0.3203  0.3201
16022TIP3    H169557   5.460   2.227   0.312 -0.5521 -0.2943 -1.9241
16022TIP3    H269558   5.462   2.362   0.243  1.1303  1.1719  0.8812
16023TIP3   OH269559   6.372   5.308   6.282  0.1080  0.6566 -0.3504
16023TIP3    H169560   6.430   5.384   6.281  0.0853  0.6925  0.3823
16023TIP3    H269561   6.426   5.236   6.248  0.3829  0.8303 -0.2845
16024TIP3   OH269562   3.278   5.569  12.479 -0.7260  0.4472  0.5229
16024TIP3    H169563   3.203   5.589  12.424 -0.7184 -1.1500 -0.0781
16024TIP3    H269564   3.315   5.489  12.443  2.4061  2.1828 -0.3548
16025TIP3   OH269565   4.675   1.835  12.665  0.6147 -0.2788 -0.3071
16025TIP3    H169566   4.608   1.792  12.612  1.0521 -0.5451 -0.6495
16025TIP3    H269567   4.716   1.764  12.714 -0.8157  0.1503  1.5576
16026TIP3   OH269568   3.586   3.417   3.870 -0.1324 -0.1545 -0.0736
16026TIP3    H169569   3.597   3.489   3.932  0.5168 -0.4635  0.1750
16026TIP3    H269570   3.569   3.461   3.786  2.8815  0.3861 -0.4588
16027TIP3   OH269571   6.753   4.395   5.957  0.1071  0.1545 -0.5530
16027TIP3    H169572   6.673   4.402   6.009 -0.0157 -1.1991 -0.5504
16027TIP3    H269573   6.824   4.409   6.020 -0.1264  2.1289 -0.6908
16028TIP3   OH269574   3.137   1.189   5.384 -0.1810  0.3073 -0.5273
16028TIP3    H169575   3.222   1.145   5.371 -0.4322 -0.4607  0.3961
16028TIP3    H269576   3.084   1.125   5.431 -2.4096 -0.4989 -3.9931
16029TIP3   OH269577   4.603   5.387   4.142  0.0515  0.6205 -0.1318
16029TIP3    H169578   4.619   5.475   4.106  2.3391  1.0785  1.8346
16029TIP3    H269579   4.516   5.393   4.181 -0.7080  1.3606 -1.8877
16030TIP3   OH269580   2.112   1.868   2.214  0.1210  0.0981 -0.0846
16030TIP3    H169581   2.139   1.951   2.253  0.6300 -0.1684  0.1400
16030TIP3    H269582   2.145   1.801   2.275 -2.5159 -0.1928  1.1244
16031TIP3   OH269583   1.673   3.489   3.607 -0.1252 -0.9218  0.3396
16031TIP3    H169584   1.591   3.473   3.561 -0.2639 -0.7782  0.5364
16031TIP3    H269585   1.735   3.512   3.538 -0.4197 -0.3547  0.2616
16032TIP3   OH269586   1.272   2.432   6.428  0.3698 -0.0729 -0.3759
16032TIP3    H169587   1.345   2.493   6.415 -0.1803  0.6179 -0.2888
16032TIP3    H269588   1.227   2.465   6.505 -0.6996  0.1884 -1.0956
16033TIP3   OH269589   2.455   6.282   0.938  0.1289  0.1925 -0.2910
16033TIP3    H169590   2.484   6.320   1.021  1.8058  0.7549 -1.0977
16033TIP3    H269591   2.496   6.195   0.936  0.5532  0.3980 -0.7644
16034TIP3   OH269592   5.943   5.853   2.397 -0.6118  0.2751  0.5459
16034TIP3    H169593   5.965   5.806   2.477  0.3086 -1.4792 -0.7014
16034TIP3    H269594   5.863   5.811   2.366 -0.8657  0.8320  0.4328
16035TIP3   OH269595   6.731   0.994   4.199  0.0002  0.0863 -0.4641
16035TIP3    H169596   6.647   1.039   4.194  0.0534 -0.0431 -3.6456
16035TIP3    H269597   6.758   0.983   4.108  2.7729 -1.1961  0.4434
16036TIP3   OH269598   0.954   6.399   5.582 -0.4861 -0.4732 -0.5192
16036TIP3    H169599   0.922   6.453   5.509 -0.0534 -0.5931 -0.7980
16036TIP3    H269600   0.875   6.360   5.619 -0.8298  0.5749 -0.1379
16037TIP3   OH269601   3.244   3.267   1.648 -0.0614 -0.1904 -0.0712
16037TIP3    H169602   3.189   3.261   1.726  0.3305 -0.4704  0.1877
16037TIP3    H269603   3.334   3.257   1.682  0.0043 -2.2812 -0.7793
16038TIP3   OH269604   6.259   0.857  12.528  0.9122  0.2817  0.0746
16038TIP3    H169605   6.189   0.804  12.565  0.7839  0.4144  0.0221
16038TIP3    H269606   6.270   0.824  12.439  1.1941 -0.0103  0.2154
16039TIP3   OH269607   2.180   6.044   2.621 -0.4497  0.3105 -0.5792
16039TIP3    H169608   2.213   6.095   2.695  1.0481  1.2677 -1.9032
16039TIP3    H269609   2.135   5.970   2.663  0.0127  1.0454  1.2990
16040TIP3   OH269610   6.312   6.473   1.676  0.1700 -0.3473 -0.8408
16040TIP3    H169611   6.271   6.415   1.612 -0.3106 -1.2446  0.2428
16040TIP3    H269612   6.240   6.524   1.712  0.5159  0.5341 -1.4028
16041TIP3   OH269613   2.240   6.137   5.940 -0.1007 -0.1872  0.2030
16041TIP3    H169614   2.151   6.171   5.930  0.2208  0.7179  0.3503
16041TIP3    H269615   2.244   6.103   6.029 -0.3784 -0.4532  0.1113
16042TIP3   OH269616   5.603   4.124  13.972  0.4303  0.7461  0.0189
16042TIP3    H169617   5.638   4.054  13.918  0.7970  1.8922 -1.2391
16042TIP3    H269618   5.517   4.143  13.935  1.2964  2.5590 -1.1351
16043TIP3   OH269619   0.868   1.725  12.943  0.0281 -0.5076 -0.8603
16043TIP3    H169620   0.772   1.723  12.946  0.0354 -0.0217 -0.0721
16043TIP3    H269621   0.890   1.713  12.851 -0.8436  1.6143 -1.3643
16044TIP3   OH269622   0.158   6.083  15.630 -0.1359 -0.0913 -0.1528
16044TIP3    H169623   0.120   6.000  15.602 -1.4548  0.4901 -0.1581
16044TIP3    H269624   0.218   6.107  15.560 -2.2695  0.5964 -1.8197
16045TIP3   OH269625   2.449   2.393  13.047 -0.0874 -0.2985  0.4166
16045TIP3    H169626   2.448   2.298  13.038  0.0647 -0.2154 -0.4953
16045TIP3    H269627   2.359   2.420  13.032 -0.2482 -0.3491  1.2714
16046TIP3   OH269628   6.614   0.241  12.780 -0.0132 -0.4964 -0.1607
16046TIP3    H169629   6.530   0.263  12.740 -0.5973 -0.6796  0.9500
16046TIP3    H269630   6.616   0.145  12.782  0.5735 -0.5130 -0.8822
16047TIP3   OH269631   6.688   5.510  14.325  0.4887  0.3998 -0.5017
16047TIP3    H169632   6.605   5.484  14.364  0.6407 -0.1224 -0.5255
16047TIP3    H269633   6.704   5.598  14.358  1.5434 -0.7204  2.1183
16048TIP3   OH269634   2.776   6.736   3.671  0.1776 -0.1294  0.4127
16048TIP3    H169635   2.730   6.817   3.690 -2.2504 -1.1811 -0.7977
16048TIP3    H269636   2.814   6.709   3.755 -0.6313  1.2427  1.2278
16049TIP3   OH269637   3.856   2.163   5.643 -0.8441 -0.0819  0.4002
16049TIP3    H169638   3.767   2.163   5.610 -0.4926 -0.7061 -0.5637
16049TIP3    H269639   3.894   2.081   5.610  0.5446  0.8971 -0.4774
16050TIP3   OH269640   6.590   6.813   0.041 -0.4923  0.6107  0.4397
16050TIP3    H169641   6.663   6.776   0.091  0.5377  1.0798 -0.6821
16050TIP3    H269642   6.608   6.789  -0.049 -1.7225  0.7656  0.1410
16051TIP3   OH269643   4.363   3.195   1.768 -0.1007 -0.5471  0.1465
16051TIP3    H169644   4.330   3.203   1.858  0.6817 -1.4070  0.5232
16051TIP3    H269645   4.324   3.268   1.721 -2.2720 -1.3296  0.6656
16052TIP3   OH269646   4.114   3.442  12.819 -0.5342 -0.2424  0.2183
16052TIP3    H169647   4.156   3.519  12.857  0.2790 -0.6327  0.1178
16052TIP3    H269648   4.174   3.370  12.838 -0.2971 -0.5040 -1.4830
16053TIP3   OH269649   0.780   1.285  15.353  0.1317  0.1730  0.0506
16053TIP3    H169650   0.687   1.262  15.350 -0.2330  1.4539  1.0937
16053TIP3    H269651   0.806   1.269  15.444  0.0544  3.0219  0.6362
16054TIP3   OH269652   4.491   3.685  17.087  0.0380  0.1541  0.2042
16054TIP3    H169653   4.558   3.644  17.031 -0.3866 -0.0071 -0.1934
16054TIP3    H269654   4.448   3.611  17.130 -0.5399  0.2006 -0.2946
16055TIP3   OH269655   0.657   1.691   4.439 -0.2115  0.1888 -0.2659
16055TIP3    H169656   0.715   1.658   4.508  0.1943 -0.5926 -0.9720
16055TIP3    H269657   0.588   1.625   4.431 -0.8915  0.8397  0.1778
16056TIP3   OH269658   1.589   6.739  16.358  0.4878 -0.1861  0.1581
16056TIP3    H169659   1.586   6.835  16.347  1.2013 -0.2781 -0.8631
16056TIP3    H269660   1.501   6.710  16.333  0.4601  0.1392 -0.1230
16057TIP3   OH269661   6.069   3.999  15.115 -0.3107 -0.2191 -0.0561
16057TIP3    H169662   6.073   3.906  15.095 -0.0633 -0.2926  0.3316
16057TIP3    H269663   6.075   4.042  15.029 -2.9826 -0.5917 -0.4713
16058TIP3   OH269664   2.909   1.122  15.762 -0.2413 -0.0334  0.2732
16058TIP3    H169665   2.857   1.147  15.685 -1.8921 -1.4537  0.9254
16058TIP3    H269666   2.987   1.178  15.756 -0.9992  0.8724 -1.6662
16059TIP3   OH269667   2.456   6.685  16.364  0.0756  0.5849  0.4670
16059TIP3    H169668   2.416   6.626  16.300  2.3982 -1.1217  0.5404
16059TIP3    H269669   2.396   6.682  16.439 -1.9240  1.5119 -1.0237
16060TIP3   OH269670   6.679   6.492  12.485 -0.2495  0.5084 -0.1181
16060TIP3    H169671   6.692   6.561  12.420 -1.2361  0.5423 -0.2977
16060TIP3    H269672   6.584   6.479  12.487 -0.0427 -1.1108 -0.3624
16061TIP3   OH269673   3.155   3.116   3.080  0.8134 -0.0042 -0.5223
16061TIP3    H169674   3.249   3.101   3.096  1.0737 -0.0078 -2.0078
16061TIP3    H269675   3.135   3.062   3.004 -0.8364 -1.3967  0.8649
16062TIP3   OH269676   2.184   5.620  14.408  0.3769 -0.5986 -0.1827
16062TIP3    H169677   2.254   5.561  14.436  1.0458  0.6712  0.8957
16062TIP3    H269678   2.155   5.662  14.488 -1.7248 -1.1812 -0.6128
16063TIP3   OH269679   5.648   1.349  15.796  0.6031  0.1420  0.0722
16063TIP3    H169680   5.630   1.352  15.702  0.3556  0.7564  0.1380
16063TIP3    H269681   5.727   1.295  15.803 -1.6902 -3.4600 -0.1475
16064TIP3   OH269682   2.892   5.897  12.471 -0.1809  0.0571  0.1828
16064TIP3    H169683   2.945   5.834  12.421 -2.7427 -1.5203 -0.6175
16064TIP3    H269684   2.878   5.855  12.555  0.3209  0.7437  0.6154
16065TIP3   OH269685   2.861   5.403   5.725  0.0448 -0.7643  0.1489
16065TIP3    H169686   2.874   5.408   5.820 -0.2203 -0.9093  0.1946
16065TIP3    H269687   2.783   5.348   5.715  0.1853 -0.9058 -0.1613
16066TIP3   OH269688   3.078   4.436   3.533  0.1357  0.2184  0.0673
16066TIP3    H169689   3.097   4.522   3.497  1.8838  0.7113  2.0396
16066TIP3    H269690   2.982   4.434   3.540  0.0599  1.9618 -0.1237
16067TIP3   OH269691   2.481   4.376  16.634  0.1529 -0.4444  0.6703
16067TIP3    H169692   2.387   4.395  16.633  0.4749  1.4015 -2.7439
16067TIP3    H269693   2.521   4.459  16.658  1.0286 -0.4827 -0.6522
16068TIP3   OH269694   0.092   2.361  14.516  0.1350 -0.7063  0.3396
16068TIP3    H169695   0.042   2.375  14.597 -1.5201  3.4629 -1.2729
16068TIP3    H269696   0.180   2.394  14.535 -0.0890 -0.2794  0.6351
16069TIP3   OH269697   5.708   1.234   2.238 -0.3090  0.7851 -0.7323
16069TIP3    H169698   5.740   1.229   2.328  2.1349  1.0733 -1.5474
16069TIP3    H269699   5.678   1.146   2.217  2.1642 -0.1097 -0.6812
16070TIP3   OH269700   6.308   2.246  14.602  0.1476 -0.3372  0.3500
16070TIP3    H169701   6.329   2.279  14.515  1.5373  0.9935  1.1449
16070TIP3    H269702   6.393   2.226  14.642 -0.1051  2.9658  2.8252
16071TIP3   OH269703   3.504   6.001  11.035 -0.0358  0.1120  0.1808
16071TIP3    H169704   3.523   5.981  11.126 -1.2025 -0.9368  0.2104
16071TIP3    H269705   3.461   6.086  11.036  0.9866  0.6211  0.4984
16072TIP3   OH269706   6.335   0.265   4.270 -0.1260 -0.5093  0.2703
16072TIP3    H169707   6.270   0.247   4.203  0.9947 -0.2447 -0.8973
16072TIP3    H269708   6.285   0.266   4.352 -1.5946 -0.1888 -0.6173
16073TIP3   OH269709   3.402   4.844   0.912 -0.2339 -0.3572 -0.4357
16073TIP3    H169710   3.414   4.811   0.823  1.1288 -1.8179  0.2787
16073TIP3    H269711   3.328   4.794   0.947 -0.5781  0.0079 -0.6349
16074TIP3   OH269712   0.368   3.135  14.837  0.6559  0.6920  0.4042
16074TIP3    H169713   0.459   3.112  14.818  0.6802 -0.9204  2.3921
16074TIP3    H269714   0.319   3.105  14.760  1.8662  2.3368 -1.0683
16075TIP3   OH269715   2.727   4.388  13.750  0.1706 -0.1136  0.6821
16075TIP3    H169716   2.746   4.416  13.840  1.0012  0.7513  0.2431
16075TIP3    H269717   2.749   4.464  13.696 -1.8581 -0.0536 -0.1198
16076TIP3   OH269718   4.739   1.002   4.745  0.1809 -0.6437  0.4922
16076TIP3    H169719   4.797   0.970   4.676 -0.1411  1.7593 -0.9724
16076TIP3    H269720   4.683   0.928   4.767  1.0103 -1.7594 -1.0944
16077TIP3   OH269721   5.933   6.785  16.028  0.3927 -0.2009  0.1507
16077TIP3    H169722   5.989   6.754  15.957 -0.4304 -0.7813 -0.2544
16077TIP3    H269723   5.991   6.841  16.081  1.1125 -0.0670 -0.7515
16078TIP3   OH269724   2.290   3.668  14.641  0.6630 -0.1973  0.7951
16078TIP3    H169725   2.225   3.608  14.678  0.5473  0.5967  1.8919
16078TIP3    H269726   2.283   3.747  14.694  2.4730 -0.0706  0.8848
16079TIP3   OH269727   1.142   5.152  11.842  0.3529  0.0621  0.3208
16079TIP3    H169728   1.232   5.138  11.813  0.7256  0.3385  1.3266
16079TIP3    H269729   1.098   5.190  11.766  1.7942  2.5794  0.6895
16080TIP3   OH269730   5.201   6.654  12.337 -0.4711 -0.6417  0.3150
16080TIP3    H169731   5.159   6.685  12.257 -0.9238 -0.9553  0.4286
16080TIP3    H269732   5.162   6.568  12.352 -1.1737 -0.1270  1.4612
16081TIP3   OH269733   0.038   6.196  16.579 -0.7067 -0.2781  0.4092
16081TIP3    H169734   0.002   6.279  16.609 -0.3215 -0.0525  0.2564
16081TIP3    H269735   0.046   6.206  16.484  0.3870 -0.0692  0.5106
16082TIP3   OH269736   2.955   1.267  17.079 -0.2891  0.2422  0.2114
16082TIP3    H169737   2.879   1.220  17.112 -0.9569 -0.8405 -2.7259
16082TIP3    H269738   3.003   1.293  17.158 -2.9466 -0.2615  2.0678
16083TIP3   OH269739   0.244   3.911  12.831 -0.4821  0.0400 -0.3739
16083TIP3    H169740   0.282   3.823  12.827 -3.3305 -1.2386 -1.2167
16083TIP3    H269741   0.294   3.956  12.898  1.2672 -2.1332 -0.1565
16084TIP3   OH269742   6.392   4.697  12.378  0.3747  0.0412  0.1038
16084TIP3    H169743   6.300   4.698  12.407  0.4524 -0.3165  0.3630
16084TIP3    H269744   6.424   4.611  12.404  1.4785  1.0405  2.1757
16085TIP3   OH269745   5.203   5.227   6.670  0.6627 -0.5835 -0.3341
16085TIP3    H169746   5.114   5.246   6.642  0.6581  0.5164  0.4051
16085TIP3    H269747   5.196   5.207   6.764  1.1112 -1.0379 -0.3938
16086TIP3   OH269748   4.117   0.063  16.785  0.3705  0.2040 -0.4123
16086TIP3    H169749   4.065   0.089  16.860  0.5159 -1.4312  0.2738
16086TIP3    H269750   4.111  -0.033  16.783 -0.5731  0.2576 -3.1584
16087TIP3   OH269751   5.338   3.133  13.598  0.2047  0.4160 -0.1294
16087TIP3    H169752   5.283   3.149  13.522  0.9205 -0.4400 -0.8392
16087TIP3    H269753   5.277   3.118  13.670 -0.4705  0.3953 -0.7049
16088TIP3   OH269754   2.862   3.344  15.620  0.1933 -0.1698 -0.1845
16088TIP3    H169755   2.817   3.287  15.558  1.3177 -0.7272 -0.5191
16088TIP3    H269756   2.854   3.299  15.704  1.3509 -0.9977 -0.5071
16089TIP3   OH269757   3.411   0.184  12.447  0.6448 -0.1356 -0.6187
16089TIP3    H169758   3.506   0.177  12.451  0.6247  0.1210  0.7646
16089TIP3    H269759   3.391   0.267  12.491 -0.1666  0.2635 -1.7059
16090TIP3   OH269760   4.413   0.294   0.488  0.3319 -0.0539 -0.6453
16090TIP3    H169761   4.506   0.310   0.470  0.4031  0.8250  0.4326
16090TIP3    H269762   4.388   0.365   0.547 -0.2155 -2.0741  1.6132
16091TIP3   OH269763   0.167   1.791  14.313  0.5599  0.1776  0.0064
16091TIP3    H169764   0.155   1.711  14.262 -0.1082 -1.0757  2.0661
16091TIP3    H269765   0.081   1.833  14.313  0.3136 -0.2990  0.8246
16092TIP3   OH269766   3.031   5.042  10.722 -0.0259 -0.2521  0.1043
16092TIP3    H169767   3.020   4.981  10.795  0.3207 -0.8941 -0.3875
16092TIP3    H269768   3.055   5.125  10.764  1.6692 -0.9918  0.6325
16093TIP3   OH269769   5.055   2.758   0.401 -0.3554  0.1351  0.7643
16093TIP3    H169770   5.110   2.685   0.430  0.1414 -0.6510 -1.9655
16093TIP3    H269771   5.115   2.832   0.392  0.2952 -0.6362 -1.8880
16094TIP3   OH269772   2.864   0.472   1.449  0.3415 -0.4587  0.6756
16094TIP3    H169773   2.876   0.389   1.403 -1.0247 -0.0187 -0.5336
16094TIP3    H269774   2.769   0.488   1.444  0.6431  1.3759  0.5072
16095TIP3   OH269775   2.553   0.220  13.053  0.2041  0.3619  0.7698
16095TIP3    H169776   2.507   0.203  12.971  1.5859 -0.7228  0.2044
16095TIP3    H269777   2.534   0.312  13.072  0.1359  0.7222 -0.9380
16096TIP3   OH269778   6.567   1.251  11.591 -0.2967 -0.3135 -0.7073
16096TIP3    H169779   6.619   1.256  11.511  1.5699  0.0623  0.5109
16096TIP3    H269780   6.503   1.322  11.582 -0.9163 -1.0562 -2.4036
16097TIP3   OH269781   3.507   4.889   5.982 -0.3941 -0.3483 -0.2724
16097TIP3    H169782   3.550   4.948   6.043 -2.4925  1.5861 -0.6100
16097TIP3    H269783   3.577   4.858   5.924  1.1754 -0.2922  1.5571
16098TIP3   OH269784   3.292   5.289   1.739  0.1563  0.6207 -0.0043
16098TIP3    H169785   3.371   5.344   1.739 -1.3306  2.8634  1.0974
16098TIP3    H269786   3.303   5.232   1.815  0.5632  1.1866  0.3722
16099TIP3   OH269787   6.485   3.645  13.889  0.6054 -0.6523  0.3656
16099TIP3    H169788   6.512   3.600  13.969 -0.9087 -1.3272  0.5147
16099TIP3    H269789   6.498   3.738  13.908  2.5373 -0.9328  0.5169
16100TIP3   OH269790   4.398   3.929  15.958 -0.2564 -0.0219 -0.1036
16100TIP3    H169791   4.473   3.985  15.940  0.5590 -0.5122  1.6731
16100TIP3    H269792   4.395   3.924  16.054 -1.6085 -1.2867 -0.2023
16101TIP3   OH269793   6.572   3.458  12.487  0.8599 -0.0902  0.0157
16101TIP3    H169794   6.598   3.495  12.572  0.2052 -2.3045  1.2360
16101TIP3    H269795   6.543   3.369  12.508  0.3795 -0.5656 -2.5080
16102TIP3   OH269796   1.792   0.050  14.839 -0.2082 -0.2091  0.4458
16102TIP3    H169797   1.818   0.107  14.767 -1.2297  0.1900  0.3858
16102TIP3    H269798   1.832   0.089  14.917  0.5675 -0.4197  0.1534
16103TIP3   OH269799   2.082   5.019   4.508 -0.3484  0.2857 -0.3357
16103TIP3    H169800   2.171   4.989   4.493  0.2325  0.8698  1.7414
16103TIP3    H269801   2.030   4.939   4.511  0.2642 -0.1237 -0.6415
16104TIP3   OH269802   6.327   2.896  14.796 -0.5822  0.5387  0.5868
16104TIP3    H169803   6.309   2.886  14.703 -1.0160 -1.1733  0.8385
16104TIP3    H269804   6.247   2.936  14.831 -0.2658  1.5420  0.1541
16105TIP3   OH269805   0.836   0.500   3.752 -0.0760 -0.2472 -0.5427
16105TIP3    H169806   0.781   0.550   3.812  0.5371  0.2206 -0.3596
16105TIP3    H269807   0.854   0.561   3.680 -0.2080 -0.5643 -0.8454
16106TIP3   OH269808   5.338   4.966   0.521  0.5719 -0.0339  0.9003
16106TIP3    H169809   5.331   4.920   0.437  0.8083  1.6509 -0.0685
16106TIP3    H269810   5.302   4.905   0.585  1.6284 -1.8779 -0.2294
16107TIP3   OH269811   0.443   6.600   0.413 -0.4888 -0.3518  0.4599
16107TIP3    H169812   0.443   6.517   0.365  0.1595 -0.4329  0.5937
16107TIP3    H269813   0.515   6.650   0.375  1.0563 -1.0404  2.4011
16108TIP3   OH269814   1.713   1.455   0.677 -0.0493 -0.1511  0.1640
16108TIP3    H169815   1.650   1.494   0.737  0.3939 -0.0750  0.5802
16108TIP3    H269816   1.776   1.525   0.659 -0.1307 -0.2011 -0.3167
16109TIP3   OH269817   3.766   6.526   1.776 -0.4870 -0.2565  0.0466
16109TIP3    H169818   3.740   6.613   1.744 -1.0469  0.0128  1.1998
16109TIP3    H269819   3.770   6.536   1.871 -0.3656 -1.4460  0.1702
16110TIP3   OH269820   0.185   5.085  10.756 -0.0176 -0.4649  0.0328
16110TIP3    H169821   0.266   5.126  10.725  0.1990 -1.6880 -1.0451
16110TIP3    H269822   0.207   4.993  10.768 -1.0714 -0.6788  0.4018
16111TIP3   OH269823   2.148   3.216   1.007  0.1798 -0.2743  0.0747
16111TIP3    H169824   2.205   3.166   0.949  0.9526 -0.0953  0.6681
16111TIP3    H269825   2.071   3.237   0.954  1.0229  0.1632 -0.9833
16112TIP3   OH269826   5.757   2.312  11.638  0.6697  0.2961 -0.0556
16112TIP3    H169827   5.707   2.370  11.580  0.3607 -1.0650 -1.1690
16112TIP3    H269828   5.733   2.340  11.726 -1.6512  0.0050 -0.5833
16113TIP3   OH269829   4.007   4.450  12.378 -0.4057  0.1817  0.0221
16113TIP3    H169830   3.919   4.453  12.342 -0.0816 -1.4067 -0.9744
16113TIP3    H269831   4.064   4.435  12.302  0.6832  0.7590  0.7030
16114TIP3   OH269832   2.744   2.698   0.638  0.0048  0.6106  0.5185
16114TIP3    H169833   2.771   2.619   0.592 -0.7166  0.1668  0.8454
16114TIP3    H269834   2.753   2.768   0.574  1.4647  0.3975  0.4899
16115TIP3   OH269835   4.074   4.228  13.002  0.4167 -0.3484  0.1901
16115TIP3    H169836   4.061   4.186  12.917 -1.4638 -1.3804  0.9546
16115TIP3    H269837   4.012   4.184  13.060  0.0711  1.8584  1.5817
16116TIP3   OH269838   2.184   0.865   2.803 -0.1331 -0.2499  0.1488
16116TIP3    H169839   2.141   0.838   2.884 -0.2360  0.1303  0.2209
16116TIP3    H269840   2.202   0.959   2.815 -0.1901 -0.1816 -0.2863
16117TIP3   OH269841   4.115   3.285  16.189 -0.8949 -0.1401  0.8317
16117TIP3    H169842   4.072   3.264  16.272  0.5749 -1.0492  1.3973
16117TIP3    H269843   4.205   3.309  16.214  0.5409 -3.5176 -0.6872
16118TIP3   OH269844   6.793   6.160   2.795 -0.9493  0.2656  0.3499
16118TIP3    H169845   6.747   6.084   2.831  0.6925 -0.2325  1.4554
16118TIP3    H269846   6.869   6.123   2.750  0.0138  1.2663  1.1407
16119TIP3   OH269847   6.664   5.294  12.348  0.6590  0.4736 -0.3230
16119TIP3    H169848   6.693   5.230  12.283 -1.3359 -0.3635 -0.4198
16119TIP3    H269849   6.635   5.242  12.422  0.7321  1.3474  0.3328
16120TIP3   OH269850   3.042   1.040   0.181  0.2446 -0.1937 -0.0189
16120TIP3    H169851   3.107   1.061   0.249  0.0396 -0.4495  0.2598
16120TIP3    H269852   2.958   1.043   0.227  0.0476  0.2483 -0.4050
16121TIP3   OH269853   1.164   2.997  14.534  0.3279 -0.5448  0.2538
16121TIP3    H169854   1.177   2.918  14.482 -0.8176 -0.5787  0.0133
16121TIP3    H269855   1.243   3.049  14.518 -0.4489 -0.0950 -2.3635
16122TIP3   OH269856   5.506   6.402   5.680 -0.0927  0.6052  0.0357
16122TIP3    H169857   5.549   6.395   5.594 -0.1828  0.5660 -0.0060
16122TIP3    H269858   5.574   6.436   5.738 -0.0997  0.8528 -0.1019
16123TIP3   OH269859   4.325   3.234   0.359  0.1527  0.2941  0.4529
16123TIP3    H169860   4.229   3.232   0.352  0.0767 -0.2054  1.5820
16123TIP3    H269861   4.355   3.210   0.272 -0.7648 -1.9914  0.7397
16124TIP3   OH269862   2.619   3.796  16.150 -0.0191 -0.2307  0.3271
16124TIP3    H169863   2.686   3.849  16.194 -0.8677 -0.0627  1.4431
16124TIP3    H269864   2.619   3.828  16.060  0.2052  0.9556  0.7305
16125TIP3   OH269865   6.792   0.193   6.473 -0.3057 -0.4719 -0.0796
16125TIP3    H169866   6.748   0.245   6.406  0.2051  1.0582  0.7476
16125TIP3    H269867   6.881   0.181   6.440 -0.7356 -1.8068 -0.7925
16126TIP3   OH269868   5.917   5.678   4.855 -0.0126  0.1651  0.1180
16126TIP3    H169869   5.934   5.716   4.942 -0.8968  1.8926 -0.4447
16126TIP3    H269870   5.822   5.677   4.847  0.0530 -0.4413 -0.6478
16127TIP3   OH269871   0.393   0.097  15.622 -0.0848  0.5193  0.4017
16127TIP3    H169872   0.324   0.163  15.627 -0.7466 -0.1482  0.2618
16127TIP3    H269873   0.465   0.140  15.575  0.4611  1.9535  2.5069
16128TIP3   OH269874   4.816   6.795  15.064  0.4042  0.5733 -0.4503
16128TIP3    H169875   4.768   6.858  15.117  0.0179  0.5282 -0.7466
16128TIP3    H269876   4.885   6.762  15.122 -1.2920 -1.0290  0.6737
16129TIP3   OH269877   6.533   0.988   2.477  0.0113  0.4918  0.9553
16129TIP3    H169878   6.454   1.042   2.469 -0.7504 -0.5146  1.6426
16129TIP3    H269879   6.500   0.898   2.481  1.2283  0.0351  0.7264
16130TIP3   OH269880   3.983   0.363  10.692 -0.9881  0.4629  0.0288
16130TIP3    H169881   3.948   0.443  10.731 -0.6833  0.7362 -0.2538
16130TIP3    H269882   3.907   0.320  10.652 -1.0790  0.8296 -0.1954
16131TIP3   OH269883   0.331   2.762   5.885 -0.5655 -0.1374 -0.0725
16131TIP3    H169884   0.275   2.836   5.907  0.4635  0.4180  0.7215
16131TIP3    H269885   0.418   2.788   5.915 -0.6937 -2.7817  2.7844
16132TIP3   OH269886   5.835   0.590  17.257  0.4328 -0.4517  0.0426
16132TIP3    H169887   5.913   0.623  17.212  0.8196 -0.4318  0.7249
16132TIP3    H269888   5.768   0.587  17.188  0.9250 -0.1004 -0.4654
16133TIP3   OH269889   1.849   0.414   4.542 -0.1991  0.4584 -0.2316
16133TIP3    H169890   1.765   0.384   4.508  0.1319 -0.3344 -0.3386
16133TIP3    H269891   1.884   0.339   4.590  0.8605  0.5072 -0.9265
16134TIP3   OH269892   5.847   6.198  12.523 -0.0903  0.0219  0.0175
16134TIP3    H169893   5.853   6.246  12.440 -1.9966  0.8166  0.2964
16134TIP3    H269894   5.761   6.222  12.558  0.7735 -0.1156  2.3428
16135TIP3   OH269895   6.149   5.488  17.285 -0.3214 -0.4318  0.1249
16135TIP3    H169896   6.134   5.454  17.373 -1.6803  0.0938  0.1064
16135TIP3    H269897   6.137   5.582  17.293 -0.1059 -0.3423 -0.5551
16136TIP3   OH269898   2.543   2.228  10.606  0.1242 -0.0539 -0.0204
16136TIP3    H169899   2.513   2.142  10.576 -2.4900  0.7785  0.1201
16136TIP3    H269900   2.514   2.234  10.697 -1.2944  1.6846 -0.5638
16137TIP3   OH269901   0.671   2.741   4.409  0.0933  0.1269 -0.6282
16137TIP3    H169902   0.624   2.768   4.330  0.4236 -1.0189 -1.2209
16137TIP3    H269903   0.605   2.743   4.478 -0.8397 -1.4084 -1.4406
16138TIP3   OH269904   4.704   2.031   4.764 -0.1159  0.3926 -0.2387
16138TIP3    H169905   4.694   1.981   4.845  0.7638 -0.9741 -0.9708
16138TIP3    H269906   4.615   2.053   4.738 -0.4556 -0.0085  0.5725
16139TIP3   OH269907   6.375   3.648   4.846  0.1073 -0.1456 -0.1513
16139TIP3    H169908   6.341   3.738   4.846 -0.8212 -0.4697 -1.6638
16139TIP3    H269909   6.314   3.600   4.789  1.2623 -1.4699 -0.2820
16140TIP3   OH269910   6.555   5.447  13.529  0.5282  0.2739  0.2084
16140TIP3    H169911   6.524   5.535  13.550 -0.7620 -0.2510  0.5346
16140TIP3    H269912   6.480   5.404  13.488  1.0221 -0.8038  0.4121
16141TIP3   OH269913   0.276   5.157  10.471  0.5827 -0.0984 -0.1283
16141TIP3    H169914   0.284   5.063  10.454 -1.0546 -0.4573  0.9847
16141TIP3    H269915   0.348   5.176  10.532  0.2512 -0.8670  0.5189
16142TIP3   OH269916   4.242   1.834   0.201 -0.8014 -0.5849  0.3618
16142TIP3    H169917   4.336   1.842   0.185 -0.7252 -0.3534  0.9203
16142TIP3    H269918   4.210   1.925   0.205 -1.5562 -0.6314 -2.7191
16143TIP3   OH269919   5.262   1.978  13.987 -0.2546  0.0561 -0.2359
16143TIP3    H169920   5.276   2.003  13.895 -1.1801  0.6577 -0.2123
16143TIP3    H269921   5.340   1.926  14.009  0.4575  0.7526 -1.0538
16144TIP3   OH269922   3.643   0.081  14.157 -0.5641  0.1141 -0.0959
16144TIP3    H169923   3.699   0.152  14.125  0.7211 -0.3289  1.1006
16144TIP3    H269924   3.632   0.100  14.250 -0.0895 -1.3036  0.2725
16145TIP3   OH269925   5.725   5.827  13.658 -0.1457  0.2056  0.5657
16145TIP3    H169926   5.780   5.826  13.579 -1.4129 -2.3801 -0.3478
16145TIP3    H269927   5.638   5.852  13.627  0.1003  2.6469  1.7390
16146TIP3   OH269928   2.978   3.053   1.808  0.4176 -0.0220  0.3555
16146TIP3    H169929   2.919   2.997   1.759  2.1979 -2.6448  1.1153
16146TIP3    H269930   2.953   3.142   1.783 -0.7500 -1.1920 -2.9008
16147TIP3   OH269931   4.224   2.867   5.495  0.5274 -0.8301  0.4137
16147TIP3    H169932   4.142   2.821   5.477 -0.6944  1.3038  0.4271
16147TIP3    H269933   4.198   2.957   5.513  3.0113  0.1986 -0.9308
16148TIP3   OH269934   0.458   5.295  17.058 -0.1269 -0.2405 -0.2504
16148TIP3    H169935   0.368   5.325  17.065 -0.1781 -0.1364 -1.3814
16148TIP3    H269936   0.461   5.214  17.108 -0.8461 -0.2508 -0.2290
16149TIP3   OH269937   0.521   2.884  11.287  0.0321  0.1027 -0.0241
16149TIP3    H169938   0.456   2.906  11.220 -0.2080  2.1441  0.8538
16149TIP3    H269939   0.552   2.968  11.320  0.5094 -0.8491  2.0717
16150TIP3   OH269940   0.066   3.524  12.200  0.1956  0.2375 -0.0183
16150TIP3    H169941  -0.021   3.560  12.185  0.6306  1.7412  0.9400
16150TIP3    H269942   0.117   3.551  12.124 -0.6122 -2.2506 -1.5207
16151TIP3   OH269943   4.941   4.570   0.934  0.8465  0.3078 -0.5694
16151TIP3    H169944   4.984   4.585   0.849 -1.7956 -0.7122 -2.1361
16151TIP3    H269945   4.962   4.478   0.955 -0.1757 -0.0652 -1.1365
16152TIP3   OH269946   3.536   3.226  14.300 -0.1167 -0.6350  0.1075
16152TIP3    H169947   3.575   3.302  14.342 -0.7387 -1.9028  3.0983
16152TIP3    H269948   3.606   3.161  14.297 -0.1253 -0.6144 -0.6914
16153TIP3   OH269949   6.219   1.694  11.346  0.0455  0.1993 -0.2128
16153TIP3    H169950   6.228   1.788  11.337  0.4114  0.1986  0.1446
16153TIP3    H269951   6.182   1.681  11.433 -0.8784  0.0572 -0.6144
16154TIP3   OH269952   5.486   6.458  11.860 -0.7560  0.8309  0.2027
16154TIP3    H169953   5.486   6.473  11.954 -0.5771 -0.5774  0.4362
16154TIP3    H269954   5.418   6.392  11.846  0.5266 -0.3831 -0.4164
16155TIP3   OH269955   6.085   1.731  13.599  0.8042  0.2668  0.1498
16155TIP3    H169956   5.994   1.761  13.602  0.3266 -1.0840 -0.4811
16155TIP3    H269957   6.086   1.664  13.532  1.6787 -1.7244  2.1017
16156TIP3   OH269958   0.589   0.215  16.018  0.5476  0.0076  0.2180
16156TIP3    H169959   0.524   0.159  16.061  1.8830 -1.8524 -0.0848
16156TIP3    H269960   0.543   0.296  15.999 -1.1673 -0.6076  1.6277
16157TIP3   OH269961   0.391   2.329  11.656  0.2502 -0.0925 -0.0485
16157TIP3    H169962   0.478   2.358  11.684  0.0343  0.7027 -0.1966
16157TIP3    H269963   0.354   2.404  11.610 -0.2550 -0.6617 -0.5783
16158TIP3   OH269964   0.346   2.061  11.139 -0.0221  0.0016 -0.4622
16158TIP3    H169965   0.374   1.990  11.198 -2.8575  0.0007  0.9753
16158TIP3    H269966   0.363   2.028  11.051 -0.0145 -1.9301  0.2395
16159TIP3   OH269967   0.732   1.462   5.213  0.0463  0.0618  0.1754
16159TIP3    H169968   0.689   1.544   5.239  2.6469  1.7113 -0.5852
16159TIP3    H269969   0.660   1.407   5.182 -1.7368  2.1301  0.4724
16160TIP3   OH269970   5.391   1.521  14.521  0.0542  0.6416 -0.4139
16160TIP3    H169971   5.464   1.568  14.479 -0.3809  1.3412 -0.3887
16160TIP3    H269972   5.426   1.492  14.605  1.7038 -2.7839 -2.1491
16161TIP3   OH269973   0.676   2.068  16.697 -0.3980  0.3523  0.7275
16161TIP3    H169974   0.730   2.146  16.698 -0.2173  0.2632 -0.5597
16161TIP3    H269975   0.667   2.047  16.604  0.7843 -1.9917  1.1049
16162TIP3   OH269976   0.828   4.582   4.881 -0.3962 -0.0697  0.1357
16162TIP3    H169977   0.853   4.498   4.919  0.0489 -0.0364 -0.0733
16162TIP3    H269978   0.740   4.568   4.848 -0.2590 -0.5080 -0.0521
16163TIP3   OH269979   2.232   6.428   3.258  0.6499  0.3997  0.0336
16163TIP3    H169980   2.282   6.506   3.283  2.0587 -0.3599 -0.3466
16163TIP3    H269981   2.173   6.458   3.189  0.8149  1.2466  0.2602
16164TIP3   OH269982   0.566   2.918  16.155  0.2429 -0.2732 -0.4176
16164TIP3    H169983   0.544   2.839  16.205  1.1414 -0.1894  0.1170
16164TIP3    H269984   0.483   2.966  16.149 -0.1741 -0.9555 -0.2173
16165TIP3   OH269985   0.986   4.427  10.679  0.1266  0.2610 -1.0753
16165TIP3    H169986   1.015   4.484  10.750  0.6689 -1.1403 -0.1304
16165TIP3    H269987   0.986   4.339  10.718 -3.7682 -0.0161 -1.5283
16166TIP3   OH269988   2.901   0.552   0.844 -0.3697 -0.3501  0.2169
16166TIP3    H169989   2.840   0.600   0.788  1.4501  0.9115 -0.7225
16166TIP3    H269990   2.933   0.480   0.790 -1.0080 -0.9991  0.7019
16167TIP3   OH269991   5.177   1.383   2.998 -0.1652  0.4494 -0.6307
16167TIP3    H169992   5.179   1.288   2.993  3.1000  0.5271 -1.6244
16167TIP3    H269993   5.133   1.402   3.081 -0.5284 -1.9103 -0.2489
16168TIP3   OH269994   5.424   1.795   4.045  0.0065  0.0008  0.1152
16168TIP3    H169995   5.518   1.790   4.028 -0.0782  1.0116 -0.7556
16168TIP3    H269996   5.411   1.881   4.086 -0.7228  0.5288 -1.1746
16169TIP3   OH269997   1.339   0.094  12.161  0.1307 -0.1497 -0.1049
16169TIP3    H169998   1.419   0.109  12.112 -0.9112  0.8329 -1.5341
16169TIP3    H269999   1.326   0.174  12.212  0.0130 -0.2751  0.0659
16170TIP3   OH270000   5.403   1.288  11.982 -0.0464  0.1734 -0.7388
16170TIP3    H170001   5.367   1.366  11.941  0.7738 -0.2271 -2.2658
16170TIP3    H270002   5.396   1.220  11.915  0.2277 -0.8015  0.2003
16171TIP3   OH270003   0.868   4.064   1.051  0.2521  0.4667 -0.3230
16171TIP3    H170004   0.781   4.047   1.088  0.7448 -1.0062  0.2023
16171TIP3    H270005   0.863   4.154   1.019 -0.6351  1.3113  2.0587
16172TIP3   OH270006   0.498   4.010  16.288 -1.0790 -0.2607 -0.1751
16172TIP3    H170007   0.420   4.049  16.327  0.0071 -0.6071  2.4704
16172TIP3    H270008   0.483   3.915  16.293 -0.4331 -0.3338  0.5149
16173TIP3   OH270009   2.450   2.044   0.626 -0.2645 -0.0722  0.2339
16173TIP3    H170010   2.450   2.048   0.721 -1.6257  0.8563  0.1983
16173TIP3    H270011   2.362   2.071   0.600  0.9742  2.6117 -1.4029
16174TIP3   OH270012   2.208   4.547   4.163  0.1673 -0.3365 -0.5214
16174TIP3    H170013   2.244   4.574   4.078 -0.3046  0.2833 -0.5315
16174TIP3    H270014   2.201   4.452   4.157  0.8573 -0.3680 -0.8929
16175TIP3   OH270015   0.047   1.040   1.624  0.0162 -0.8687  0.1654
16175TIP3    H170016   0.112   1.022   1.692  0.5499 -0.9232 -0.3603
16175TIP3    H270017  -0.034   1.001   1.657  0.1467 -0.4300  1.0133
16176TIP3   OH270018   3.775   3.465   1.804  1.0136 -0.2615  0.4716
16176TIP3    H170019   3.758   3.558   1.793 -1.3818 -0.6301  0.7236
16176TIP3    H270020   3.806   3.456   1.894  1.3373  0.2814  0.4175
16177TIP3   OH270021   6.445   3.942  13.999 -0.1700 -0.1162 -0.0714
16177TIP3    H170022   6.529   3.952  13.954  0.0752 -2.9227 -0.3226
16177TIP3    H270023   6.413   4.031  14.009  2.7873  1.0091 -0.0447
16178TIP3   OH270024   2.910   6.149  10.245  0.3360 -0.5044  0.2687
16178TIP3    H170025   2.888   6.072  10.192  0.8484 -0.4109 -0.0891
16178TIP3    H270026   2.903   6.119  10.335 -2.1654 -0.2159  0.1939
16179TIP3   OH270027   1.801   0.218  14.569  0.6225  0.4617  0.3683
16179TIP3    H170028   1.758   0.134  14.559  1.2571 -0.1470  2.5277
16179TIP3    H270029   1.734   0.276  14.606  0.3597  0.7569 -0.5535
16180TIP3   OH270030   2.728   2.660   2.934  0.5828  0.4436  0.1305
16180TIP3    H170031   2.769   2.592   2.879  0.5086  1.0444 -0.6841
16180TIP3    H270032   2.657   2.694   2.880 -0.9312 -0.5151  1.5106
16181TIP3   OH270033   6.140   6.238   5.595 -0.0143 -0.2351  0.0058
16181TIP3    H170034   6.205   6.194   5.649  0.8132 -0.5127 -1.2012
16181TIP3    H270035   6.146   6.330   5.620 -0.6039 -0.5507  1.3621
16182TIP3   OH270036   4.326   5.969  14.347  0.4245 -0.4854 -0.2920
16182TIP3    H170037   4.296   5.898  14.291 -2.2744  0.0485  0.3854
16182TIP3    H270038   4.262   6.039  14.333  1.9963  1.1464  0.4232
16183TIP3   OH270039   3.851   3.693   4.516 -0.1087 -0.4594  0.8200
16183TIP3    H170040   3.845   3.649   4.432  1.6715 -1.7469  1.3319
16183TIP3    H270041   3.799   3.638   4.575  0.8794 -1.0710  1.1332
16184TIP3   OH270042   6.440   0.524  17.120  0.0996  0.3778 -0.7010
16184TIP3    H170043   6.436   0.618  17.104  1.7089  0.1469 -2.7148
16184TIP3    H270044   6.351   0.493  17.103 -0.9380  1.8065  2.0063
16185TIP3   OH270045   0.692   1.573   4.182  0.2251 -0.4631 -0.2223
16185TIP3    H170046   0.773   1.521   4.188  0.2458 -0.4379 -0.2798
16185TIP3    H270047   0.689   1.622   4.264  0.8783  0.4228 -0.7212
16186TIP3   OH270048   0.367   1.956   4.596  0.1310 -0.0487 -0.0359
16186TIP3    H170049   0.296   2.020   4.594 -0.3662 -0.6227 -0.3998
16186TIP3    H270050   0.424   1.987   4.667 -0.1255  0.7792 -0.1844
16187TIP3   OH270051   1.124   1.763   1.551 -0.3816  0.1158  0.0657
16187TIP3    H170052   1.124   1.668   1.558 -0.4273  0.2405  1.9454
16187TIP3    H270053   1.214   1.789   1.571 -0.2779  0.4646 -0.7925
16188TIP3   OH270054   3.648   2.854  11.816 -0.9170 -0.0157 -0.4308
16188TIP3    H170055   3.659   2.762  11.842 -1.8912  0.0153  0.1260
16188TIP3    H270056   3.659   2.903  11.897 -1.2087  0.2974 -0.5812
16189TIP3   OH270057   0.050   0.999  13.384 -0.2591 -0.2234  0.0130
16189TIP3    H170058   0.125   0.980  13.441 -0.8226 -0.7965  0.5749
16189TIP3    H270059   0.089   1.013  13.298  0.6659  1.3140  0.6533
16190TIP3   OH270060   2.056   4.790   2.029  0.5828  0.0740 -0.3707
16190TIP3    H170061   1.992   4.855   1.998 -3.3434 -1.4137  3.9022
16190TIP3    H270062   2.049   4.718   1.967 -0.6598  0.6656 -0.9409
16191TIP3   OH270063   2.769   2.925   1.087 -0.3634 -0.0207 -0.2782
16191TIP3    H170064   2.700   2.973   1.040  1.1379  1.9940 -0.4884
16191TIP3    H270065   2.738   2.922   1.178  0.5520  3.4179  0.2122
16192TIP3   OH270066   4.617   4.087   0.785  0.2658  0.3420  0.1162
16192TIP3    H170067   4.690   4.100   0.846  2.8076 -0.2490 -2.6654
16192TIP3    H270068   4.631   4.153   0.717 -1.8548  0.2504 -0.4333
16193TIP3   OH270069   4.870   0.132   4.733 -0.1746 -0.3182 -0.0460
16193TIP3    H170070   4.922   0.213   4.733  2.3594 -1.8795  0.4716
16193TIP3    H270071   4.902   0.084   4.656 -0.9348 -1.2637  0.2222
16194TIP3   OH270072   2.862   0.520   2.051 -0.3058  0.0309 -0.3391
16194TIP3    H170073   2.910   0.447   2.090 -0.9464  0.2484  0.8830
16194TIP3    H270074   2.829   0.570   2.125  3.2338  3.7060 -1.0547
16195TIP3   OH270075   2.502   2.952   0.791 -0.2292  0.0295 -0.3578
16195TIP3    H170076   2.590   2.973   0.762 -0.0602 -1.9612 -1.4209
16195TIP3    H270077   2.480   2.871   0.744 -1.8104 -0.6513  1.4785
16196TIP3   OH270078   4.644   4.433  12.895 -0.3209 -0.6597 -0.1109
16196TIP3    H170079   4.655   4.492  12.821  0.4535 -2.0283 -1.1098
16196TIP3    H270080   4.618   4.349  12.856 -1.5110 -0.9687  1.2872
16197TIP3   OH270081   6.623   1.367   6.507  0.4611  0.7499 -0.2537
16197TIP3    H170082   6.692   1.330   6.563  0.2030 -1.7435 -1.5137
16197TIP3    H270083   6.544   1.319   6.532 -0.3480  1.9776 -0.4307
16198TIP3   OH270084   0.853   5.663   4.872 -0.7339  0.2262 -0.1101
16198TIP3    H170085   0.929   5.613   4.842  0.3482  0.3594  2.3488
16198TIP3    H270086   0.785   5.645   4.806  0.4969 -2.2188 -0.7642
16199TIP3   OH270087   1.565   3.865   2.704 -0.0055  0.3452  0.3293
16199TIP3    H170088   1.654   3.869   2.670 -0.0913  0.6348  0.1342
16199TIP3    H270089   1.510   3.895   2.631 -0.0395  3.0104  1.3739
16200TIP3   OH270090   5.211   0.787  14.889 -0.0420 -0.1308 -0.0469
16200TIP3    H170091   5.233   0.846  14.961  0.2332 -0.4967  0.1702
16200TIP3    H270092   5.204   0.701  14.930 -0.3163 -0.2716 -0.3850
16201TIP3   OH270093   3.287   5.927   0.672 -0.4484 -0.0711 -0.4356
16201TIP3    H170094   3.198   5.951   0.647  0.1014  0.7156 -1.6537
16201TIP3    H270095   3.341   5.954   0.599  0.5654 -2.4532 -0.6096
16202TIP3   OH270096   5.432   0.323   1.445 -0.0454 -0.0230 -0.6206
16202TIP3    H170097   5.498   0.327   1.375  0.6440 -0.8752 -0.0266
16202TIP3    H270098   5.369   0.258   1.415 -0.3516  0.4248 -0.9568
16203TIP3   OH270099   1.553   4.927  14.250 -0.1587  0.4099 -0.2377
16203TIP3    H170100   1.458   4.920  14.243 -0.9204  2.1794  5.6040
16203TIP3    H270101   1.573   5.013  14.213 -1.1395  0.8945  0.3218
16204TIP3   OH270102   5.708   4.827  14.618  0.0584 -0.1087 -0.0179
16204TIP3    H170103   5.712   4.845  14.712  1.0749  0.6422 -0.1959
16204TIP3    H270104   5.795   4.852  14.585 -0.6081  0.5380 -1.3109
16205TIP3   OH270105   2.792   1.450  13.657  0.0689 -0.7361  0.3731
16205TIP3    H170106   2.710   1.449  13.706  0.4382  0.3141  1.0538
16205TIP3    H270107   2.860   1.446  13.725  0.5912  0.4440 -0.0635
16206TIP3   OH270108   1.869   5.371  12.785 -0.2546 -0.3702 -0.4947
16206TIP3    H170109   1.808   5.309  12.745  0.5174 -0.6796 -1.2162
16206TIP3    H270110   1.914   5.320  12.852 -0.6092 -0.2152 -0.1414
16207TIP3   OH270111   5.537   6.394   0.375 -0.2278  0.1760  0.6145
16207TIP3    H170112   5.580   6.374   0.458  0.4279  0.3978  0.3350
16207TIP3    H270113   5.556   6.318   0.320 -0.1327  0.3054  0.4680
16208TIP3   OH270114   4.613   2.193  16.662  0.6755 -0.3819  0.5618
16208TIP3    H170115   4.560   2.223  16.589 -0.2187 -0.3947  1.1941
16208TIP3    H270116   4.607   2.263  16.727  0.1738 -1.0595  1.2588
16209TIP3   OH270117   5.370   1.661  16.326 -0.6486 -0.3054 -0.2347
16209TIP3    H170118   5.322   1.590  16.368  1.0948 -1.9404 -0.9258
16209TIP3    H270119   5.356   1.647  16.232  2.2190 -1.6220 -0.5197
16210TIP3   OH270120   1.780   5.264   5.968  0.0076  0.4767 -0.0842
16210TIP3    H170121   1.732   5.323   6.027 -0.4011  0.9854 -0.9125
16210TIP3    H270122   1.870   5.295   5.971 -0.0865  0.7456 -0.0225
16211TIP3   OH270123   0.561   0.769  16.084 -0.2664  0.7901 -0.3566
16211TIP3    H170124   0.631   0.815  16.129  1.2791 -0.6817 -1.2003
16211TIP3    H270125   0.506   0.838  16.047  0.7193  1.9535  0.3532
16212TIP3   OH270126   3.766   0.495  16.257  0.0622  0.0623  0.3659
16212TIP3    H170127   3.811   0.486  16.173 -1.6428 -1.0166 -0.4572
16212TIP3    H270128   3.686   0.542  16.236 -1.6044 -2.4418  0.9116
16213TIP3   OH270129   3.055   5.621   0.388 -0.0214 -0.0099  0.2071
16213TIP3    H170130   3.003   5.584   0.316  0.5311  0.1976 -0.3060
16213TIP3    H270131   3.132   5.564   0.394  0.1775  0.2654  0.2997
16214TIP3   OH270132   5.984   5.423   4.317 -0.3790 -0.6109  0.3768
16214TIP3    H170133   5.898   5.421   4.274 -0.8715 -1.1043  1.3755
16214TIP3    H270134   5.982   5.502   4.371 -0.1155 -0.4989  0.2221
16215TIP3   OH270135   1.905   0.821   3.009 -0.7861 -0.2698  0.0018
16215TIP3    H170136   1.897   0.898   2.953 -1.0606  0.0329  0.4564
16215TIP3    H270137   1.816   0.804   3.039 -0.8650 -1.2995 -0.8052
16216TIP3   OH270138   5.662   6.674   1.980  0.2595 -0.3718  0.2067
16216TIP3    H170139   5.579   6.637   2.008 -0.4261  0.7074 -0.3921
16216TIP3    H270140   5.641   6.730   1.906  1.9160 -2.3369 -1.8288
16217TIP3   OH270141   6.695   6.429  13.922 -0.1526 -0.0465  0.4756
16217TIP3    H170142   6.690   6.388  14.008 -0.6264  1.5957  1.2489
16217TIP3    H270143   6.754   6.503  13.934  0.1783 -0.1042 -0.7373
16218TIP3   OH270144   4.132   4.142  16.529  0.0819  0.6678 -0.5499
16218TIP3    H170145   4.115   4.230  16.494 -1.7571  0.0833 -1.1888
16218TIP3    H270146   4.061   4.088  16.493 -1.0564 -0.2695  2.9746
16219TIP3   OH270147   0.381   4.618  11.225 -0.4267 -0.2476  0.1604
16219TIP3    H170148   0.427   4.701  11.235  0.6154 -0.6622 -1.0368
16219TIP3    H270149   0.408   4.586  11.139 -2.3399 -0.8859 -0.2297
16220TIP3   OH270150   0.172   4.504   4.358  0.0335 -0.0362 -0.4420
16220TIP3    H170151   0.088   4.534   4.392  0.7174 -1.8085  2.9975
16220TIP3    H270152   0.226   4.583   4.352 -0.8503  0.6372  0.3788
16221TIP3   OH270153   5.456   1.046  14.196  0.5493  0.2566  0.4356
16221TIP3    H170154   5.418   1.011  14.277 -0.4763 -1.3293 -0.7091
16221TIP3    H270155   5.399   1.119  14.172  1.1275  1.0341  1.3701
16222TIP3   OH270156   2.497   0.784   4.507  0.5839 -0.0643  0.4497
16222TIP3    H170157   2.425   0.807   4.450  0.6526  0.3502  0.5293
16222TIP3    H270158   2.456   0.734   4.578  0.1936  1.1518  1.1077
16223TIP3   OH270159   1.119   3.530   0.952 -0.3634  0.1467 -0.1634
16223TIP3    H170160   1.043   3.570   0.992 -0.6427  0.6821 -1.2209
16223TIP3    H270161   1.092   3.509   0.863  0.9346  0.9973 -0.7847
16224TIP3   OH270162   2.121   5.002  12.818  0.5021 -0.4382  0.6940
16224TIP3    H170163   2.086   4.914  12.803 -0.2849  0.0608 -0.4613
16224TIP3    H270164   2.190   4.990  12.883 -0.9767 -1.6306  2.0769
16225TIP3   OH270165   4.644   4.322   0.636 -0.2280  0.5304 -0.2323
16225TIP3    H170166   4.694   4.381   0.693  0.3491  0.2621 -0.4709
16225TIP3    H270167   4.595   4.381   0.579  0.4225  0.7802 -0.5348
16226TIP3   OH270168   1.115   6.815  11.343 -0.5297  0.0123  0.2258
16226TIP3    H170169   1.061   6.737  11.331  3.5573 -3.0777  0.8048
16226TIP3    H270170   1.145   6.837  11.255  0.1968 -0.5224  0.3344
16227TIP3   OH270171   5.250   3.777   5.677 -0.0370  1.0247  0.4969
16227TIP3    H170172   5.225   3.760   5.768 -1.6851  2.7032  0.3940
16227TIP3    H270173   5.246   3.692   5.634 -0.9387  0.4918  1.6157
16228TIP3   OH270174   5.167   1.876  13.144  0.0873  0.0450  0.8162
16228TIP3    H170175   5.214   1.861  13.226  1.5893  0.9593  0.1316
16228TIP3    H270176   5.232   1.914  13.085 -1.6701  2.0184  0.0775
16229TIP3   OH270177   0.490   1.371  15.242  0.6463 -0.3886  0.0301
16229TIP3    H170178   0.396   1.356  15.234  0.5973  0.5108 -1.1874
16229TIP3    H270179   0.531   1.296  15.199  0.5217 -1.2043  1.2814
16230TIP3   OH270180   3.205   6.491  14.686  0.2337 -0.4796 -0.0522
16230TIP3    H170181   3.272   6.525  14.745 -0.3552 -1.0303  0.9722
16230TIP3    H270182   3.202   6.552  14.613  3.5907 -1.7925 -1.3639
16231TIP3   OH270183   3.850   6.094  16.860  0.4588 -0.3192 -0.1751
16231TIP3    H170184   3.903   6.030  16.906  0.3509 -0.0677  0.3015
16231TIP3    H270185   3.760   6.073  16.886  0.3040 -0.8844 -1.1545
16232TIP3   OH270186   1.578   2.467   2.940 -0.3451  0.2321 -0.1585
16232TIP3    H170187   1.532   2.420   3.010 -1.4537 -0.0827 -1.0822
16232TIP3    H270188   1.531   2.551   2.933 -0.1835  0.2985 -0.4600
16233TIP3   OH270189   4.365   5.512  11.007  0.3205 -0.2823  0.4746
16233TIP3    H170190   4.453   5.549  11.008 -0.1240  0.8139  0.3300
16233TIP3    H270191   4.378   5.417  10.999  1.4876 -0.1658  0.9591
16234TIP3   OH270192   1.469   2.114  14.134  0.0905 -0.0023  0.2151
16234TIP3    H170193   1.472   2.209  14.148  0.6927 -0.3816  2.8710
16234TIP3    H270194   1.414   2.080  14.204 -0.3757 -1.6096 -0.8871
16235TIP3   OH270195   5.553   5.147  12.150  0.6291 -0.1220 -0.7250
16235TIP3    H170196   5.493   5.159  12.223  1.9255  3.2645 -0.1424
16235TIP3    H270197   5.562   5.052  12.142 -2.0616 -0.6217  1.3729
16236TIP3   OH270198   3.438   5.053  11.476 -0.3838 -0.2516 -0.0196
16236TIP3    H170199   3.404   4.968  11.447  0.6387 -0.2625 -1.2381
16236TIP3    H270200   3.484   5.087  11.400 -0.8186  1.4214  0.4623
16237TIP3   OH270201   4.095   0.799  11.196  0.4369  0.8018 -1.0676
16237TIP3    H170202   4.071   0.886  11.164 -1.2187  0.0610 -1.9159
16237TIP3    H270203   4.021   0.744  11.173  1.3884 -0.8077 -0.3731
16238TIP3   OH270204   0.215   4.132  13.587 -0.3261  0.0190 -0.4273
16238TIP3    H170205   0.126   4.113  13.617 -0.9478  0.2091 -2.1316
16238TIP3    H270206   0.236   4.061  13.526 -0.3075  1.4101 -2.0480
16239TIP3   OH270207   0.659   5.675   1.232  0.2747  0.8016 -0.3401
16239TIP3    H170208   0.575   5.636   1.209  2.3026 -4.5271  0.4755
16239TIP3    H270209   0.711   5.670   1.152  0.9356  0.7640  0.0840
16240TIP3   OH270210   2.108   4.687  14.435  0.3540 -0.1900 -0.1486
16240TIP3    H170211   2.044   4.635  14.484 -0.2272  1.1185  0.5098
16240TIP3    H270212   2.112   4.771  14.482 -0.9245  1.4628 -2.8553
16241TIP3   OH270213   2.473   4.809  17.219  0.3133 -0.2903 -0.1376
16241TIP3    H170214   2.506   4.798  17.308 -1.3905 -1.6463  0.3588
16241TIP3    H270215   2.383   4.777  17.223 -0.4307  1.4905 -1.8983
16242TIP3   OH270216   0.077   0.415   0.149 -0.8268  0.1532  0.5466
16242TIP3    H170217   0.033   0.336   0.178  0.6447  0.0237  2.4992
16242TIP3    H270218   0.112   0.393   0.062  0.3384 -1.6460  1.4423
16243TIP3   OH270219   5.419   0.538  10.732 -0.2400  0.9086  0.0856
16243TIP3    H170220   5.461   0.454  10.751  2.0292  2.3469  1.5628
16243TIP3    H270221   5.339   0.514  10.684 -0.2385 -2.1544  1.4976
16244TIP3   OH270222   2.037   1.870   0.516 -0.1715 -0.2642  0.3108
16244TIP3    H170223   2.029   1.925   0.594  1.0109  0.6280 -0.1869
16244TIP3    H270224   2.054   1.931   0.444  1.1354 -1.2591 -0.2546
16245TIP3   OH270225   3.912   1.953  16.677  0.2969  0.2966  0.8228
16245TIP3    H170226   3.971   2.019  16.713  1.2792 -1.4110  2.4554
16245TIP3    H270227   3.857   1.928  16.752  0.2012 -1.0020  0.3287
16246TIP3   OH270228   1.756   6.223   6.502  0.3057 -0.0475  0.1726
16246TIP3    H170229   1.777   6.314   6.482 -0.3509 -0.0163 -0.4186
16246TIP3    H270230   1.798   6.173   6.432  0.5523 -0.1913  0.4216
16247TIP3   OH270231   5.580   5.772  17.076 -0.1048 -0.4799 -0.6011
16247TIP3    H170232   5.542   5.785  16.989 -0.9277  1.3116  0.0121
16247TIP3    H270233   5.675   5.771  17.061 -0.1732  1.4064 -1.3300
16248TIP3   OH270234   4.649   4.572  15.069  0.4436 -0.4192 -0.2633
16248TIP3    H170235   4.659   4.478  15.058  0.9714 -0.6315  1.9065
16248TIP3    H270236   4.713   4.596  15.136 -1.4624  1.0495  1.0960
16249TIP3   OH270237   5.260   2.010   1.685  0.1660 -0.0277 -0.2988
16249TIP3    H170238   5.347   2.044   1.706  0.5690  0.8620 -3.2058
16249TIP3    H270239   5.205   2.087   1.677 -0.3980 -0.4567 -0.5861
16250TIP3   OH270240   1.404   5.701   0.130  0.0636  0.2979 -0.2386
16250TIP3    H170241   1.383   5.617   0.171  0.1904  0.2721 -0.2265
16250TIP3    H270242   1.396   5.684   0.036  1.2990 -0.0549 -0.2831
16251TIP3   OH270243   4.908   0.394   5.268  0.0122 -0.3298  0.6005
16251TIP3    H170244   4.823   0.359   5.242  0.7718 -0.7517 -1.3693
16251TIP3    H270245   4.891   0.487   5.286 -0.8908 -0.4332  0.3026
16252TIP3   OH270246   4.153   4.986  10.522  0.0653  0.6048  0.6901
16252TIP3    H170247   4.193   5.070  10.545 -2.0565  1.1141  2.7280
16252TIP3    H270248   4.213   4.921  10.558  0.2600  1.3176  1.6908
16253TIP3   OH270249   4.568   5.508   3.020  0.2162  0.2091 -0.1123
16253TIP3    H170250   4.509   5.563   2.969  1.3589  0.6557 -0.9648
16253TIP3    H270251   4.513   5.435   3.050 -0.8585  0.8387 -0.5385
16254TIP3   OH270252   3.402   0.620   0.554  0.2992 -0.0509 -0.4175
16254TIP3    H170253   3.405   0.671   0.473  2.3629 -3.3436 -2.5410
16254TIP3    H270254   3.480   0.647   0.602 -0.2692  1.0035 -0.0653
16255TIP3   OH270255   5.069   2.187   0.517 -0.5046 -0.0199  0.3322
16255TIP3    H170256   5.061   2.249   0.589 -1.3941  0.6370 -0.3139
16255TIP3    H270257   4.980   2.156   0.502 -0.4659  0.4367 -0.9794
16256TIP3   OH270258   6.474   3.376   2.730  0.0285  0.5373  0.2321
16256TIP3    H170259   6.459   3.470   2.723 -3.0467  0.0064 -1.3311
16256TIP3    H270260   6.529   3.355   2.655  0.9324  1.1402  0.7295
16257TIP3   OH270261   0.203   1.740   0.033 -0.0499 -0.4513 -0.0255
16257TIP3    H170262   0.196   1.835   0.023  0.5028 -0.7945 -4.6782
16257TIP3    H270263   0.287   1.726   0.077 -0.1899  1.1772  0.7849
16258TIP3   OH270264   6.807   3.651   1.228  0.2608  0.0790  0.2661
16258TIP3    H170265   6.860   3.718   1.271  2.0240 -1.1582  0.0470
16258TIP3    H270266   6.857   3.627   1.150 -1.1848 -0.2844 -0.5805
16259TIP3   OH270267   5.752   6.622  14.242  0.0809  0.7215 -0.0944
16259TIP3    H170268   5.706   6.646  14.162  2.4298 -1.5679 -2.2420
16259TIP3    H270269   5.709   6.542  14.272  0.7416  0.1992 -0.5010
16260TIP3   OH270270   5.905   4.739   4.463 -0.0980  0.3347  0.6620
16260TIP3    H170271   5.968   4.747   4.391 -0.2063 -1.2049  0.3785
16260TIP3    H270272   5.955   4.697   4.533 -0.8123 -0.9860  0.4049
16261TIP3   OH270273   4.297   6.095   5.001 -0.2598 -0.4565 -0.2779
16261TIP3    H170274   4.256   6.143   5.073 -1.8551  1.3842 -2.3765
16261TIP3    H270275   4.379   6.141   4.985  1.1398 -2.1311  1.6791
16262TIP3   OH270276   1.683   3.076   1.313 -1.0268  0.0608  0.2011
16262TIP3    H170277   1.730   3.154   1.342  0.2317 -0.4349 -0.4745
16262TIP3    H270278   1.591   3.093   1.335 -0.6647  1.4447  0.6446
16263TIP3   OH270279   2.507   5.137  13.646  0.5065  0.1041 -0.2564
16263TIP3    H170280   2.430   5.171  13.692  1.1771  0.8117  0.3486
16263TIP3    H270281   2.546   5.214  13.605  0.5742 -0.3459 -1.0455
16264TIP3   OH270282   4.109   2.358  13.007  0.6828 -0.0484 -0.0755
16264TIP3    H170283   4.082   2.430  12.950 -1.2286 -0.4752  0.2224
16264TIP3    H270284   4.072   2.381  13.093 -2.5542 -2.7268 -0.6251
16265TIP3   OH270285   1.484   2.203  14.959 -0.5266 -0.2970  0.2829
16265TIP3    H170286   1.539   2.263  15.009  0.3046 -0.1518 -0.8029
16265TIP3    H270287   1.403   2.253  14.943  0.6411  1.0348 -1.7122
16266TIP3   OH270288   0.061   2.122   1.663 -0.3411 -0.5872 -0.4833
16266TIP3    H170289   0.067   2.101   1.569 -1.1881 -2.2832 -0.1701
16266TIP3    H270290   0.017   2.207   1.665 -2.6279 -1.7067 -1.5412
16267TIP3   OH270291   0.758   2.719   4.803  0.1847 -0.2337  0.2117
16267TIP3    H170292   0.753   2.793   4.744 -1.0151  1.0232  1.8457
16267TIP3    H270293   0.850   2.690   4.799  0.2314  0.1692 -1.8045
16268TIP3   OH270294   4.797   2.976  10.668  0.1736  0.1968 -0.0989
16268TIP3    H170295   4.852   3.040  10.623  0.5266 -0.4433 -0.5914
16268TIP3    H270296   4.716   2.974  10.618 -0.0832  0.7273  0.2945
16269TIP3   OH270297   4.489   1.152  13.529 -0.6825  0.4202 -0.0979
16269TIP3    H170298   4.479   1.098  13.450 -0.0301  0.1487  0.0042
16269TIP3    H270299   4.581   1.175  13.532 -0.5221 -0.2854  1.0408
16270TIP3   OH270300   1.323   3.212  16.006 -0.3687  0.5354  0.1349
16270TIP3    H170301   1.353   3.188  16.093 -0.0369 -0.4664 -0.2463
16270TIP3    H270302   1.403   3.221  15.954 -0.6667 -1.5184 -0.7269
16271TIP3   OH270303   6.138   6.722  14.758  0.1090  0.2429 -0.8626
16271TIP3    H170304   6.166   6.716  14.849  2.0290  0.8266 -1.3789
16271TIP3    H270305   6.198   6.785  14.719 -0.3307 -0.4166 -2.6616
16272TIP3   OH270306   0.161   5.855   6.045 -0.0031  0.1880  1.0818
16272TIP3    H170307   0.207   5.924   6.093  0.0169  0.4979  0.6252
16272TIP3    H270308   0.204   5.853   5.959  0.0794 -0.4838  1.1397
16273TIP3   OH270309   6.002   4.686   2.196  0.3789  0.3423  0.1424
16273TIP3    H170310   6.035   4.634   2.269 -0.7110  1.0930  1.1761
16273TIP3    H270311   6.066   4.672   2.126  1.6928  0.0074  1.3867
16274TIP3   OH270312   2.344   3.267   2.189 -1.0328 -0.1386  0.0763
16274TIP3    H170313   2.324   3.329   2.259 -0.6036 -0.6277  0.6305
16274TIP3    H270314   2.333   3.181   2.229  0.7633 -0.4191 -0.0226
16275TIP3   OH270315   4.310   0.872  10.984  0.3220 -0.4598  0.4010
16275TIP3    H170316   4.300   0.842  11.075  0.1505 -0.8783  0.2501
16275TIP3    H270317   4.274   0.800  10.932  0.5139 -0.2635 -0.0030
16276TIP3   OH270318   3.022   6.456   5.681 -0.0747  0.2462  0.1633
16276TIP3    H170319   2.980   6.399   5.745 -0.7999  0.4704 -0.1033
16276TIP3    H270320   2.955   6.471   5.614 -0.0505  1.7978  0.4691
16277TIP3   OH270321   2.012   3.620   0.783 -0.1075  0.3427 -0.4416
16277TIP3    H170322   2.029   3.533   0.819  1.5860  0.1321 -1.7313
16277TIP3    H270323   1.974   3.669   0.857  0.7078 -0.9026  0.8280
16278TIP3   OH270324   6.382   3.716  17.207 -0.2429 -0.3521  0.0412
16278TIP3    H170325   6.303   3.688  17.160 -0.6561  2.1958 -0.8752
16278TIP3    H270326   6.392   3.808  17.183 -0.0080  0.8467  4.3242
16279TIP3   OH270327   2.587   3.501  17.281  0.3405 -0.1206  0.6030
16279TIP3    H170328   2.515   3.561  17.265  2.2282  2.4081  1.3272
16279TIP3    H270329   2.549   3.429  17.331 -1.8944  0.6098 -0.0229
16280TIP3   OH270330   3.182   4.692   6.124 -0.2688  0.7603 -0.0877
16280TIP3    H170331   3.211   4.609   6.162  0.5498  0.6706 -0.9152
16280TIP3    H270332   3.096   4.707   6.164  0.3400  0.3918  1.3809
16281TIP3   OH270333   6.173   4.992   3.497 -0.1939 -0.1067 -0.5933
16281TIP3    H170334   6.147   4.914   3.449 -0.5585 -1.0099  1.0276
16281TIP3    H270335   6.103   5.055   3.480 -1.0479 -0.9109 -0.1209
16282TIP3   OH270336   0.788   3.159  15.809 -1.0394 -1.0041  0.9517
16282TIP3    H170337   0.881   3.179  15.809 -1.0708 -0.6445 -1.8747
16282TIP3    H270338   0.778   3.088  15.872  1.6085 -3.0365 -0.8441
16283TIP3   OH270339   0.100   5.072   1.089  0.2895  0.0615 -0.5915
16283TIP3    H170340   0.059   4.991   1.118 -1.2584  0.9004 -0.3842
16283TIP3    H270341   0.148   5.048   1.010 -2.1044 -0.6023 -1.8971
16284TIP3   OH270342   4.825   3.810   5.105  0.1846  0.1330  0.1552
16284TIP3    H170343   4.806   3.755   5.030 -1.3502  1.2650 -0.3208
16284TIP3    H270344   4.810   3.754   5.181  0.9324 -0.7717 -0.3586
16285TIP3   OH270345   3.052   0.336  12.833 -0.2973  0.2578  0.2521
16285TIP3    H170346   3.143   0.356  12.858 -0.2226 -0.0203  0.1963
16285TIP3    H270347   3.054   0.245  12.806 -0.3845  0.5522 -0.7574
16286TIP3   OH270348   0.201   5.321   0.816 -0.8515  0.1033 -0.6713
16286TIP3    H170349   0.109   5.313   0.839 -0.3798  0.3157  1.4552
16286TIP3    H270350   0.207   5.404   0.769 -1.6497  0.3984 -0.2641
16287TIP3   OH270351   4.367   0.762   0.561 -0.6830 -0.1173  0.1259
16287TIP3    H170352   4.420   0.754   0.640 -2.8045 -0.2750  1.5693
16287TIP3    H270353   4.361   0.857   0.546  0.0193 -0.0993 -0.0843
16288TIP3   OH270354   5.312   1.168  16.964 -0.1423 -0.1436  0.6723
16288TIP3    H170355   5.256   1.244  16.950 -1.1835 -0.5858  2.3099
16288TIP3    H270356   5.328   1.166  17.058  0.8804 -1.2480  0.4947
16289TIP3   OH270357   0.535   4.333  15.667 -0.4455 -0.2159 -0.6822
16289TIP3    H170358   0.541   4.380  15.751 -1.6113  1.4172 -1.4924
16289TIP3    H270359   0.602   4.266  15.673 -0.5634 -0.1729  1.6122
16290TIP3   OH270360   5.297   3.477   6.755  0.2691  0.2349 -0.3735
16290TIP3    H170361   5.328   3.514   6.672  0.0884 -1.2640 -1.1158
16290TIP3    H270362   5.374   3.434   6.792  0.1841  0.3449 -0.0690
16291TIP3   OH270363   4.266   2.747   4.383  0.0056  0.2478  0.2002
16291TIP3    H170364   4.245   2.769   4.473 -2.9279  0.6726 -0.5283
16291TIP3    H270365   4.279   2.832   4.340 -1.7940  0.2213 -0.4560
16292TIP3   OH270366   1.628   5.782  14.573 -0.0733 -0.3606 -0.6339
16292TIP3    H170367   1.550   5.744  14.533  0.3430 -1.6604 -0.2390
16292TIP3    H270368   1.617   5.766  14.667  0.3349  0.0798 -0.5090
16293TIP3   OH270369   0.475   3.207  16.780 -0.1327  0.3017 -0.1534
16293TIP3    H170370   0.393   3.256  16.778 -0.3106  0.0268  0.2354
16293TIP3    H270371   0.543   3.272  16.762 -0.6344  0.0636 -3.1701
16294TIP3   OH270372   4.691   2.529   2.225 -0.2692  0.4254  0.0490
16294TIP3    H170373   4.619   2.467   2.216  0.7468 -0.7370 -0.1310
16294TIP3    H270374   4.650   2.608   2.260 -1.6068 -0.2617  0.0693
16295TIP3   OH270375   5.687   4.880  15.213 -0.1164 -0.1051  0.0775
16295TIP3    H170376   5.610   4.831  15.182 -0.6875  0.0241  1.2347
16295TIP3    H270377   5.694   4.856  15.306  0.7983  0.4611  0.1595
16296TIP3   OH270378   0.377   0.264  14.771 -0.4902 -0.1011  0.2525
16296TIP3    H170379   0.410   0.335  14.716 -0.0830  0.2825  0.9774
16296TIP3    H270380   0.300   0.231  14.725 -0.3540  0.4455 -0.3702
16297TIP3   OH270381   4.085   1.206  13.939  0.3081 -0.0293  0.3345
16297TIP3    H170382   4.052   1.274  13.881  0.0097  0.0764  0.6237
16297TIP3    H270383   4.165   1.243  13.977  0.8253 -0.3309 -0.4575
16298TIP3   OH270384   1.266   0.091   4.039  0.0240  0.3442 -0.1102
16298TIP3    H170385   1.250   0.017   4.097  0.4152  0.7592  0.5370
16298TIP3    H270386   1.349   0.128   4.070  0.3021  0.4924 -1.0154
16299TIP3   OH270387   5.644   0.302   3.125 -0.5220 -0.1696 -0.4975
16299TIP3    H170388   5.732   0.269   3.108 -1.0299 -1.3255 -0.9197
16299TIP3    H270389   5.607   0.241   3.189 -0.4124  1.2900  1.0040
16300TIP3   OH270390   3.979   3.041  11.931  0.0302  0.7254  0.0537
16300TIP3    H170391   3.980   2.997  12.016 -0.5694  0.6490  0.0227
16300TIP3    H270392   3.968   2.969  11.868  2.7099  0.5133 -0.2659
16301TIP3   OH270393   1.616   4.011   2.958  0.4192 -0.7975  0.0261
16301TIP3    H170394   1.593   4.098   2.925 -1.6637 -1.6398 -0.8688
16301TIP3    H270395   1.605   3.953   2.882  2.3104 -1.7668  0.4648
16302TIP3   OH270396   4.006   0.936   4.461  0.0765 -0.0653  0.4369
16302TIP3    H170397   4.023   0.856   4.511  1.7704  0.1069  0.1322
16302TIP3    H270398   4.053   1.005   4.508 -2.8718  1.1604  1.7840
16303TIP3   OH270399   6.655   6.511  12.773 -0.0243 -0.1711  0.0774
16303TIP3    H170400   6.693   6.529  12.687 -1.0284 -0.0267 -0.3494
16303TIP3    H270401   6.646   6.415  12.775  0.5137 -0.2182  0.2467
16304TIP3   OH270402   4.589   0.900  10.936 -0.0340  0.2395  0.2596
16304TIP3    H170403   4.615   0.992  10.945  0.7636  0.2365 -1.7226
16304TIP3    H270404   4.497   0.898  10.963 -0.5562  1.9640 -1.2365
16305TIP3   OH270405   2.584   0.412   2.320 -0.2621 -0.6501  0.3460
16305TIP3    H170406   2.533   0.381   2.395 -0.0142 -0.3202  0.6531
16305TIP3    H270407   2.660   0.456   2.359  0.2270 -1.0788 -0.1054
16306TIP3   OH270408   1.885   3.616  13.089  0.5477  0.5100 -0.7171
16306TIP3    H170409   1.969   3.630  13.046  1.9334  0.4606  1.8894
16306TIP3    H270410   1.889   3.669  13.168 -0.5753 -2.0618  1.1095
16307TIP3   OH270411   5.411   2.349   3.867 -0.2227 -0.1287  0.1136
16307TIP3    H170412   5.474   2.299   3.815  0.4412 -1.5423  2.2324
16307TIP3    H270413   5.460   2.426   3.896  0.2257 -0.6811  0.8498
16308TIP3   OH270414   5.626   3.679   0.964 -0.3964 -0.7717 -0.2095
16308TIP3    H170415   5.632   3.774   0.961  0.7219 -0.8066  0.5509
16308TIP3    H270416   5.617   3.652   0.873 -0.7544  0.0571 -0.4239
16309TIP3   OH270417   2.437   5.567   3.026 -0.0574  0.4504  0.6211
16309TIP3    H170418   2.523   5.607   3.012 -0.1840  0.6892  0.5099
16309TIP3    H270419   2.413   5.530   2.942 -0.3893  1.0319  0.4559
16310TIP3   OH270420   1.187   0.535   2.888 -0.9075 -0.0062 -0.0363
16310TIP3    H170421   1.213   0.538   2.980 -0.2625  3.0048 -0.2375
16310TIP3    H270422   1.245   0.470   2.849  1.7314  1.6929  0.8943
16311TIP3   OH270423   6.220   6.682   1.858  0.0882  0.4615 -0.4319
16311TIP3    H170424   6.284   6.733   1.809  0.0701  0.4533 -0.4647
16311TIP3    H270425   6.136   6.708   1.821  0.2088 -1.4345 -2.1718
16312TIP3   OH270426   2.093   2.627   1.539  0.2193  0.0480 -0.4374
16312TIP3    H170427   2.006   2.644   1.504  0.3769  3.7932  0.7354
16312TIP3    H270428   2.077   2.604   1.631  0.4049 -0.0863 -0.4391
16313TIP3   OH270429   5.320   3.726   1.154  0.2430 -0.0735 -0.0548
16313TIP3    H170430   5.372   3.647   1.171  0.5600  0.2007  0.2492
16313TIP3    H270431   5.312   3.730   1.059  0.6725 -0.1857 -0.0971
16314TIP3   OH270432   4.427   6.427  14.015 -0.2398  0.0904  0.3797
16314TIP3    H170433   4.351   6.399  13.964  0.1617 -0.3278  0.0055
16314TIP3    H270434   4.501   6.418  13.955  0.0976  0.5554  0.7222
16315TIP3   OH270435   3.543   2.612   5.476 -0.5729 -0.2412  0.2378
16315TIP3    H170436   3.596   2.559   5.416 -1.1470  0.0759 -0.5588
16315TIP3    H270437   3.607   2.655   5.533  0.0819  0.5161 -1.0241
16316TIP3   OH270438   2.108   3.570  13.432 -0.7226 -0.1133  0.0899
16316TIP3    H170439   2.137   3.652  13.473  1.9284 -2.1867  2.5976
16316TIP3    H270440   2.172   3.553  13.364 -1.5470  0.1204 -0.7544
16317TIP3   OH270441   2.973   2.729  15.991 -0.0065  0.3637 -0.3994
16317TIP3    H170442   3.058   2.701  16.026 -0.4956  1.0141  1.3186
16317TIP3    H270443   2.908   2.683  16.044 -0.7572  1.2194 -0.5587
16318TIP3   OH270444   5.402   3.610  15.237 -0.7329 -0.3641 -0.2500
16318TIP3    H170445   5.365   3.529  15.200  1.3455 -1.0570 -0.8422
16318TIP3    H270446   5.365   3.614  15.326 -1.2484 -1.6896 -0.3919
16319TIP3   OH270447   3.131   0.966   5.594 -0.0060 -0.5876  0.3067
16319TIP3    H170448   3.106   0.885   5.639  0.7420 -0.2142  1.3971
16319TIP3    H270449   3.118   1.035   5.658 -2.3460  0.4157 -1.1757
16320TIP3   OH270450   5.260   5.977  15.354 -0.0521  0.3266 -0.1110
16320TIP3    H170451   5.206   5.988  15.432  0.8966  0.7729  0.4944
16320TIP3    H270452   5.338   6.030  15.371 -0.2520  1.1779 -1.7650
16321TIP3   OH270453   6.709   4.355   1.283  0.0627  0.0498  0.1183
16321TIP3    H170454   6.752   4.423   1.232  0.5479 -0.5404 -0.2750
16321TIP3    H270455   6.780   4.296   1.309 -0.3020 -0.1112  0.7560
16322TIP3   OH270456   4.940   0.939   1.794  0.8868  0.0062 -0.1061
16322TIP3    H170457   4.884   0.865   1.768  1.3392 -0.0701 -0.8804
16322TIP3    H270458   4.890   0.983   1.863 -0.3884  0.2639 -1.1563
16323TIP3   OH270459   3.113   3.103   4.135  0.2529  0.0676 -0.5302
16323TIP3    H170460   3.196   3.149   4.127 -0.2055  1.2607  1.0875
16323TIP3    H270461   3.131   3.032   4.197  0.4350 -0.6428 -1.3850
16324TIP3   OH270462   2.360   2.167  13.773 -0.5575  0.3094  0.0618
16324TIP3    H170463   2.407   2.120  13.705 -1.0674 -0.5520  0.2950
16324TIP3    H270464   2.418   2.162  13.849 -0.1797  0.9015 -0.1837
16325TIP3   OH270465   0.220   2.494  16.386 -0.0246  0.3095 -0.2067
16325TIP3    H170466   0.153   2.508  16.453 -0.0553  1.5767 -0.4824
16325TIP3    H270467   0.275   2.424  16.421 -1.8564 -1.2064 -0.2592
16326TIP3   OH270468   5.414   6.587  16.483 -0.1669  0.7690  0.4451
16326TIP3    H170469   5.326   6.622  16.497  0.1449  1.3025  1.1112
16326TIP3    H270470   5.446   6.566  16.571 -0.7307 -2.2138 -0.0054
16327TIP3   OH270471   0.263   1.842   2.419  0.4031 -0.4079 -0.0011
16327TIP3    H170472   0.183   1.824   2.371  0.5593 -0.7511 -0.1290
16327TIP3    H270473   0.273   1.937   2.413 -0.7399 -0.1923  1.2099
16328TIP3   OH270474   3.765   6.714   5.208  0.5642  0.6501 -0.3221
16328TIP3    H170475   3.698   6.771   5.245  0.8935  0.3276  0.7722
16328TIP3    H270476   3.842   6.728   5.263  0.8643 -0.3086 -0.4898
16329TIP3   OH270477   1.314   3.303   1.435  0.6120  0.0703 -0.2494
16329TIP3    H170478   1.372   3.269   1.366 -0.0333 -0.1842 -0.6714
16329TIP3    H270479   1.229   3.263   1.416  0.3801  0.1824  0.5676
16330TIP3   OH270480   2.807   2.400  15.973  0.2036  0.5041  0.1313
16330TIP3    H170481   2.901   2.404  15.991 -0.3458  1.6279  3.1184
16330TIP3    H270482   2.782   2.312  16.000  0.1837  0.6411  0.5671
16331TIP3   OH270483   2.463   5.430  15.880  0.2718  0.1019  0.0241
16331TIP3    H170484   2.467   5.339  15.852  0.8512 -0.4214  1.7442
16331TIP3    H270485   2.372   5.456  15.867 -0.2645 -1.2325  1.0641
16332TIP3   OH270486   4.129   3.147   5.495 -0.2792  0.1885  0.4290
16332TIP3    H170487   4.060   3.194   5.449  0.2611 -0.4413 -1.0802
16332TIP3    H270488   4.209   3.196   5.475 -0.1140  0.2278  1.1653
16333TIP3   OH270489   3.223   2.727   1.690 -0.5749 -0.7575 -0.0814
16333TIP3    H170490   3.314   2.730   1.721 -0.2957 -2.3067 -0.6816
16333TIP3    H270491   3.171   2.714   1.769 -0.2912  0.3963  0.2949
16334TIP3   OH270492   4.364   3.352  15.387  0.7548 -0.2926  0.4760
16334TIP3    H170493   4.291   3.303  15.424 -0.9489  0.2896 -1.9970
16334TIP3    H270494   4.415   3.382  15.463 -2.2992  0.4074  2.3046
16335TIP3   OH270495   6.251   6.708   5.011 -0.0916  0.0068  0.2191
16335TIP3    H170496   6.335   6.699   4.967  1.0396  1.4170  2.0333
16335TIP3    H270497   6.234   6.802   5.013 -2.2668 -0.3136 -1.1097
16336TIP3   OH270498   0.122   5.083  16.014 -0.2317 -0.0686  0.0394
16336TIP3    H170499   0.215   5.064  16.003 -0.5002 -1.2491 -0.2439
16336TIP3    H270500   0.078   5.027  15.950 -1.3225 -1.6995  2.1391
16337TIP3   OH270501   4.951   1.760   3.821 -0.3386  0.6678  0.4596
16337TIP3    H170502   4.882   1.695   3.806 -0.3001  0.7123  0.0934
16337TIP3    H270503   4.906   1.834   3.863 -0.1684 -0.0774  2.0025
16338TIP3   OH270504   2.219   3.989  15.027 -0.5429  0.2172 -0.8394
16338TIP3    H170505   2.229   3.935  15.105 -0.8740  0.1938 -0.8118
16338TIP3    H270506   2.136   4.035  15.040  0.2136  1.4987 -0.4021
16339TIP3   OH270507   3.769   1.401  15.582  0.3208  0.2729 -0.2314
16339TIP3    H170508   3.735   1.471  15.525 -1.2484  1.0154  1.5448
16339TIP3    H270509   3.693   1.375  15.634  2.0167  0.5731  2.4664
16340TIP3   OH270510   2.455   4.263  16.364  0.0182 -0.4206 -0.7846
16340TIP3    H170511   2.381   4.320  16.342 -0.0447 -0.9542 -2.0168
16340TIP3    H270512   2.480   4.290  16.452  0.4445  1.9729 -1.6004
16341TIP3   OH270513   4.887   6.080  13.596  0.3429  0.0022  0.5299
16341TIP3    H170514   4.819   6.013  13.606 -1.1397  1.5950  1.4742
16341TIP3    H270515   4.848   6.159  13.635  1.4914  1.7906 -1.8511
16342TIP3   OH270516   2.650   1.910   0.468  0.2276 -0.0942  0.3064
16342TIP3    H170517   2.645   1.843   0.537 -1.3282 -0.5959 -0.2922
16342TIP3    H270518   2.612   1.988   0.508  1.5635  0.3110  0.8262
16343TIP3   OH270519   3.354   3.012  16.007 -0.2993  0.4460  0.6695
16343TIP3    H170520   3.390   2.939  16.059  0.5535  0.6498  0.3561
16343TIP3    H270521   3.261   2.989  15.997 -0.4107  0.2310  1.9962
16344TIP3   OH270522   2.627   4.885  15.597  0.1088  0.2743 -0.0018
16344TIP3    H170523   2.607   4.971  15.635  0.6392  0.6859 -0.6484
16344TIP3    H270524   2.543   4.840  15.595  0.0935  0.1618  1.8559
16345TIP3   OH270525   3.728   3.776  13.341  0.3182 -0.5032  0.1215
16345TIP3    H170526   3.726   3.756  13.248 -0.7244 -3.0757  0.6663
16345TIP3    H270527   3.812   3.743  13.372  0.1596 -0.7191  0.3257
16346TIP3   OH270528   4.232   0.256  10.580 -0.3320  0.0184 -0.2421
16346TIP3    H170529   4.153   0.295  10.619 -0.6337 -1.1096  0.2958
16346TIP3    H270530   4.205   0.232  10.491 -0.2610  0.6466 -0.4393
16347TIP3   OH270531   2.947   3.348  17.237 -0.2504 -0.5006 -0.1447
16347TIP3    H170532   2.864   3.303  17.255 -1.2363  1.2709 -0.1029
16347TIP3    H270533   3.002   3.326  17.312 -0.1454 -2.8901 -0.8830
16348TIP3   OH270534   4.689   1.717   5.820 -0.0280  0.0951 -0.2757
16348TIP3    H170535   4.765   1.767   5.790  0.6483 -2.1702 -2.4864
16348TIP3    H270536   4.614   1.759   5.777  0.0848  1.5285  0.8880
16349TIP3   OH270537   6.491   4.530   4.021  0.9402  0.2737  0.7724
16349TIP3    H170538   6.502   4.444   4.060  0.7783 -0.8595 -1.5966
16349TIP3    H270539   6.579   4.557   3.998  0.7891 -0.1528 -0.3199
16350TIP3   OH270540   4.364   5.630   3.660 -0.1072  0.2942  1.0096
16350TIP3    H170541   4.458   5.618   3.675  0.1332  2.3061  1.2804
16350TIP3    H270542   4.348   5.721   3.685 -1.9650  0.2294  0.0839
16351TIP3   OH270543   2.167   3.850  14.467  0.2093  0.2831 -0.2442
16351TIP3    H170544   2.184   3.896  14.549 -3.6406  1.8784 -0.2477
16351TIP3    H270545   2.194   3.759  14.485 -0.9453  0.5079  2.9404
16352TIP3   OH270546   1.427   2.108   6.854 -0.4650  0.0806  0.3794
16352TIP3    H170547   1.445   2.106   6.760 -1.3424  1.2202  0.1699
16352TIP3    H270548   1.510   2.136   6.893  0.1299 -1.1349  0.0285
16353TIP3   OH270549   6.813   5.430  13.488 -0.4729  0.7024  0.1084
16353TIP3    H170550   6.720   5.417  13.506 -0.6966  1.7667 -0.2371
16353TIP3    H270551   6.854   5.439  13.574 -0.6026 -0.3250  0.2789
16354TIP3   OH270552   6.017   2.555  13.977 -0.3818 -0.1329 -0.6138
16354TIP3    H170553   6.042   2.583  13.890  0.6702 -1.0598 -0.6222
16354TIP3    H270554   5.923   2.537  13.971 -0.5622  1.0115 -1.2207
16355TIP3   OH270555   6.276   0.882   2.212 -0.4592 -0.5566  0.1123
16355TIP3    H170556   6.364   0.901   2.179 -1.2633  0.1318 -1.7583
16355TIP3    H270557   6.266   0.787   2.202 -0.0444 -0.5925  0.0392
16356TIP3   OH270558   2.700   4.247  11.351  0.1519  0.0651 -0.0648
16356TIP3    H170559   2.754   4.186  11.402 -0.9832 -1.6181 -0.8218
16356TIP3    H270560   2.624   4.264  11.407  0.9612  1.6316  0.5791
16357TIP3   OH270561   3.621   1.836   1.247  0.0459 -0.0971  0.4782
16357TIP3    H170562   3.570   1.762   1.282  0.2161 -0.9269 -0.9527
16357TIP3    H270563   3.556   1.905   1.234 -0.8606 -1.2982 -1.7527
16358TIP3   OH270564   2.044   2.018  15.029  0.0913  0.1999 -0.3587
16358TIP3    H170565   2.096   1.962  15.087 -1.1836 -1.3721 -0.6873
16358TIP3    H270566   2.084   2.005  14.943  0.0198  0.0790 -0.3738
16359TIP3   OH270567   5.044   3.358   5.387 -0.0238  0.3933  0.6367
16359TIP3    H170568   5.028   3.306   5.309  0.9092  1.5282 -0.3309
16359TIP3    H270569   5.109   3.423   5.360  0.2971  0.8195  2.3436
16360TIP3   OH270570   4.032   1.883   2.631 -0.0598 -0.3226 -0.6470
16360TIP3    H170571   4.122   1.859   2.652 -0.1986  0.4281  0.8765
16360TIP3    H270572   3.980   1.846   2.702 -0.8508  0.0462 -1.0235
16361TIP3   OH270573   5.710   5.924   6.303  0.4910 -0.3605  0.5406
16361TIP3    H170574   5.663   5.850   6.263  0.2369  0.4611 -0.7082
16361TIP3    H270575   5.747   5.971   6.228 -0.3441  1.4509  1.2449
16362TIP3   OH270576   2.799   2.611  16.127 -0.1996  0.2909 -0.4517
16362TIP3    H170577   2.785   2.538  16.067  0.2711  1.2965 -1.8100
16362TIP3    H270578   2.712   2.648  16.141 -0.2007  0.5604 -1.1707
16363TIP3   OH270579   4.360   6.511   2.228 -0.1131  0.1679 -0.2113
16363TIP3    H170580   4.364   6.449   2.155 -0.7325  0.5914 -0.6073
16363TIP3    H270581   4.404   6.466   2.300 -0.9822 -0.9413 -0.3480
16364TIP3   OH270582   1.594   1.740  11.130 -0.0548 -0.2451  0.3622
16364TIP3    H170583   1.647   1.683  11.074 -0.3741 -0.5912  0.4086
16364TIP3    H270584   1.522   1.769  11.075  0.6304  0.8907  0.0596
16365TIP3   OH270585   0.859   4.078   3.628  0.2366  0.2137 -0.4046
16365TIP3    H170586   0.883   3.988   3.654 -1.3784 -0.6001 -1.6411
16365TIP3    H270587   0.854   4.126   3.711 -0.4079 -1.2281  0.4186
16366TIP3   OH270588   3.148   6.602   1.290 -0.4750  0.0768 -0.1249
16366TIP3    H170589   3.131   6.639   1.376 -0.3684 -0.7669  0.2616
16366TIP3    H270590   3.151   6.678   1.231  1.6411  0.8564  0.9461
16367TIP3   OH270591   5.167   5.992  10.952 -0.3680 -0.2691 -0.0399
16367TIP3    H170592   5.203   5.964  11.036 -0.0621 -0.4007 -0.2149
16367TIP3    H270593   5.240   6.037  10.908 -0.1556 -1.2688 -0.7473
16368TIP3   OH270594   2.522   1.497   0.182  0.3702 -0.0494 -0.3285
16368TIP3    H170595   2.515   1.414   0.228  0.1094  0.9525  1.5037
16368TIP3    H270596   2.539   1.473   0.091  1.0858 -2.0787  0.3115
16369TIP3   OH270597   6.435   2.620   0.652  0.1791 -0.6176 -0.2181
16369TIP3    H170598   6.403   2.710   0.651 -1.0917 -1.0387  1.2381
16369TIP3    H270599   6.504   2.618   0.586  1.3754  1.8358  0.9168
16370TIP3   OH270600   4.976   2.959   4.842 -0.2362  0.3545  0.2313
16370TIP3    H170601   4.972   2.874   4.886  0.8618  0.1524 -0.0411
16370TIP3    H270602   4.932   2.946   4.759  0.7464 -0.2070 -0.2096
16371TIP3   OH270603   3.209   3.157  12.776  0.7326  0.4304 -0.0074
16371TIP3    H170604   3.192   3.122  12.689 -0.4913  1.2539 -0.1061
16371TIP3    H270605   3.128   3.144  12.824  1.3821  0.0454  0.9921
16372TIP3   OH270606   4.694   2.039   3.107  0.3573  0.6404 -0.0219
16372TIP3    H170607   4.724   2.108   3.049 -0.0013  0.2765 -0.6425
16372TIP3    H270608   4.624   2.080   3.159  1.5221  1.3233  1.0364
16373TIP3   OH270609   1.801   2.257  15.435 -0.4162  0.0515  0.2794
16373TIP3    H170610   1.890   2.233  15.460 -0.5938 -0.7627  0.1618
16373TIP3    H270611   1.749   2.239  15.514 -0.3133  1.5321  0.6923
16374TIP3   OH270612   2.066   4.110  14.640 -0.5039  0.5633 -0.5037
16374TIP3    H170613   2.011   4.082  14.567 -0.1472  2.2425 -1.4414
16374TIP3    H270614   2.030   4.194  14.667 -2.5419 -1.4019  3.3199
16375TIP3   OH270615   0.293   3.908   1.748  0.0356  0.4731 -0.1130
16375TIP3    H170616   0.350   3.839   1.784 -1.1809 -1.4244 -1.6836
16375TIP3    H270617   0.209   3.893   1.791 -0.5040  0.3295 -1.1988
16376TIP3   OH270618   3.243   1.738   5.040 -0.2763  0.0875 -0.8651
16376TIP3    H170619   3.273   1.776   4.958  0.2684 -1.5328 -1.4353
16376TIP3    H270620   3.276   1.797   5.107  0.6088  0.5967 -1.7324
16377TIP3   OH270621   2.512   2.718  14.966 -0.2621  0.0981  0.2521
16377TIP3    H170622   2.487   2.647  15.025  0.5241  1.2262  1.9771
16377TIP3    H270623   2.607   2.718  14.967 -0.2566  1.4405  0.6228
16378TIP3   OH270624   6.211   4.208  13.662  0.0089  0.5201  0.0611
16378TIP3    H170625   6.176   4.233  13.747 -0.0693 -0.5108  0.3405
16378TIP3    H270626   6.268   4.133  13.681  1.1945  1.2449 -0.5840
16379TIP3   OH270627   0.597   0.203   2.770 -0.3894  0.2339  0.3280
16379TIP3    H170628   0.675   0.181   2.720  0.4226  0.5374  1.4347
16379TIP3    H270629   0.606   0.153   2.851 -0.7025  1.2221  0.9908
16380TIP3   OH270630   0.116   3.368  13.513 -0.5062  0.0823 -0.2472
16380TIP3    H170631   0.177   3.379  13.440 -0.1251 -2.2908 -0.3144
16380TIP3    H270632   0.131   3.279  13.544 -3.4744 -0.3229  0.1740
16381TIP3   OH270633   6.361   5.757   0.058  0.3974 -0.0921 -0.0102
16381TIP3    H170634   6.328   5.736   0.145 -0.1454  1.0791  0.0656
16381TIP3    H270635   6.302   5.823   0.024  1.3535  0.3981 -0.7629
16382TIP3   OH270636   6.508   2.783   5.577 -0.3521 -0.1227 -0.6098
16382TIP3    H170637   6.581   2.799   5.517  1.3658 -0.0395  1.4382
16382TIP3    H270638   6.487   2.870   5.612  0.4179 -0.4981  0.8424
16383TIP3   OH270639   6.434   6.445  13.112  0.1268  0.5939 -0.1392
16383TIP3    H170640   6.473   6.531  13.095  2.7467 -0.9306 -2.1636
16383TIP3    H270641   6.458   6.426  13.203  2.5698  0.5071 -0.7682
16384TIP3   OH270642   1.760   4.946   4.732  0.3636  0.1008  0.2630
16384TIP3    H170643   1.779   4.889   4.657  1.1842  2.4245 -1.3516
16384TIP3    H270644   1.684   4.997   4.704  0.7926  1.1151  0.9380
16385TIP3   OH270645   6.106   4.674   5.615 -0.1240 -0.1308  0.3043
16385TIP3    H170646   6.074   4.707   5.531 -0.5753 -0.9583  0.1482
16385TIP3    H270647   6.034   4.691   5.676  0.1952  0.4503  0.5244
16386TIP3   OH270648   1.037   2.370   5.315  0.5010 -0.3583 -0.1015
16386TIP3    H170649   1.033   2.275   5.325  1.4840 -0.1199  3.0113
16386TIP3    H270650   1.066   2.383   5.225  2.8846 -3.0556  0.2184
16387TIP3   OH270651   4.659   4.622   0.299  0.6983 -0.4873 -0.2409
16387TIP3    H170652   4.595   4.689   0.323  0.9414 -0.0193 -0.9035
16387TIP3    H270653   4.695   4.652   0.215  0.0514 -1.9734 -1.0714
16388TIP3   OH270654   3.095   4.221  11.210  0.9132  0.1830 -0.1359
16388TIP3    H170655   3.127   4.235  11.121 -0.7255  3.8111 -0.2754
16388TIP3    H270656   3.044   4.140  11.206  0.1121  0.7926 -2.7403
16389TIP3   OH270657   3.373   0.650  16.926 -0.0732 -0.4809 -0.2609
16389TIP3    H170658   3.423   0.609  16.855 -0.1370  0.5455 -0.8985
16389TIP3    H270659   3.364   0.580  16.991  1.6959 -0.8368 -0.3712
16390TIP3   OH270660   6.705   1.901   3.115 -0.0642  0.0334 -0.0976
16390TIP3    H170661   6.764   1.863   3.050 -0.9022  0.0758 -0.9040
16390TIP3    H270662   6.730   1.993   3.120 -0.6977  0.2728 -1.1739
16391TIP3   OH270663   1.091   4.433  12.238 -0.3799 -0.6298  0.2237
16391TIP3    H170664   1.052   4.363  12.292 -1.1124  0.3634  1.0118
16391TIP3    H270665   1.020   4.459  12.179 -0.7236  0.7390  1.2190
16392TIP3   OH270666   3.422   3.630   1.641 -0.1235 -0.0649 -0.0703
16392TIP3    H170667   3.512   3.617   1.612  0.9343  2.7106  1.7468
16392TIP3    H270668   3.415   3.576   1.720  1.0672  2.2368  1.6866
16393TIP3   OH270669   1.229   1.405   0.761 -0.0973  0.8363 -0.0629
16393TIP3    H170670   1.157   1.463   0.786  0.0649  0.7751  0.5596
16393TIP3    H270671   1.307   1.461   0.766 -0.1793  1.0612 -1.3345
16394TIP3   OH270672   3.666   2.070   2.590  0.5474 -0.1749  0.3268
16394TIP3    H170673   3.692   2.087   2.499  2.0838 -0.7267  0.6527
16394TIP3    H270674   3.594   2.131   2.606  0.6579  0.3388 -1.0757
16395TIP3   OH270675   0.139   2.712   3.042  0.0603 -0.2941 -0.0442
16395TIP3    H170676   0.091   2.641   3.084 -0.5407  0.1206 -0.0307
16395TIP3    H270677   0.142   2.781   3.108  1.2618 -0.5630  0.1980
16396TIP3   OH270678   6.372   3.313   4.121 -0.0094  0.1845 -0.3853
16396TIP3    H170679   6.381   3.378   4.052 -3.4942  0.7820 -0.3709
16396TIP3    H270680   6.366   3.364   4.202  1.3291 -0.3683  0.0691
16397TIP3   OH270681   5.446   0.361  13.518  0.8028  0.2589 -0.2693
16397TIP3    H170682   5.502   0.323  13.585  0.2266 -1.1220 -0.5348
16397TIP3    H270683   5.371   0.300  13.513  0.6878  0.5239 -1.9161
16398TIP3   OH270684   6.501   2.936   0.026  0.1047  0.0776 -0.0183
16398TIP3    H170685   6.588   2.976   0.033  1.5783 -2.5393 -2.4299
16398TIP3    H270686   6.450   3.000  -0.023  1.2576  0.7178 -0.4157
16399TIP3   OH270687   2.363   1.326  16.491  0.8155 -0.5041 -0.0937
16399TIP3    H170688   2.344   1.285  16.407  1.0530 -1.5709  0.3666
16399TIP3    H270689   2.323   1.413  16.485  0.8862 -0.5476 -1.3274
16400TIP3   OH270690   3.404   5.204  11.764 -0.2214 -0.1659 -0.2933
16400TIP3    H170691   3.395   5.264  11.690 -0.1312 -0.1595 -0.3001
16400TIP3    H270692   3.474   5.144  11.738 -0.7102 -0.6390 -0.5286
16401TIP3   OH270693   2.842   3.773   0.820  0.9083 -0.0957  0.2254
16401TIP3    H170694   2.868   3.841   0.759  1.2816 -0.0599  0.4252
16401TIP3    H270695   2.783   3.716   0.770  2.7057 -1.1554 -0.7164
16402TIP3   OH270696   3.965   1.658  11.375 -0.5148 -0.0506  0.3586
16402TIP3    H170697   4.023   1.656  11.299 -1.9295 -1.2276 -0.7306
16402TIP3    H270698   3.882   1.691  11.341 -1.2485 -0.8655  1.3210
16403TIP3   OH270699   0.255   6.469   4.367 -0.2276  0.1307 -0.2680
16403TIP3    H170700   0.194   6.533   4.404 -1.7969  0.2206 -2.8527
16403TIP3    H270701   0.241   6.475   4.272  0.7903 -2.8450 -0.6670
16404TIP3   OH270702   1.972   5.118  12.105  0.2406 -0.1112 -0.0524
16404TIP3    H170703   1.965   5.194  12.048 -0.0039  0.5499  0.8472
16404TIP3    H270704   2.059   5.082  12.088 -0.0775 -0.3119 -1.3151
16405TIP3   OH270705   6.298   4.516  14.626  0.6509  0.0648  0.1359
16405TIP3    H170706   6.309   4.451  14.557 -0.4253  0.1546 -0.1376
16405TIP3    H270707   6.210   4.498  14.660  0.0377  1.8785 -0.4687
16406TIP3   OH270708   1.846   0.304  11.367 -0.1766 -0.2869 -0.0406
16406TIP3    H170709   1.932   0.333  11.336 -0.2692 -0.9926 -0.9783
16406TIP3    H270710   1.812   0.249  11.297 -2.4398  1.8845 -0.7640
16407TIP3   OH270711   4.420   2.391  15.748  0.4057  0.0561 -0.0298
16407TIP3    H170712   4.494   2.414  15.804 -0.5831 -0.9279  1.7045
16407TIP3    H270713   4.372   2.473  15.737  1.1207  0.4547 -0.2659
16408TIP3   OH270714   5.828   5.847  11.448 -0.0544  0.3220  0.0317
16408TIP3    H170715   5.853   5.880  11.362  1.5739 -1.4007 -0.1808
16408TIP3    H270716   5.871   5.905  11.510  2.5493 -1.1622 -0.3382
16409TIP3   OH270717   6.297   6.099  13.710  0.2090  0.7546 -0.0849
16409TIP3    H170718   6.373   6.121  13.656  0.4038  0.0357 -0.1145
16409TIP3    H270719   6.227   6.082  13.646  0.1425  0.9842 -0.0720
16410TIP3   OH270720   4.048   2.309  15.154  0.6835 -0.3731 -0.4402
16410TIP3    H170721   4.062   2.309  15.059  0.8248 -2.1967 -0.4382
16410TIP3    H270722   4.081   2.394  15.183 -4.4683  2.6251 -2.6977
16411TIP3   OH270723   4.489   5.887   6.821 -0.0563  0.7777 -0.1559
16411TIP3    H170724   4.409   5.909   6.773 -1.0567  0.4487  1.3302
16411TIP3    H270725   4.469   5.805   6.865  1.5042  0.1085 -0.6564
16412TIP3   OH270726   1.903   3.291  12.412 -0.1443  0.0182  0.1560
16412TIP3    H170727   1.872   3.275  12.501 -2.1687  0.6308 -0.4024
16412TIP3    H270728   1.994   3.317  12.423 -0.5021  0.5838  2.0991
16413TIP3   OH270729   2.457   3.812   2.042  0.9871 -0.1219  0.4302
16413TIP3    H170730   2.372   3.818   2.084  1.1112 -0.9415  0.8026
16413TIP3    H270731   2.505   3.747   2.093  1.8884  0.4260  0.3101
16414TIP3   OH270732   2.260   6.260  12.576 -0.2317 -0.0051 -0.1597
16414TIP3    H170733   2.186   6.262  12.636 -0.6679  0.1529 -0.6945
16414TIP3    H270734   2.336   6.280  12.630 -0.4694 -1.0121  0.5515
16415TIP3   OH270735   0.650   5.564  17.172  0.1131 -0.2246  0.6043
16415TIP3    H170736   0.692   5.481  17.150 -0.8633 -0.4749 -0.3560
16415TIP3    H270737   0.719   5.630  17.157  1.0984 -0.8952  2.0338
16416TIP3   OH270738   5.144   4.642  17.063  0.1331 -0.6904  0.1074
16416TIP3    H170739   5.181   4.659  16.976 -1.1714 -1.6977 -0.6619
16416TIP3    H270740   5.049   4.652  17.051 -0.1178 -1.6620  1.2185
16417TIP3   OH270741   4.079   5.771  14.600 -0.3728 -0.2408 -0.2201
16417TIP3    H170742   4.084   5.677  14.614  0.5476 -0.4186 -1.6663
16417TIP3    H270743   4.116   5.809  14.679 -0.5280 -1.0991  0.2694
16418TIP3   OH270744   2.766   4.632   3.048 -0.0500  0.2969 -0.3636
16418TIP3    H170745   2.760   4.539   3.028 -0.8408  0.2930 -0.1465
16418TIP3    H270746   2.805   4.635   3.135  0.4435  0.1886 -0.5810
16419TIP3   OH270747   0.187   1.352  12.651 -0.3372  0.2898 -0.3751
16419TIP3    H170748   0.098   1.366  12.617 -2.0753  0.9341  4.0778
16419TIP3    H270749   0.221   1.440  12.667  1.2718  0.0551 -2.2919
16420TIP3   OH270750   3.268   4.239  10.988  0.2971  0.3760 -0.3597
16420TIP3    H170751   3.231   4.266  10.904  1.4557  1.4489 -0.5426
16420TIP3    H270752   3.335   4.174  10.965 -1.2699 -1.3718 -0.0490
16421TIP3   OH270753   1.325   5.896   0.298 -0.5111 -0.9687  0.2169
16421TIP3    H170754   1.331   5.824   0.236  1.9189 -1.0633  0.5271
16421TIP3    H270755   1.391   5.959   0.270 -1.4899  0.4056  0.9050
16422TIP3   OH270756   2.651   6.417  11.817  0.2553  0.0708 -0.0431
16422TIP3    H170757   2.600   6.485  11.860  2.7802  1.2845  1.1633
16422TIP3    H270758   2.675   6.455  11.732 -1.2498 -0.7182 -0.8508
16423TIP3   OH270759   6.154   1.435   1.070 -0.4479 -0.6385 -0.1349
16423TIP3    H170760   6.177   1.522   1.103 -1.2252 -0.7183  0.6638
16423TIP3    H270761   6.238   1.390   1.059 -0.0492  0.1863 -0.4888
16424TIP3   OH270762   5.965   5.101   3.364 -0.3879  0.3145 -0.1750
16424TIP3    H170763   5.944   5.185   3.324 -0.3583  1.1258  1.4818
16424TIP3    H270764   5.900   5.040   3.327  0.6511  0.6595 -2.6725
16425TIP3   OH270765   0.590   2.820  13.912  0.3320  0.0125 -0.3826
16425TIP3    H170766   0.624   2.907  13.892  0.8331  0.0778  0.7582
16425TIP3    H270767   0.636   2.793  13.991 -0.0059 -1.1909 -0.5836
16426TIP3   OH270768   2.502   1.139  15.634 -0.2280 -0.0460  0.3142
16426TIP3    H170769   2.476   1.122  15.724 -1.5239  1.3978  0.2261
16426TIP3    H270770   2.420   1.150  15.587  0.4398 -0.8380 -1.0623
16427TIP3   OH270771   3.416   2.857   5.153 -0.6162 -0.1970  0.3555
16427TIP3    H170772   3.449   2.942   5.125 -0.5297 -0.2635  0.2563
16427TIP3    H270773   3.406   2.807   5.072 -1.9971  0.1912  0.2765
16428TIP3   OH270774   0.771   1.126   6.069  0.3512  0.2546 -0.5046
16428TIP3    H170775   0.793   1.181   6.144 -0.2577 -1.6695  1.1392
16428TIP3    H270776   0.775   1.037   6.103 -1.7311 -0.5663 -2.2817
16429TIP3   OH270777   2.434   2.572  15.530  0.0091 -0.4829 -0.5479
16429TIP3    H170778   2.442   2.618  15.447  0.6774  0.4798  0.0329
16429TIP3    H270779   2.524   2.546  15.552 -0.0454  0.0129  0.2812
16430TIP3   OH270780   0.329   2.937   3.179  0.3287 -0.2350  0.4938
16430TIP3    H170781   0.286   2.869   3.231  0.8715  0.4805  1.8992
16430TIP3    H270782   0.405   2.893   3.141  0.2358 -0.6222  0.7549
16431TIP3   OH270783   4.168   3.220  10.620  0.0824  0.0881  0.3738
16431TIP3    H170784   4.255   3.253  10.596  0.2325 -0.3579  0.3129
16431TIP3    H270785   4.164   3.133  10.581  0.0117 -0.3203  1.2962
16432TIP3   OH270786   0.364   1.288  16.379 -0.1947  0.2488 -0.2807
16432TIP3    H170787   0.278   1.320  16.350  0.8591  2.2314 -1.3034
16432TIP3    H270788   0.410   1.367  16.410  0.9120 -0.9414  1.1945
16433TIP3   OH270789   2.990   6.761  15.855  0.1880  0.1639 -0.1158
16433TIP3    H170790   3.076   6.740  15.890  0.3187 -1.5209 -1.4121
16433TIP3    H270791   3.000   6.756  15.760 -0.8115  2.0628 -0.3474
16434TIP3   OH270792   6.126   6.458   0.282 -0.0058 -0.4599  0.3303
16434TIP3    H170793   6.190   6.528   0.298  1.7074 -1.7078 -0.9588
16434TIP3    H270794   6.085   6.444   0.368  1.1507  0.6581  1.0904
16435TIP3   OH270795   5.978   5.994  13.946  0.3807  0.6969  0.1335
16435TIP3    H170796   5.968   6.066  13.884 -0.0139 -0.0584 -0.6927
16435TIP3    H270797   5.889   5.958  13.954  1.0659 -1.4762 -1.6313
16436TIP3   OH270798   4.942   6.256   2.763 -0.2550 -0.1155 -0.3826
16436TIP3    H170799   4.876   6.214   2.819  0.4067 -3.0045 -1.6515
16436TIP3    H270800   5.013   6.192   2.758  1.0873  1.4485 -1.9115
16437TIP3   OH270801   1.856   1.872  16.676  0.0549  0.0523  0.1680
16437TIP3    H170802   1.923   1.918  16.726  1.1660  0.5013 -1.6547
16437TIP3    H270803   1.785   1.936  16.667  0.5705  0.5725 -0.2718
16438TIP3   OH270804   6.272   4.234   4.790  0.3705  0.2345 -0.6558
16438TIP3    H170805   6.244   4.322   4.814  0.5363  0.1326 -0.0765
16438TIP3    H270806   6.333   4.209   4.860 -1.4039 -1.2200  0.3989
16439TIP3   OH270807   3.830   3.573  12.901 -0.4853  0.1238 -0.0060
16439TIP3    H170808   3.823   3.489  12.855  1.0971 -0.3970  0.6710
16439TIP3    H270809   3.823   3.639  12.832  0.0250 -0.6013 -0.7705
16440TIP3   OH270810   6.513   4.831   2.560  0.0772 -0.0572  0.2790
16440TIP3    H170811   6.549   4.754   2.604  1.1462 -0.5951 -1.4920
16440TIP3    H270812   6.581   4.897   2.567 -0.5419  0.5036  1.1386
16441TIP3   OH270813   3.004   5.959  16.748  0.3203 -0.0213  0.2635
16441TIP3    H170814   2.967   6.037  16.706 -3.0420 -1.1481  0.9918
16441TIP3    H270815   3.093   5.954  16.715 -0.4535  2.2815 -2.3447
16442TIP3   OH270816   6.666   3.255  16.311  0.1754 -0.1928 -0.0085
16442TIP3    H170817   6.592   3.198  16.293 -0.5673  1.6696 -3.1596
16442TIP3    H270818   6.740   3.216  16.264  0.0250  0.5762 -0.9000
16443TIP3   OH270819   5.222   0.096  14.142  0.1967 -0.9056 -0.2056
16443TIP3    H170820   5.312   0.063  14.149  0.7600  0.9626  2.1471
16443TIP3    H270821   5.176   0.054  14.215  0.0056  0.6352  0.5748
16444TIP3   OH270822   0.332   0.354   5.560 -0.1420 -0.5376 -0.0349
16444TIP3    H170823   0.284   0.301   5.624 -1.1358  1.2300  0.7121
16444TIP3    H270824   0.358   0.433   5.608  0.5386  0.0726 -1.3638
16445TIP3   OH270825   2.739   1.470  10.444 -0.4581 -0.1957 -0.0998
16445TIP3    H170826   2.680   1.480  10.368  0.2160 -0.2440 -0.6332
16445TIP3    H270827   2.715   1.542  10.502 -1.3476 -0.4753 -0.1114
16446TIP3   OH270828   3.803   1.931  12.155  0.0436 -0.2528 -0.3053
16446TIP3    H170829   3.715   1.965  12.172  0.4851  1.0632 -0.6265
16446TIP3    H270830   3.803   1.908  12.062  0.4892  1.1489 -0.6674
16447TIP3   OH270831   0.280   1.333   6.704 -0.7021 -0.1364 -0.1236
16447TIP3    H170832   0.307   1.425   6.711 -0.0833 -0.3015 -0.3166
16447TIP3    H270833   0.340   1.296   6.639 -1.8905 -0.3173 -1.1291
16448TIP3   OH270834   2.761   0.608  14.034 -0.4787  0.1187 -0.5431
16448TIP3    H170835   2.828   0.565  14.086 -0.8700  0.8200  0.5513
16448TIP3    H270836   2.716   0.537  13.988  0.1030 -0.4654 -0.2004
16449TIP3   OH270837   4.828   5.933   3.284  0.1374  0.3504  0.3228
16449TIP3    H170838   4.814   6.027   3.298 -0.0317  0.2367  0.9156
16449TIP3    H270839   4.881   5.905   3.358  2.0231  0.4121 -0.9943
16450TIP3   OH270840   2.415   5.860  12.341 -0.2277  0.2429 -0.2975
16450TIP3    H170841   2.339   5.914  12.361 -0.9506 -0.8376 -0.0495
16450TIP3    H270842   2.457   5.845  12.426 -1.2852 -1.3981 -0.0377
16451TIP3   OH270843   4.883   4.001   2.295  0.1113 -0.4361 -0.3859
16451TIP3    H170844   4.819   4.064   2.330  1.9431  0.5796  1.1990
16451TIP3    H270845   4.916   4.043   2.216  0.2623 -0.0325 -0.1165
16452TIP3   OH270846   0.235   2.532  12.151 -0.2530  0.1203  0.1956
16452TIP3    H170847   0.166   2.525  12.218 -1.8980 -1.2259 -1.5712
16452TIP3    H270848   0.271   2.444  12.145 -1.0026 -0.0909 -1.5625
16453TIP3   OH270849   5.779   4.639  14.239 -0.0132  0.2653 -0.1735
16453TIP3    H170850   5.843   4.710  14.239 -0.7697  0.9679  0.8958
16453TIP3    H270851   5.728   4.653  14.319 -0.4683 -1.2140 -0.1917
16454TIP3   OH270852   3.369   2.519   3.837 -0.3182  0.1303 -0.3087
16454TIP3    H170853   3.447   2.570   3.861  0.9857 -0.9185 -2.1643
16454TIP3    H270854   3.360   2.532   3.742 -1.1581 -1.4496 -0.4655
16455TIP3   OH270855   3.810   2.349   0.012  0.4573  0.1374  0.2065
16455TIP3    H170856   3.899   2.369   0.040  0.6033 -0.3613  0.1023
16455TIP3    H270857   3.754   2.399   0.072  0.7962  0.2298  0.4472
16456TIP3   OH270858   5.663   5.520  14.769 -0.3022 -0.0509 -0.3154
16456TIP3    H170859   5.616   5.601  14.784 -1.1095 -0.3109 -1.3903
16456TIP3    H270860   5.693   5.525  14.678  2.0683  0.2633  0.4439
16457TIP3   OH270861   0.815   3.742  12.713  0.1591  0.0413 -0.0732
16457TIP3    H170862   0.779   3.757  12.800 -1.6280 -1.8597 -0.4543
16457TIP3    H270863   0.909   3.759  12.723 -0.0352 -0.0304  2.1811
16458TIP3   OH270864   6.125   1.715   3.436 -0.2036  0.6763  0.5423
16458TIP3    H170865   6.129   1.676   3.524 -0.4541 -0.0644  0.2291
16458TIP3    H270866   6.084   1.648   3.382 -0.2706  1.2247 -0.0954
16459TIP3   OH270867   4.848   6.637  16.110  0.6625  0.1121  0.6191
16459TIP3    H170868   4.862   6.599  16.196  2.8628 -1.4189 -0.3988
16459TIP3    H270869   4.911   6.594  16.053 -1.9618 -0.2070 -2.1676
16460TIP3   OH270870   3.330   2.946   4.647 -0.0954 -0.7401  0.0100
16460TIP3    H170871   3.388   2.900   4.707 -1.5147  0.5484  2.4567
16460TIP3    H270872   3.242   2.915   4.669 -0.5172 -1.6153 -2.6827
16461TIP3   OH270873   0.247   2.825  13.106  0.5419  0.3681  0.2390
16461TIP3    H170874   0.275   2.734  13.103  0.6747  0.4194 -0.0706
16461TIP3    H270875   0.168   2.827  13.052  1.4403  0.7594 -1.0704
16462TIP3   OH270876   3.477   1.175   5.430  0.1132 -0.2752  0.5268
16462TIP3    H170877   3.526   1.145   5.353  1.6115 -1.5505  1.9213
16462TIP3    H270878   3.504   1.266   5.442  1.1759 -0.5786  0.5055
16463TIP3   OH270879   1.319   1.027   4.478 -0.2496 -0.5019 -0.0450
16463TIP3    H170880   1.254   1.072   4.424 -1.1658 -1.2074  0.4441
16463TIP3    H270881   1.297   1.051   4.567  1.1679  0.5353  0.0303
16464TIP3   OH270882   4.763   3.969  10.804 -0.3280  0.2947  0.4108
16464TIP3    H170883   4.682   3.934  10.767 -0.3273 -0.5655  1.2038
16464TIP3    H270884   4.810   3.892  10.835 -1.1751  1.0878  3.9106
16465TIP3   OH270885   4.750   2.125   5.402  0.1939  0.4742  0.3285
16465TIP3    H170886   4.662   2.093   5.422  0.6666  0.1928  2.0531
16465TIP3    H270887   4.738   2.219   5.388 -0.3033  0.5429  1.1330
16466TIP3   OH270888   1.317   3.090   4.617 -0.0189  0.0871 -0.0428
16466TIP3    H170889   1.344   3.182   4.619 -1.1516  0.4279  0.9008
16466TIP3    H270890   1.241   3.087   4.676  0.9990 -1.7679  1.2262
16467TIP3   OH270891   4.510   3.591  15.898 -0.2075 -0.0963  0.1044
16467TIP3    H170892   4.501   3.666  15.839  0.3984 -0.1011 -0.0011
16467TIP3    H270893   4.492   3.514  15.842  0.5287 -0.1120 -0.1267
16468TIP3   OH270894   1.972   4.140   4.246  0.2815 -0.3770 -0.2211
16468TIP3    H170895   1.906   4.173   4.185 -0.0738  0.2889  0.5205
16468TIP3    H270896   1.923   4.079   4.302  0.1981  0.4654  0.6222
16469TIP3   OH270897   1.823   6.523  12.939 -0.2510  0.4727 -0.1820
16469TIP3    H170898   1.766   6.575  12.881 -1.2005 -0.1548  0.1734
16469TIP3    H270899   1.891   6.584  12.966  0.0285  0.8706 -1.7055
16470TIP3   OH270900   2.895   3.945   4.500 -0.4268 -0.4118  0.6916
16470TIP3    H170901   2.817   3.938   4.446  0.1629  0.1685 -0.2517
16470TIP3    H270902   2.935   4.028   4.474  0.3775 -0.5893  1.3334
16471TIP3   OH270903   3.518   2.367   2.268 -0.1785  0.1737  0.2997
16471TIP3    H170904   3.580   2.300   2.240  0.1643  0.9102 -0.7165
16471TIP3    H270905   3.520   2.364   2.364  0.0975 -1.0193  0.2582
16472TIP3   OH270906   2.826   2.003  11.943  0.3957  0.2168  0.3912
16472TIP3    H170907   2.921   2.009  11.928  0.3373  0.6921  0.2037
16472TIP3    H270908   2.791   2.083  11.903 -0.0091  0.3645  1.0455
16473TIP3   OH270909   2.588   2.954   4.315 -0.0362  0.2700 -0.0051
16473TIP3    H170910   2.591   3.041   4.275 -1.6782  1.5466  2.5175
16473TIP3    H270911   2.565   2.895   4.243 -0.3637  2.1242 -1.4509
16474TIP3   OH270912   6.796   4.071   0.419  0.2179  0.3564  0.0162
16474TIP3    H170913   6.796   4.070   0.324  1.7047 -0.5957  0.0164
16474TIP3    H270914   6.879   4.112   0.443  0.4773 -0.6503  0.9027
16475TIP3   OH270915   1.907   1.863   5.686 -0.3207  0.5539  0.5293
16475TIP3    H170916   1.918   1.880   5.592  3.3870  0.6447  0.8928
16475TIP3    H270917   1.935   1.943   5.729 -1.2202  0.2274  1.7698
16476TIP3   OH270918   4.976   4.868   4.625 -0.3958 -0.5773 -0.0514
16476TIP3    H170919   4.967   4.874   4.530 -0.5983 -1.5271 -0.0909
16476TIP3    H270920   4.958   4.957   4.656 -3.3010 -0.8723 -0.6729
16477TIP3   OH270921   2.847   3.555  10.934  0.0980 -0.1635  0.5403
16477TIP3    H170922   2.763   3.511  10.921 -0.1118  0.9765 -2.4375
16477TIP3    H270923   2.899   3.529  10.858  1.5713  1.1119  1.0974
16478TIP3   OH270924   1.822   6.314   3.252  0.1792 -0.1259  0.0003
16478TIP3    H170925   1.810   6.395   3.202 -1.7956 -1.5810 -1.9550
16478TIP3    H270926   1.744   6.263   3.233  1.0902 -2.2154  1.7757
16479TIP3   OH270927   0.785   6.445   2.660 -0.3728 -0.2667 -0.1086
16479TIP3    H170928   0.785   6.534   2.694 -0.0855 -0.1336 -0.4624
16479TIP3    H270929   0.710   6.403   2.703  0.8450 -0.5242  1.8300
16480TIP3   OH270930   3.632   3.501   1.519 -0.2690 -0.3298 -0.1908
16480TIP3    H170931   3.724   3.505   1.545 -0.0945 -0.8791 -0.7013
16480TIP3    H270932   3.629   3.546   1.434 -0.6556  0.5800  0.2971
16481TIP3   OH270933   2.752   6.625   3.228  0.7373 -0.4750 -0.1130
16481TIP3    H170934   2.794   6.669   3.301 -0.0348 -1.1326  0.7392
16481TIP3    H270935   2.690   6.690   3.193  0.1983 -0.5909  0.6184
16482TIP3   OH270936   6.275   5.274   0.463 -0.2229  0.0795 -0.0653
16482TIP3    H170937   6.338   5.345   0.474 -0.4577  0.3716 -0.6088
16482TIP3    H270938   6.317   5.215   0.401  0.3892 -0.7467  1.1127
16483TIP3   OH270939   2.207   6.658  11.143 -0.4569  0.3429  0.0107
16483TIP3    H170940   2.165   6.684  11.061  1.5227  0.3811 -1.0126
16483TIP3    H270941   2.252   6.576  11.122 -0.1810  0.1985  1.1377
16484TIP3   OH270942   1.953   4.959  13.235  0.6376 -0.7975 -0.3385
16484TIP3    H170943   1.987   4.890  13.177 -2.1638 -1.0319 -1.7971
16484TIP3    H270944   1.867   4.980  13.199 -0.2467  0.6547  2.4750
16485TIP3   OH270945   3.594   3.269  11.076 -0.5417  0.2368  0.4611
16485TIP3    H170946   3.562   3.332  11.011 -0.7255 -0.6088 -0.2959
16485TIP3    H270947   3.519   3.255  11.134 -0.8638 -0.1094 -0.0283
16486TIP3   OH270948   0.066   2.797   6.122 -0.6991  0.1826  0.3860
16486TIP3    H170949  -0.026   2.817   6.141 -0.7938  1.2776 -1.0747
16486TIP3    H270950   0.114   2.873   6.152 -0.0325 -1.1523  2.8075
16487TIP3   OH270951   3.461   3.802   3.588  0.0417 -0.4251 -0.3630
16487TIP3    H170952   3.459   3.847   3.672  0.8713  1.8059 -1.5154
16487TIP3    H270953   3.373   3.813   3.553 -0.5460 -2.0329  0.5062
16488TIP3   OH270954   3.671   2.972  13.603  1.0497  0.2753 -0.3780
16488TIP3    H170955   3.633   3.034  13.540  0.3432 -1.0182 -1.2394
16488TIP3    H270956   3.604   2.963  13.671  0.8067 -0.1576 -0.6697
16489TIP3   OH270957   4.804   5.244  12.497  0.3959  0.3998  0.1126
16489TIP3    H170958   4.744   5.248  12.571  1.1233  0.1733  0.7269
16489TIP3    H270959   4.884   5.206  12.534  0.9391  0.7777 -0.6661
16490TIP3   OH270960   3.352   5.034   6.334  0.2833  0.4352  0.5225
16490TIP3    H170961   3.440   5.056   6.363  0.8039  0.1623 -0.8166
16490TIP3    H270962   3.344   5.076   6.248 -0.7860  0.1995  0.4987
16491TIP3   OH270963   4.800   5.338  15.176 -0.5334 -0.0825 -0.8105
16491TIP3    H170964   4.774   5.266  15.119  0.4467 -1.2301  0.1593
16491TIP3    H270965   4.719   5.366  15.218 -0.9772 -0.3884 -1.4555
16492TIP3   OH270966   3.772   3.344   4.654 -0.0371 -0.0846 -0.3082
16492TIP3    H170967   3.696   3.367   4.708  0.6280  1.6216 -0.0638
16492TIP3    H270968   3.770   3.248   4.650 -1.1679 -0.1501  1.1780
16493TIP3   OH270969   3.283   5.716   2.401 -0.4690 -0.3358  0.1442
16493TIP3    H170970   3.296   5.739   2.309 -0.8057  1.0422  0.4246
16493TIP3    H270971   3.198   5.753   2.423  0.4758  1.1035  1.5435
16494TIP3   OH270972   6.276   5.064   0.236 -0.1859  0.6234  0.3155
16494TIP3    H170973   6.318   4.979   0.250 -1.0767  0.0832 -0.2050
16494TIP3    H270974   6.340   5.115   0.187 -0.6527 -0.6705 -1.6945
16495TIP3   OH270975   4.469   4.644  14.277  0.5090 -0.1682 -0.2624
16495TIP3    H170976   4.492   4.551  14.271  1.4940 -0.0014  0.6968
16495TIP3    H270977   4.553   4.689  14.264  0.2542  0.5445  0.5726
16496TIP3   OH270978   2.332   3.102   5.144 -0.1060  0.4648 -0.4778
16496TIP3    H170979   2.303   3.072   5.058 -0.7009 -0.8504  0.1661
16496TIP3    H270980   2.285   3.047   5.206  0.1903  1.5132  0.7043
16497TIP3   OH270981   5.468   3.222  16.880  0.7076 -0.2023  0.0977
16497TIP3    H170982   5.397   3.166  16.850  1.2646 -0.2105 -1.2692
16497TIP3    H270983   5.502   3.180  16.959  0.1598 -0.9858 -0.0859
16498TIP3   OH270984   2.042   4.716   0.927  0.0106  0.1372  0.2078
16498TIP3    H170985   1.984   4.661   0.980  1.0048 -3.3202 -2.1340
16498TIP3    H270986   2.084   4.775   0.991 -1.4089 -1.5233  2.7500
16499TIP3   OH270987   6.108   0.308  12.787 -0.1015 -0.1522 -0.7749
16499TIP3    H170988   6.137   0.219  12.807 -1.6403 -0.4757  0.1554
16499TIP3    H270989   6.188   0.358  12.776  0.7859 -1.4887 -0.4857
16500TIP3   OH270990   1.299   5.354   3.580 -0.0970 -0.1441  0.7194
16500TIP3    H170991   1.267   5.392   3.662  0.2526  1.2017  0.2369
16500TIP3    H270992   1.246   5.275   3.568 -1.2504  0.5143  1.4130
16501TIP3   OH270993   3.825   4.093   5.290 -0.1227 -0.1812  0.0492
16501TIP3    H170994   3.775   4.173   5.283 -0.0709  0.2566  3.6189
16501TIP3    H270995   3.797   4.040   5.216 -2.9156  1.6347 -0.2547
16502TIP3   OH270996   3.192   4.277  10.712  0.0766 -0.3170  0.2058
16502TIP3    H170997   3.247   4.199  10.718 -0.6425 -0.8248  0.2686
16502TIP3    H270998   3.145   4.267  10.630 -0.9283 -0.5672  0.7974
16503TIP3   OH270999   1.724   6.345  12.252  0.4291 -0.0115 -0.1923
16503TIP3    H171000   1.720   6.361  12.158  0.0593  0.5473 -0.0818
16503TIP3    H271001   1.716   6.250  12.260 -1.0246  0.0591 -0.6518
16504TIP3   OH271002   0.886   6.341  12.797 -0.1484  0.4559  0.0404
16504TIP3    H171003   0.936   6.390  12.732  0.5338 -0.5208 -0.1832
16504TIP3    H271004   0.866   6.258  12.754 -1.6669  0.6876  0.2553
16505TIP3   OH271005   0.280   2.814  14.715  0.3050 -0.4533  0.4305
16505TIP3    H171006   0.256   2.762  14.791  1.2571  1.5064  2.1132
16505TIP3    H271007   0.376   2.812  14.715  0.3211 -1.6939 -1.6375
16506TIP3   OH271008   3.551   6.655  16.103  0.2761  0.1701 -0.1132
16506TIP3    H171009   3.645   6.671  16.094  0.1610  1.1322  0.3747
16506TIP3    H271010   3.523   6.627  16.016  0.9921 -0.0295 -0.2844
16507TIP3   OH271011   0.740   2.431   5.347 -0.0507  0.0312  0.3247
16507TIP3    H171012   0.666   2.416   5.288 -0.5795 -0.7146  1.1495
16507TIP3    H271013   0.808   2.371   5.316  1.1541  2.5143 -1.9941
16508TIP3   OH271014   3.480   0.764  11.535  0.3129 -0.5825 -0.1607
16508TIP3    H171015   3.541   0.807  11.475 -0.7484  1.0783 -0.0953
16508TIP3    H271016   3.403   0.745  11.481  0.4470 -1.6424  0.0173
16509TIP3   OH271017   4.184   0.459  13.502  0.3364  0.3383  0.2672
16509TIP3    H171018   4.094   0.430  13.490 -0.0090  1.4841 -0.0233
16509TIP3    H271019   4.229   0.384  13.540 -0.3833 -0.7687 -1.0273
16510TIP3   OH271020   3.408   6.412   5.126 -0.0820  0.3234  0.1792
16510TIP3    H171021   3.467   6.338   5.139 -1.0047 -0.3459  0.6298
16510TIP3    H271022   3.458   6.488   5.155  1.5290  0.1333 -1.9412
16511TIP3   OH271023   3.815   4.153   5.739 -0.3025  0.4204 -0.3156
16511TIP3    H171024   3.814   4.225   5.803 -1.4579  1.2602 -1.2376
16511TIP3    H271025   3.890   4.172   5.683 -0.3807  0.7108 -0.3249
16512TIP3   OH271026   4.931   2.345  12.985 -0.3007  0.4128  0.1734
16512TIP3    H171027   5.020   2.382  12.980 -0.6598  1.2288 -0.3355
16512TIP3    H271028   4.944   2.254  13.012  0.6297  0.7839  0.9924
16513TIP3   OH271029   0.319   5.903   0.868 -0.4039 -0.2880  0.3613
16513TIP3    H171030   0.242   5.936   0.821 -0.2080 -0.4517 -0.0828
16513TIP3    H271031   0.321   5.953   0.949  0.5449  1.6136 -0.7939
16514TIP3   OH271032   6.337   1.381   6.574 -0.1813 -0.0702 -0.1076
16514TIP3    H171033   6.380   1.431   6.504 -3.2227  0.0774 -1.9555
16514TIP3    H271034   6.336   1.440   6.649  1.0499  0.6424 -0.6350
16515TIP3   OH271035   0.358   0.259   5.050  0.0155 -0.2885  0.4431
16515TIP3    H171036   0.398   0.214   4.975 -0.7151 -0.0015 -0.1259
16515TIP3    H271037   0.266   0.235   5.047 -0.1671  0.3454  0.7957
16516TIP3   OH271038   1.852   3.307  15.259  0.1203  0.0221  0.2217
16516TIP3    H171039   1.923   3.368  15.279 -1.4648  2.6046 -1.7678
16516TIP3    H271040   1.836   3.318  15.166 -1.1011 -2.5161  0.0839
16517TIP3   OH271041   5.386   3.502  14.869 -0.0875  0.3582 -0.1563
16517TIP3    H171042   5.397   3.592  14.900  1.5686  0.1334 -0.0683
16517TIP3    H271043   5.383   3.510  14.773  2.1138  0.3193 -0.2501
16518TIP3   OH271044   2.685   2.196  16.092 -0.4981 -0.3736 -0.1860
16518TIP3    H171045   2.687   2.257  16.165  0.1675  0.8013 -1.1611
16518TIP3    H271046   2.674   2.110  16.132 -0.2835  0.2664  1.2701
16519TIP3   OH271047   3.800   0.905   1.127  0.0825 -0.4403  0.5436
16519TIP3    H171048   3.720   0.863   1.095 -0.9780  1.9572 -0.0847
16519TIP3    H271049   3.774   0.946   1.209  0.2540  1.4999 -0.3312
16520TIP3   OH271050   0.087   1.856   2.957  0.2239 -0.2456  0.8873
16520TIP3    H171051   0.163   1.915   2.949 -1.2718  1.9198  2.2725
16520TIP3    H271052   0.032   1.879   2.882  0.4597 -1.1527  0.4276
16521TIP3   OH271053   0.082   6.649   2.395 -0.1964  0.6243 -0.0656
16521TIP3    H171054   0.081   6.720   2.459  0.6657  0.2438  0.3822
16521TIP3    H271055   0.005   6.596   2.416  0.2156  0.3591  0.8346
16522TIP3   OH271056   1.909   2.597  15.117  0.9415  0.4666  0.1523
16522TIP3    H171057   1.906   2.647  15.036 -0.4376 -0.1704 -0.2204
16522TIP3    H271058   1.917   2.505  15.089  0.9062  0.2757  0.7450
16523TIP3   OH271059   6.427   5.329  15.787  0.3437 -1.0274  0.4574
16523TIP3    H171060   6.476   5.379  15.851 -0.0371 -0.1650  0.0760
16523TIP3    H271061   6.489   5.312  15.716  0.3703 -0.7852  0.4237
16524TIP3   OH271062   6.510   2.250   1.589  0.1722 -0.2625 -0.1293
16524TIP3    H171063   6.422   2.276   1.562  0.6753  1.2206 -0.4271
16524TIP3    H271064   6.496   2.191   1.663 -1.1268 -1.8610 -1.6021
16525TIP3   OH271065   4.775   5.674   3.109  0.7231 -0.4117  0.6574
16525TIP3    H171066   4.736   5.727   3.178 -0.6686 -0.9097  0.2659
16525TIP3    H271067   4.706   5.613   3.083  0.8744  0.4593 -1.8963
16526TIP3   OH271068   1.732   5.746  16.207  0.2520  0.2742  0.1680
16526TIP3    H171069   1.649   5.788  16.187  0.9775  0.6433 -2.3534
16526TIP3    H271070   1.709   5.670  16.260 -1.3786  2.0013  2.0196
16527TIP3   OH271071   0.801   2.167   5.263 -0.0974 -0.0371  0.3943
16527TIP3    H171072   0.891   2.142   5.283  0.4432  2.4516  1.2325
16527TIP3    H271073   0.791   2.147   5.171  1.5285  0.2150  0.1390
16528TIP3   OH271074   3.000   6.209   2.704  0.2571 -0.2344  0.0836
16528TIP3    H171075   3.002   6.304   2.708 -2.8265 -0.1786  1.1502
16528TIP3    H271076   2.986   6.180   2.794 -1.6013 -1.5826 -0.6130
16529TIP3   OH271077   3.717   6.740   2.293 -0.3654  0.0513 -0.2461
16529TIP3    H171078   3.675   6.778   2.369  0.0396 -0.9372  0.4930
16529TIP3    H271079   3.808   6.769   2.298 -0.1384 -0.6953  0.1265
16530TIP3   OH271080   5.754   0.256   0.911 -0.1584  0.6377 -0.5901
16530TIP3    H171081   5.667   0.227   0.939  0.0978  1.0467  0.6784
16530TIP3    H271082   5.740   0.299   0.827 -1.1591  0.5569 -0.4674
16531TIP3   OH271083   4.495   0.396  12.456 -0.1768 -0.4542 -0.1197
16531TIP3    H171084   4.535   0.429  12.376 -0.9894  3.2034  0.8772
16531TIP3    H271085   4.558   0.418  12.525 -1.0316 -0.4267  0.6724
16532TIP3   OH271086   4.724   4.738  12.947 -0.1559 -0.0193 -0.3249
16532TIP3    H171087   4.651   4.732  12.886  0.5508 -0.9540 -1.1043
16532TIP3    H271088   4.772   4.816  12.918 -1.4560  1.2651  0.9040
16533TIP3   OH271089   1.320   1.951   3.497  0.2711  0.0552 -0.8071
16533TIP3    H171090   1.339   1.945   3.591 -1.5595 -2.2355 -0.5476
16533TIP3    H271091   1.406   1.948   3.456  1.0301 -0.1714  0.7377
16534TIP3   OH271092   4.243   3.745   2.172  0.0853  0.3369 -0.5078
16534TIP3    H171093   4.217   3.675   2.233 -2.2867  3.0119  1.7090
16534TIP3    H271094   4.303   3.799   2.223 -0.4571  1.5847 -1.1892
16535TIP3   OH271095   1.765   0.462  12.307  0.1864 -0.3435  0.3656
16535TIP3    H171096   1.838   0.473  12.245  0.1346 -1.5621  0.0827
16535TIP3    H271097   1.742   0.370  12.300 -1.1600 -0.0337  0.7213
16536TIP3   OH271098   5.903   3.834   1.415  0.4784  0.4673  0.1541
16536TIP3    H171099   5.933   3.814   1.326 -1.4976 -0.1967 -0.3914
16536TIP3    H271100   5.919   3.928   1.425  0.3197  0.6344 -1.0511
16537TIP3   OH271101   0.245   2.500   1.878  0.4548 -0.3383  0.3149
16537TIP3    H171102   0.206   2.436   1.937 -0.5866  0.9355  1.0393
16537TIP3    H271103   0.203   2.485   1.794  1.3062 -1.5851  0.1033
16538TIP3   OH271104   2.219   4.446  16.322  0.0439 -0.0917  1.1385
16538TIP3    H171105   2.140   4.396  16.341 -1.8757  1.7718 -1.5364
16538TIP3    H271106   2.193   4.538  16.332  2.0011  0.5412  0.7173
16539TIP3   OH271107   3.315   2.195   2.143  0.4878 -0.5694 -0.2120
16539TIP3    H171108   3.379   2.260   2.115  0.9559 -1.2684 -0.7912
16539TIP3    H271109   3.356   2.152   2.218  0.8267 -1.1988 -0.7466
16540TIP3   OH271110   1.160   5.215   1.008 -0.1499  0.4843  0.0102
16540TIP3    H171111   1.177   5.301   0.969 -1.1106  0.0842 -1.3393
16540TIP3    H271112   1.083   5.182   0.961  0.5661 -1.3708  0.0669
16541TIP3   OH271113   1.421   3.978   2.477 -0.3792  0.0977 -0.4182
16541TIP3    H171114   1.352   3.911   2.475 -0.4999  0.1945  0.4264
16541TIP3    H271115   1.381   4.051   2.524  0.6601 -0.2472  1.0258
16542TIP3   OH271116   4.860   2.412   3.193  0.0823  0.7156  0.5110
16542TIP3    H171117   4.765   2.409   3.181 -0.0602  0.5697  1.6641
16542TIP3    H271118   4.884   2.501   3.167 -0.0506  0.0692 -1.9725
16543TIP3   OH271119   3.953   2.136  14.166  0.1985  0.3308 -0.4138
16543TIP3    H171120   3.865   2.172  14.155  0.5236  0.8430 -1.4507
16543TIP3    H271121   3.964   2.126  14.260 -2.1794 -2.7168 -0.3623
16544TIP3   OH271122   3.429   1.220  16.787 -0.2545 -0.1579 -0.4327
16544TIP3    H171123   3.411   1.239  16.879 -2.4274  0.7651 -1.0006
16544TIP3    H271124   3.386   1.291  16.739  0.6507 -0.7487 -2.1595
16545TIP3   OH271125   4.254   6.441   3.939  0.0560 -0.0244  0.0934
16545TIP3    H171126   4.214   6.501   3.877 -1.2080  1.0339  1.9325
16545TIP3    H271127   4.342   6.426   3.903  0.5910  3.2884 -0.1464
16546TIP3   OH271128   5.619   3.610   0.211  0.5531  1.1644  0.9445
16546TIP3    H171129   5.555   3.550   0.171  1.3370  1.4094 -0.7247
16546TIP3    H271130   5.572   3.693   0.219  0.4467  1.1652  0.3415
16547TIP3   OH271131   2.016   3.631  14.378  0.0713  0.7588 -0.3171
16547TIP3    H171132   1.946   3.686  14.412  0.4463  2.3212 -1.9816
16547TIP3    H271133   2.066   3.689  14.321  1.4424 -0.8992 -0.8304
16548TIP3   OH271134   3.839   4.497  16.627 -0.3954 -0.2189  0.2649
16548TIP3    H171135   3.787   4.538  16.695 -0.2353 -1.1253  0.9493
16548TIP3    H271136   3.825   4.403  16.639  0.4482 -0.4267 -0.2895
16549TIP3   OH271137   3.294   0.532   5.828 -0.4883 -0.1288 -0.6134
16549TIP3    H171138   3.317   0.467   5.761 -0.4904 -0.8529  0.0899
16549TIP3    H271139   3.354   0.605   5.811 -0.4393 -0.3369 -1.3670
16550TIP3   OH271140   0.880   5.844   3.300  0.8822 -0.5720  0.0705
16550TIP3    H171141   0.929   5.850   3.382  1.3191 -1.6114 -0.1022
16550TIP3    H271142   0.788   5.842   3.327  0.9473  0.9257  0.4231
16551TIP3   OH271143   3.501   2.483  16.236  0.0759  0.6405 -0.5377
16551TIP3    H171144   3.504   2.547  16.307 -0.0606  0.0131  0.0381
16551TIP3    H271145   3.439   2.520  16.173  0.3993  1.3222 -0.4580
16552TIP3   OH271146   1.751   0.803   4.890  0.7241 -0.1155 -0.0168
16552TIP3    H171147   1.691   0.877   4.899  1.7462  0.6985  0.1792
16552TIP3    H271148   1.696   0.731   4.857 -0.7972 -0.0045  2.1857
16553TIP3   OH271149   0.739   4.122  13.319 -0.5729  0.5478  0.2921
16553TIP3    H171150   0.734   4.171  13.401  0.5439 -0.2247  0.8350
16553TIP3    H271151   0.780   4.039  13.343  0.8891  0.7911 -1.2507
16554TIP3   OH271152   3.580   6.145  13.502 -0.3577  0.0781 -0.3066
16554TIP3    H171153   3.629   6.222  13.532  1.6052 -0.9920 -0.6740
16554TIP3    H271154   3.509   6.136  13.566  1.7099 -0.0941  2.0779
16555TIP3   OH271155   0.122   4.614  14.564 -0.2886 -0.5922 -0.1462
16555TIP3    H171156   0.181   4.544  14.591 -0.6250 -1.0597 -0.5988
16555TIP3    H271157   0.035   4.573  14.566 -0.6087  0.1273  0.6522
16556TIP3   OH271158   3.930   0.253   5.351  0.0627 -0.1712  0.5911
16556TIP3    H171159   3.947   0.314   5.280  3.1324 -0.7272  0.7571
16556TIP3    H271160   4.011   0.203   5.359 -1.2271 -2.0377  2.6177
16557TIP3   OH271161   0.317   3.436   4.323 -0.3313 -0.4568  0.0028
16557TIP3    H171162   0.272   3.484   4.393  0.2721 -0.7283  0.5890
16557TIP3    H271163   0.323   3.346   4.356  1.1564 -0.3001  0.2067
16558TIP3   OH271164   3.205   6.744  14.114 -0.0647 -0.2229  0.9159
16558TIP3    H171165   3.163   6.810  14.058  0.8705  0.0820  0.5713
16558TIP3    H271166   3.149   6.667  14.105 -0.1231 -0.0597 -0.1525
16559TIP3   OH271167   6.560   2.585   0.408  0.1140  0.3785 -0.2902
16559TIP3    H171168   6.553   2.490   0.403  0.8323  0.1839  1.9554
16559TIP3    H271169   6.500   2.617   0.340 -2.5298 -1.6086  1.0246
16560TIP3   OH271170   2.119   1.041  10.904  0.0848 -0.3587 -0.1625
16560TIP3    H171171   2.178   0.981  10.949  1.5276  1.0946 -0.0678
16560TIP3    H271172   2.154   1.047  10.815 -0.9053 -0.7766 -0.5904
16561TIP3   OH271173   5.455   5.469   1.620  0.2595 -0.1350 -0.0426
16561TIP3    H171174   5.427   5.390   1.666  0.4516 -0.6452 -0.7837
16561TIP3    H271175   5.510   5.436   1.549 -1.0137  0.5483 -1.3647
16562TIP3   OH271176   4.080   5.815  11.159  0.2341 -0.0993 -0.0793
16562TIP3    H171177   4.103   5.819  11.066  1.4032 -2.1769  0.0979
16562TIP3    H271178   3.985   5.799  11.159  0.5860 -2.3629 -0.9577
16563TIP3   OH271179   6.422   3.524  16.163 -0.0043  0.2942 -0.0083
16563TIP3    H171180   6.431   3.559  16.074 -1.9451  0.3682 -0.2033
16563TIP3    H271181   6.447   3.432  16.155  1.9555  0.8228 -0.1674
16564TIP3   OH271182   2.674   4.000   4.304 -0.1639 -0.2710  0.0990
16564TIP3    H171183   2.649   4.032   4.391 -1.2360 -1.1803  0.1401
16564TIP3    H271184   2.622   4.053   4.244 -1.8409 -1.7822  0.1614
16565TIP3   OH271185   4.179   1.620  11.198  0.1976  0.4507  0.1878
16565TIP3    H171186   4.262   1.629  11.245 -0.4985  1.7824  1.2154
16565TIP3    H271187   4.204   1.598  11.109  1.6147 -0.4592  0.7876
16566TIP3   OH271188   3.959   3.307   5.336  0.4939 -0.1205 -0.5516
16566TIP3    H171189   3.930   3.252   5.264  0.3887  1.8958 -2.1157
16566TIP3    H271190   3.878   3.335   5.380  0.1720  2.4683 -2.6186
16567TIP3   OH271191   6.194   1.942  14.590 -0.2706 -0.0558 -0.4028
16567TIP3    H171192   6.199   1.950  14.685  3.0795 -0.7715 -0.4615
16567TIP3    H271193   6.167   2.028  14.559  0.3500  0.6697  1.0867
16568TIP3   OH271194   1.839   4.524  11.325 -0.0761  0.6183  0.3372
16568TIP3    H171195   1.855   4.451  11.384 -1.9267 -0.3349 -0.3052
16568TIP3    H271196   1.791   4.486  11.252 -0.7997  2.4216 -0.1525
16569TIP3   OH271197   2.612   1.672  16.744  0.1385 -0.2542  0.0524
16569TIP3    H171198   2.583   1.581  16.745 -1.7492  0.3375  0.0471
16569TIP3    H271199   2.657   1.684  16.828  1.1606 -1.4271 -0.3287
16570TIP3   OH271200   3.158   6.507  11.765 -0.6911  0.0124 -0.2343
16570TIP3    H171201   3.196   6.429  11.725 -0.7965 -0.1833  0.0400
16570TIP3    H271202   3.065   6.486  11.774 -0.4730 -0.4142  1.1819
16571TIP3   OH271203   2.244   1.449   0.518  0.5486 -0.0961  0.0592
16571TIP3    H171204   2.261   1.530   0.469  0.4988  0.4119  0.8549
16571TIP3    H271205   2.183   1.400   0.464 -1.4919  1.6005  0.7767
16572TIP3   OH271206   5.639   3.857   1.410 -0.5297  0.0042  0.2955
16572TIP3    H171207   5.635   3.951   1.427  1.9231  1.3451 -5.5065
16572TIP3    H271208   5.731   3.834   1.422 -0.7193 -1.2147 -0.5075
16573TIP3   OH271209   2.580   6.522  15.337 -0.1072 -0.7413  0.4343
16573TIP3    H171210   2.634   6.601  15.348  0.5646 -0.8699 -1.7171
16573TIP3    H271211   2.490   6.554  15.345  0.1875  0.0697  0.5824
16574TIP3   OH271212   0.029   0.451  13.722 -0.7007 -0.0021  0.6245
16574TIP3    H171213   0.048   0.428  13.813 -0.3323  1.9754  1.0513
16574TIP3    H271214   0.113   0.479  13.686 -0.7889 -0.9936 -0.4228
16575TIP3   OH271215   5.121   2.218  11.486 -0.3326  0.2251 -0.4743
16575TIP3    H171216   5.119   2.211  11.391  0.5106 -0.9001 -0.4202
16575TIP3    H271217   5.210   2.245  11.507 -0.3412 -0.1222  0.0303
16576TIP3   OH271218   2.375   2.444  10.672 -0.1022 -0.1545 -0.2929
16576TIP3    H171219   2.336   2.531  10.661 -0.1294  0.0449  1.2473
16576TIP3    H271220   2.426   2.430  10.592 -0.9190  0.8469 -0.9990
16577TIP3   OH271221   0.676   0.244   6.211 -0.2178  0.4673 -0.8341
16577TIP3    H171222   0.672   0.339   6.198  0.1886  0.6110  0.0314
16577TIP3    H271223   0.706   0.209   6.127  1.7915  1.2957 -0.4786
16578TIP3   OH271224   4.921   1.304   1.877 -0.0440 -0.1435 -0.3383
16578TIP3    H171225   4.946   1.233   1.936 -0.7697 -0.3124 -0.2271
16578TIP3    H271226   4.995   1.364   1.880  0.6201 -0.9463 -0.5193
16579TIP3   OH271227   3.152   0.584  17.131  0.1143 -0.2375 -0.2390
16579TIP3    H171228   3.143   0.673  17.164 -1.5034 -0.6336  0.4275
16579TIP3    H271229   3.135   0.528  17.206  0.3122 -1.1178 -0.8368
16580TIP3   OH271230   6.699   6.472  12.002  0.6782 -0.0350  0.6345
16580TIP3    H171231   6.759   6.473  12.077  1.8419 -2.5289 -0.2137
16580TIP3    H271232   6.721   6.552  11.953  1.1652  0.6611  1.9702
16581TIP3   OH271233   3.457   1.437  16.147  0.1020  0.2453 -0.6864
16581TIP3    H171234   3.547   1.420  16.173 -0.2112 -0.8473 -0.3101
16581TIP3    H271235   3.404   1.378  16.200 -0.8859  1.2412 -0.5219
16582TIP3   OH271236   4.620   4.067  15.913 -0.0911  0.2495 -0.3983
16582TIP3    H171237   4.656   4.140  15.965  2.6995 -1.5580  0.2819
16582TIP3    H271238   4.673   4.066  15.833  0.9982 -2.0198  0.3174
16583TIP3   OH271239   1.716   6.701  13.301 -0.2475 -0.6242  0.1331
16583TIP3    H171240   1.812   6.711  13.302 -0.1904 -1.1811  1.2340
16583TIP3    H271241   1.701   6.624  13.247 -0.1552  0.1950 -1.0772
16584TIP3   OH271242   1.318   0.337  12.316  0.0041 -0.0619  0.6761
16584TIP3    H171243   1.256   0.376  12.376 -0.9977 -0.6006  0.0095
16584TIP3    H271244   1.370   0.410  12.283 -0.4545  0.4243  1.0371
16585TIP3   OH271245   2.692   1.429  11.927  0.1473  0.0589  0.3465
16585TIP3    H171246   2.782   1.402  11.942 -0.2947 -2.2373 -0.9576
16585TIP3    H271247   2.645   1.401  12.005 -0.0922 -1.9650 -0.5088
16586TIP3   OH271248   6.185   2.037   1.972  0.2026 -0.3763  0.0666
16586TIP3    H171249   6.123   2.104   2.002 -0.1552 -1.7655  2.4871
16586TIP3    H271250   6.188   2.050   1.877 -0.4979  2.5270  0.3724
16587TIP3   OH271251   2.618   4.444   1.892 -0.4519 -0.1552 -0.0821
16587TIP3    H171252   2.526   4.420   1.904 -0.9970  1.6484 -0.3852
16587TIP3    H271253   2.620   4.539   1.907  1.2262 -0.0490 -0.8219
16588TIP3   OH271254   3.210   6.378  13.601  0.0280 -0.3970 -0.6083
16588TIP3    H171255   3.185   6.339  13.684  0.1542  1.4866  0.3427
16588TIP3    H271256   3.305   6.374  13.600  0.1742  2.1312  0.6412
16589TIP3   OH271257   1.917   0.518   4.994  0.3611  0.1155 -0.3116
16589TIP3    H171258   2.012   0.516   5.003  0.5047  1.7721 -1.2340
16589TIP3    H271259   1.884   0.511   5.083  1.2600 -3.3928 -0.1825
16590TIP3   OH271260   2.346   2.851  14.024  0.5107  0.2847 -0.1074
16590TIP3    H171261   2.313   2.765  14.048 -1.8186  0.6589 -1.7766
16590TIP3    H271262   2.387   2.838  13.938 -0.8886  1.0351 -0.9076
16591TIP3   OH271263   5.747   3.777  10.759 -0.2198 -0.1531 -0.0317
16591TIP3    H171264   5.743   3.701  10.818  0.2438 -2.5830 -2.9856
16591TIP3    H271265   5.671   3.766  10.701  0.6370  0.8745 -1.3733
16592TIP3   OH271266   3.026   5.170  16.362 -0.7535  0.1017 -0.5442
16592TIP3    H171267   3.086   5.197  16.292  1.4337 -1.7501  0.5786
16592TIP3    H271268   3.014   5.250  16.414  2.6119 -0.0229  0.5428
16593TIP3   OH271269   6.457   0.333  16.572 -0.1052  0.7303 -0.3611
16593TIP3    H171270   6.526   0.287  16.620 -0.6657  0.2903  0.0419
16593TIP3    H271271   6.454   0.420  16.610  1.1950  1.2204 -1.3652
16594TIP3   OH271272   5.093   2.247   0.912 -0.2918  0.2082  0.7700
16594TIP3    H171273   5.038   2.319   0.881 -0.5904  0.4133  1.7554
16594TIP3    H271274   5.178   2.288   0.931 -0.4250  0.2835  1.2128
16595TIP3   OH271275   6.451   5.570   2.207  0.9765  0.0178 -0.1478
16595TIP3    H171276   6.367   5.554   2.164  1.5306 -0.5329 -1.0444
16595TIP3    H271277   6.442   5.528   2.293 -0.0214  0.8473  0.1573
16596TIP3   OH271278   3.187   4.326   4.080 -0.6173  0.2217 -0.0973
16596TIP3    H171279   3.116   4.306   4.141 -2.6743 -0.9713 -2.7744
16596TIP3    H271280   3.173   4.417   4.055  1.6436  1.5001  2.9001
16597TIP3   OH271281   5.039   3.754   2.910 -0.8260 -0.2836  0.3211
16597TIP3    H171282   5.106   3.802   2.861  0.1415  0.2849  2.1404
16597TIP3    H271283   5.088   3.694   2.966 -1.8727 -0.4485  1.0864
16598TIP3   OH271284   0.154   6.720   4.069  0.2859 -0.3139 -0.3960
16598TIP3    H171285   0.108   6.735   3.987  0.6927  2.8993 -0.0955
16598TIP3    H271286   0.247   6.727   4.047  0.4200 -0.1776  0.1979
16599TIP3   OH271287   3.285   4.060   1.149 -0.1602 -0.3662 -0.1694
16599TIP3    H171288   3.252   4.147   1.129 -0.2627 -0.8464 -2.1905
16599TIP3    H271289   3.380   4.068   1.145 -0.2041 -0.8492 -2.6833
16600TIP3   OH271290   5.094   6.283  12.057  0.2638  0.4983 -0.2465
16600TIP3    H171291   5.073   6.190  12.059  2.1967  0.0420 -0.6252
16600TIP3    H271292   5.109   6.306  12.149 -0.0221  0.4051 -0.1741
16601TIP3   OH271293   4.370   5.442  11.290 -0.3644  0.0286 -0.0990
16601TIP3    H171294   4.330   5.381  11.228  0.3710 -0.0591 -0.4946
16601TIP3    H271295   4.464   5.424  11.284 -0.4013 -1.2032  2.3119
16602TIP3   OH271296   2.822   3.291   5.869 -0.2605  0.0728  0.5098
16602TIP3    H171297   2.727   3.291   5.870 -0.3062  2.4027 -0.7361
16602TIP3    H271298   2.847   3.207   5.908 -2.8189 -0.9142  0.0737
16603TIP3   OH271299   2.683   3.146  11.594  0.0999 -0.0601  0.0096
16603TIP3    H171300   2.749   3.127  11.527  3.4848 -1.9886  3.6763
16603TIP3    H271301   2.717   3.223  11.640 -1.2823  0.1788  0.6545
16604TIP3   OH271302   6.778   1.755   1.751 -0.5516 -0.5340  0.2470
16604TIP3    H171303   6.787   1.810   1.829  0.5491  1.8281 -1.5028
16604TIP3    H271304   6.702   1.791   1.705  1.0814  0.5144 -1.6739
16605TIP3   OH271305   4.928   3.015   2.203 -0.2788  0.4521  0.1520
16605TIP3    H171306   4.839   3.045   2.222 -0.0485  1.1740  0.1033
16605TIP3    H271307   4.984   3.086   2.235  0.2612  0.1529 -0.1386
16606TIP3   OH271308   4.875   0.873   5.428 -0.0471  0.1404  0.3270
16606TIP3    H171309   4.830   0.943   5.383 -0.5447 -0.8950 -0.8131
16606TIP3    H271310   4.842   0.793   5.388  1.0848 -0.7193  1.0589
16607TIP3   OH271311   4.203   5.601   0.847  0.7303  0.7019  0.4885
16607TIP3    H171312   4.155   5.586   0.766 -0.1276  0.2953  1.0636
16607TIP3    H271313   4.245   5.518   0.866  0.4862  0.6345  0.7442
16608TIP3   OH271314   2.534   3.045   1.038  0.1827 -0.1228  0.2431
16608TIP3    H171315   2.462   2.988   1.067  1.7051 -1.8073  0.7613
16608TIP3    H271316   2.528   3.045   0.943 -0.1406 -0.7213  0.2637
16609TIP3   OH271317   4.022   6.623   1.463 -0.3855  0.1402  0.3457
16609TIP3    H171318   3.944   6.668   1.430  0.8168  2.0245 -0.0259
16609TIP3    H271319   4.090   6.691   1.462  1.4983 -1.7244 -0.2590
16610TIP3   OH271320   2.143   5.388  15.344  0.6588 -0.7777  0.3961
16610TIP3    H171321   2.116   5.449  15.276  2.4044 -0.7524 -0.2949
16610TIP3    H271322   2.178   5.313  15.296 -1.7240 -2.4764  1.2262
16611TIP3   OH271323   5.744   3.319  10.796 -0.4745  0.4706 -0.8165
16611TIP3    H171324   5.743   3.305  10.891 -3.8120 -0.0225 -0.8577
16611TIP3    H271325   5.761   3.413  10.786  1.0583  0.3274  0.1937
16612TIP3   OH271326   5.857   2.818  12.407 -0.0656  0.1146 -0.0818
16612TIP3    H171327   5.778   2.870  12.396  1.1522  1.7172 -1.4177
16612TIP3    H271328   5.894   2.847  12.491 -2.1906 -2.4761  1.8555
16613TIP3   OH271329   1.084   0.136  14.901 -0.2430  0.2575  0.0572
16613TIP3    H171330   1.065   0.064  14.841  0.3178 -0.1795  0.3952
16613TIP3    H271331   1.128   0.094  14.975 -1.2928  0.7320  0.9558
16614TIP3   OH271332   6.114   2.536  16.434  0.2420  0.5094 -0.0087
16614TIP3    H171333   6.185   2.515  16.495  0.6915  1.4401 -0.2039
16614TIP3    H271334   6.106   2.631  16.439 -0.7290  0.4444 -0.2883
16615TIP3   OH271335   0.922   1.924   1.665 -0.2899  0.4597  0.0493
16615TIP3    H171336   0.964   1.888   1.586 -0.8715  1.6613 -0.8230
16615TIP3    H271337   0.924   1.853   1.728 -0.3800 -0.7234 -1.2674
16616TIP3   OH271338   4.281   1.222  14.540  0.3638 -0.0861  0.6343
16616TIP3    H171339   4.216   1.283  14.504 -0.1830 -1.5951 -1.0564
16616TIP3    H271340   4.240   1.187  14.619 -1.2360 -1.5271 -0.7754
16617TIP3   OH271341   3.921   4.713   1.910 -0.6226 -0.0879 -0.6354
16617TIP3    H171342   3.843   4.750   1.952 -0.8325 -1.2700  0.0445
16617TIP3    H271343   3.887   4.650   1.848 -0.1766 -2.8197  1.7792
16618TIP3   OH271344   4.615   5.954   0.507  0.2142  0.0797  0.0097
16618TIP3    H171345   4.618   6.043   0.473  1.1161  0.4621  1.0617
16618TIP3    H271346   4.532   5.919   0.475 -0.6554  1.6557  0.4580
16619TIP3   OH271347   6.636   5.386   5.156  0.0418  0.0805 -0.2056
16619TIP3    H171348   6.682   5.463   5.190 -1.4812 -0.0797  2.2474
16619TIP3    H271349   6.672   5.313   5.206 -0.4918 -0.4737 -0.6295
16620TIP3   OH271350   1.665   0.360  15.783  0.4074  0.1909 -0.4416
16620TIP3    H171351   1.580   0.336  15.746 -0.2118  1.7452 -0.0685
16620TIP3    H271352   1.659   0.333  15.875  0.8720 -1.0265 -0.7569
16621TIP3   OH271353   2.193   5.671   0.389  0.3210 -0.1006  0.4769
16621TIP3    H171354   2.207   5.693   0.481  2.1792 -0.3232  0.2686
16621TIP3    H271355   2.265   5.612   0.367  0.2124  0.3825 -1.2630
16622TIP3   OH271356   4.231   2.332  11.420  0.0202  0.9280  0.6392
16622TIP3    H171357   4.143   2.322  11.457 -0.2316  0.1075 -0.1382
16622TIP3    H271358   4.282   2.260  11.458 -0.6417 -0.8626 -1.6804
16623TIP3   OH271359   6.046   0.918  14.529 -0.0796 -0.1022  0.7959
16623TIP3    H171360   5.976   0.969  14.489  0.2577 -2.6524 -3.3296
16623TIP3    H271361   6.126   0.966  14.509 -0.0902 -0.4396 -0.0943
16624TIP3   OH271362   6.739   4.829  12.173 -0.3664  0.7872  0.5228
16624TIP3    H171363   6.785   4.752  12.207 -0.2576  1.2619  1.4711
16624TIP3    H271364   6.665   4.793  12.125 -0.3497  0.0856  1.0134
16625TIP3   OH271365   3.486   5.691   5.533  0.5301 -0.1967 -0.1609
16625TIP3    H171366   3.460   5.620   5.592  0.2054 -0.1650 -0.2642
16625TIP3    H271367   3.510   5.763   5.590 -2.6015  0.8431 -0.0907
16626TIP3   OH271368   1.072   1.659  13.126  0.4132 -0.2447 -0.1497
16626TIP3    H171369   1.044   1.731  13.069 -0.3729  1.7797  2.6543
16626TIP3    H271370   0.996   1.602  13.132  0.4994 -0.4675 -1.0824
16627TIP3   OH271371   0.391   1.701   1.331 -0.0477 -0.0708 -0.2984
16627TIP3    H171372   0.300   1.704   1.360 -0.3211  0.0801 -1.1935
16627TIP3    H271373   0.387   1.684   1.237  0.8505 -0.2304 -0.3171
16628TIP3   OH271374   2.018   0.952  15.509 -0.1631 -0.1747 -0.2102
16628TIP3    H171375   1.997   0.907  15.591 -0.8347  0.6596  0.0748
16628TIP3    H271376   1.933   0.976  15.472  0.1658  0.0978 -0.8019
16629TIP3   OH271377   3.685   6.008   4.001  0.3990 -0.3579 -0.6413
16629TIP3    H171378   3.727   5.922   4.004  0.0430 -0.6080 -2.2951
16629TIP3    H271379   3.755   6.069   4.024  0.6496 -1.0758  0.5478
16630TIP3   OH271380   0.540   0.776   3.657  0.3221 -0.3895  0.5932
16630TIP3    H171381   0.563   0.868   3.643 -0.2862  0.0055  2.0336
16630TIP3    H271382   0.615   0.727   3.625  0.7116  0.6225 -0.0679
16631TIP3   OH271383   3.069   3.380   5.410 -0.4787 -0.2606  0.1661
16631TIP3    H171384   3.017   3.319   5.358 -0.4672 -0.2775  0.1744
16631TIP3    H271385   3.005   3.438   5.450 -0.5523 -0.7666  0.8043
16632TIP3   OH271386   4.980   0.371  14.769  0.1295  0.0557  0.2011
16632TIP3    H171387   4.948   0.364  14.859 -2.4160  1.2665 -0.5926
16632TIP3    H271388   5.031   0.291  14.756 -0.7469 -0.8573  2.2074
16633TIP3   OH271389   3.314   5.553  13.193  0.4115 -0.1865 -0.4976
16633TIP3    H171390   3.331   5.567  13.286  0.5149 -1.1478 -0.3679
16633TIP3    H271391   3.307   5.641  13.156 -0.1976  0.1970  0.5187
16634TIP3   OH271392   5.296   3.734  11.456 -0.0556 -0.0280  0.1300
16634TIP3    H171393   5.348   3.808  11.490  0.3647 -0.0838 -0.3785
16634TIP3    H271394   5.255   3.696  11.534  0.4732  0.1703  0.5163
16635TIP3   OH271395   2.615   6.689   1.011  0.1369 -0.3411 -0.1519
16635TIP3    H171396   2.601   6.637   0.932 -1.3823 -0.5545  0.2416
16635TIP3    H271397   2.675   6.636   1.064 -0.5060 -1.1845 -0.2530
16636TIP3   OH271398   6.617   1.338   4.502  0.1946 -0.4682 -0.2660
16636TIP3    H171399   6.593   1.258   4.549 -0.4425 -0.5967 -0.7895
16636TIP3    H271400   6.655   1.395   4.569 -1.8097 -0.1723  0.6757
16637TIP3   OH271401   6.456   2.735   1.917 -0.1420  0.0691  0.3075
16637TIP3    H171402   6.489   2.665   1.972 -0.8304 -0.2965  0.2671
16637TIP3    H271403   6.487   2.714   1.829  1.3219  0.8837  0.6106
16638TIP3   OH271404   0.183   0.396  15.902 -0.0056  0.1325 -0.3896
16638TIP3    H171405   0.089   0.376  15.902 -0.0040  0.1224 -0.0709
16638TIP3    H271406   0.222   0.330  15.959  0.1810  0.2078 -0.4281
16639TIP3   OH271407   3.352   5.829   4.301 -0.5692  0.1174 -0.0592
16639TIP3    H171408   3.324   5.829   4.392 -0.0952  0.6390  0.0876
16639TIP3    H271409   3.421   5.763   4.296  1.1149  1.7908  0.4976
16640TIP3   OH271410   4.327   0.221   2.977  0.3679 -0.1025 -0.3413
16640TIP3    H171411   4.321   0.270   3.058 -0.2707 -0.1090 -0.3849
16640TIP3    H271412   4.240   0.183   2.965  0.5748 -0.4324 -0.8177
16641TIP3   OH271413   0.354   2.166   1.356  0.2400 -0.7707 -0.1301
16641TIP3    H171414   0.271   2.119   1.360 -0.0032 -0.2630  1.1264
16641TIP3    H271415   0.374   2.187   1.448  0.9929  0.4197 -0.5493
16642TIP3   OH271416   5.155   2.715  16.358  0.5589  0.0638  0.7532
16642TIP3    H171417   5.214   2.694  16.430  0.8954  1.0117  0.7625
16642TIP3    H271418   5.145   2.810  16.362  0.2945  0.0869 -0.2258
16643TIP3   OH271419   1.565   0.776  14.648  0.1697  0.3613  0.0092
16643TIP3    H171420   1.619   0.750  14.723 -0.0592 -0.7495 -0.2070
16643TIP3    H271421   1.611   0.741  14.572 -0.9619 -0.8032 -0.1635
16644TIP3   OH271422   6.290   0.178  15.226  0.0847 -0.3667  0.0706
16644TIP3    H171423   6.214   0.125  15.251  0.4879 -1.9495 -1.9169
16644TIP3    H271424   6.358   0.114  15.206  0.0136  0.7778 -4.1899
16645TIP3   OH271425   2.015   5.365   1.385 -0.1995 -0.8827 -0.4492
16645TIP3    H171426   2.081   5.410   1.332  0.6253  0.2314  1.4879
16645TIP3    H271427   1.955   5.327   1.321  1.7755 -1.1113 -2.2389
16646TIP3   OH271428   6.144   6.325  11.359 -0.5254 -0.1327  0.2146
16646TIP3    H171429   6.220   6.289  11.404  0.0192 -0.1721 -0.7118
16646TIP3    H271430   6.080   6.340  11.428  0.2667 -0.2407  0.9859
16647TIP3   OH271431   4.747   6.523  14.090 -0.4333  0.3930 -0.4049
16647TIP3    H171432   4.806   6.575  14.145 -0.0013 -0.6409  0.1095
16647TIP3    H271433   4.664   6.523  14.137 -0.4888  0.7735 -0.5009
16648TIP3   OH271434   0.941   6.645  15.103 -0.5638  0.3342 -0.4509
16648TIP3    H171435   1.012   6.592  15.068  0.4246  1.9213 -0.8898
16648TIP3    H271436   0.874   6.642  15.035 -0.5589 -0.4289 -0.4248
16649TIP3   OH271437   3.706   1.627  14.120  0.4666 -0.1632  0.1148
16649TIP3    H171438   3.672   1.716  14.111 -0.2230 -0.6232 -1.8774
16649TIP3    H271439   3.796   1.633  14.088  0.3920 -0.2123 -0.1008
16650TIP3   OH271440   2.781   5.602   2.015 -0.0483 -0.5986  0.6695
16650TIP3    H171441   2.720   5.639   1.951  0.7804  0.3337  0.4131
16650TIP3    H271442   2.731   5.601   2.097 -1.4941 -2.8187 -0.1795
16651TIP3   OH271443   0.234   1.503  16.627 -0.4916  0.1221 -0.0313
16651TIP3    H171444   0.182   1.482  16.549 -1.6829  0.9371  0.5320
16651TIP3    H271445   0.261   1.594  16.613 -2.3603  0.9312  1.3983
16652TIP3   OH271446   3.187   5.136  16.786  0.2123 -0.3743 -0.1588
16652TIP3    H171447   3.249   5.088  16.731  2.6472  0.8354  1.4712
16652TIP3    H271448   3.104   5.132  16.738  1.4530 -2.2979 -2.2140
16653TIP3   OH271449   6.664   0.452  16.903 -0.5050  0.7426  0.3331
16653TIP3    H171450   6.664   0.526  16.843 -0.9400  0.0052 -0.5888
16653TIP3    H271451   6.590   0.469  16.962 -2.3463 -0.3054 -1.5936
16654TIP3   OH271452   1.266   4.895  14.275 -0.4010 -0.0597  0.5289
16654TIP3    H171453   1.206   4.827  14.245  0.0243 -0.4736  0.6139
16654TIP3    H271454   1.290   4.869  14.364  1.8772 -1.2637 -0.3907
16655TIP3   OH271455   1.833   1.859   2.265 -0.1177  0.0538 -0.3077
16655TIP3    H171456   1.901   1.859   2.332  0.1536 -0.3423 -0.5788
16655TIP3    H271457   1.824   1.950   2.239  0.1539  0.1372 -0.1089
16656TIP3   OH271458   4.225   0.763   3.210  0.2700 -0.6570  0.4145
16656TIP3    H171459   4.294   0.778   3.274  0.5137  0.7021 -0.1495
16656TIP3    H271460   4.265   0.708   3.143  0.5374 -0.6511  0.5707
16657TIP3   OH271461   2.362   3.119   4.426 -0.1833 -0.0512 -0.0826
16657TIP3    H171462   2.293   3.111   4.361 -0.3733 -1.1618  0.2292
16657TIP3    H271463   2.426   3.052   4.401 -0.1405 -0.3154  0.7146
16658TIP3   OH271464   2.039   0.206  13.395  0.6115 -0.4320 -0.0838
16658TIP3    H171465   2.009   0.186  13.306  0.9859 -0.4842 -0.1992
16658TIP3    H271466   2.135   0.211  13.388  0.4783  2.5201 -0.2800
16659TIP3   OH271467   0.416   3.745   1.259  0.2434 -0.1293 -0.2987
16659TIP3    H171468   0.357   3.818   1.275  0.5312 -0.4620  2.4440
16659TIP3    H271469   0.364   3.684   1.206 -1.2214  0.4357  0.4587
16660TIP3   OH271470   1.951   1.068   1.378  0.1255 -0.0671 -0.2434
16660TIP3    H171471   1.998   1.146   1.408 -0.3246  0.7222 -1.5136
16660TIP3    H271472   1.878   1.058   1.439  1.2356 -0.5798  1.0113
16661TIP3   OH271473   3.357   0.829   2.747  0.0073  0.3271  0.4255
16661TIP3    H171474   3.359   0.862   2.657 -0.1042  1.5219  0.8525
16661TIP3    H271475   3.419   0.756   2.748 -0.2088  0.1310 -0.6908
16662TIP3   OH271476   0.550   2.480  13.427 -0.1623  0.1162 -0.3949
16662TIP3    H171477   0.592   2.548  13.479 -0.2755  0.5454 -0.8654
16662TIP3    H271478   0.621   2.443  13.375 -0.6730  2.0314 -2.4923
16663TIP3   OH271479   1.906   4.295  11.506  0.3694 -0.2498  0.3606
16663TIP3    H171480   1.955   4.213  11.495 -0.7788 -0.8615 -0.2411
16663TIP3    H271481   1.831   4.286  11.447  1.4915  2.2224 -1.5181
16664TIP3   OH271482   6.663   5.485  11.684 -0.0095  0.5148  0.1130
16664TIP3    H171483   6.638   5.458  11.773  1.0120  1.0725  0.5809
16664TIP3    H271484   6.614   5.426  11.627 -1.0091  0.4300  1.0357
16665TIP3   OH271485   4.455   6.030   5.987 -0.0585 -0.1954  0.0654
16665TIP3    H171486   4.520   6.095   5.959 -2.5951  2.3275 -0.1915
16665TIP3    H271487   4.406   6.073   6.057 -3.7729 -0.5759 -2.1535
16666TIP3   OH271488   3.787   4.289  14.937  0.2205  0.2379  0.3593
16666TIP3    H171489   3.806   4.308  15.029 -1.9310 -3.0734  1.5809
16666TIP3    H271490   3.844   4.215  14.916 -0.4948 -0.1076 -0.4136
16667TIP3   OH271491   6.565   3.027  15.901 -0.0972  0.3198  0.0322
16667TIP3    H171492   6.548   2.944  15.857 -1.0968  0.0234  0.9747
16667TIP3    H271493   6.627   3.005  15.971  0.0444  0.4689 -0.0446
16668TIP3   OH271494   3.849   1.222   1.129 -0.1034  0.5178  0.0265
16668TIP3    H171495   3.808   1.230   1.042  0.8607 -0.2635 -0.5116
16668TIP3    H271496   3.883   1.309   1.147  0.9260  0.3592 -1.0272
16669TIP3   OH271497   6.214   1.786   0.884  0.1344  0.2428 -0.5462
16669TIP3    H171498   6.238   1.700   0.918  0.9757  0.9783  0.7498
16669TIP3    H271499   6.258   1.848   0.942  0.7578  1.5368 -2.3668
16670TIP3   OH271500   3.848   0.685   5.574  0.0119  0.0197  0.1489
16670TIP3    H171501   3.765   0.658   5.533  0.0604 -0.2304  0.2194
16670TIP3    H271502   3.900   0.605   5.580  0.0861  0.0927  0.5123
16671TIP3   OH271503   1.022   0.483  14.569  0.4627 -0.4238 -0.1440
16671TIP3    H171504   1.015   0.578  14.557 -0.1629 -0.3306  0.9158
16671TIP3    H271505   1.094   0.472  14.630  1.2505 -0.7013 -1.1081
16672TIP3   OH271506   2.691   4.726  11.652 -0.1469 -0.1901  0.7254
16672TIP3    H171507   2.614   4.782  11.662 -0.3820 -0.1941 -0.8732
16672TIP3    H271508   2.733   4.758  11.572 -0.2892 -2.2967 -0.2286
16673TIP3   OH271509   1.078   4.505   4.008  0.0968  0.3073  1.0432
16673TIP3    H171510   1.114   4.448   4.076  0.5011 -1.7365 -0.8158
16673TIP3    H271511   1.151   4.562   3.983  0.4146 -0.0337  1.1941
16674TIP3   OH271512   3.626   6.119   5.248  0.7965 -0.1583  0.0722
16674TIP3    H171513   3.544   6.147   5.290  0.0228 -3.3744  0.7830
16674TIP3    H271514   3.683   6.095   5.321  1.5250 -0.2362 -0.5157
16675TIP3   OH271515   5.651   3.506  11.751 -0.2805 -0.3545 -0.5614
16675TIP3    H171516   5.634   3.568  11.823 -0.1411  1.7639 -2.3150
16675TIP3    H271517   5.563   3.485  11.718 -0.2018  0.8363 -1.5467
16676TIP3   OH271518   4.636   2.435   2.615  0.3509 -0.1198  0.1344
16676TIP3    H171519   4.682   2.355   2.641  0.4029  0.0759  0.6411
16676TIP3    H271520   4.703   2.503   2.618 -0.0696  0.2509  1.3124
16677TIP3   OH271521   5.580   2.270  11.389 -0.3028 -0.3422 -0.3578
16677TIP3    H171522   5.603   2.193  11.338 -1.9892 -1.1136  0.0164
16677TIP3    H271523   5.608   2.344  11.335  4.5997 -1.1787  0.8169
16678TIP3   OH271524   1.635   6.700  17.247  0.0360 -0.2974 -0.8645
16678TIP3    H171525   1.730   6.710  17.259  0.3043  0.5035 -3.3719
16678TIP3    H271526   1.606   6.785  17.215 -1.7165 -0.2618  0.7196
16679TIP3   OH271527   0.896   1.513   4.620  0.2588 -0.0026 -0.1841
16679TIP3    H171528   0.945   1.510   4.702  1.8395 -0.9706 -1.1346
16679TIP3    H271529   0.945   1.456   4.561 -1.3710 -0.0476 -1.5264
16680TIP3   OH271530   5.227   0.477  14.314  0.5616 -0.0126  0.0570
16680TIP3    H171531   5.184   0.561  14.303  1.2815  0.5615  1.4597
16680TIP3    H271532   5.217   0.457  14.407  1.0369 -1.1150 -0.1190
16681TIP3   OH271533   5.476   1.644  11.416 -0.0425 -0.6928  0.7502
16681TIP3    H171534   5.392   1.648  11.462 -0.9469 -0.7956 -0.8474
16681TIP3    H271535   5.499   1.735  11.400 -1.1153 -0.6970 -0.9989
16682TIP3   OH271536   6.071   1.727   0.288  0.3781 -0.5719 -0.0808
16682TIP3    H171537   6.110   1.807   0.254 -2.1357  0.7952  0.1436
16682TIP3    H271538   6.036   1.683   0.210 -0.2649 -0.2917  0.0424
16683TIP3   OH271539   4.037   6.398   4.115 -0.3060 -0.0240 -0.1680
16683TIP3    H171540   4.071   6.420   4.202  0.6549 -1.7197 -0.1045
16683TIP3    H271541   4.102   6.435   4.054 -1.3761  1.8531 -0.2214
16684TIP3   OH271542   3.317   0.177  11.315 -0.1367 -0.1648 -0.1041
16684TIP3    H171543   3.400   0.187  11.362  0.0499  0.8045 -0.6196
16684TIP3    H271544   3.343   0.141  11.230 -0.4007 -1.2392  0.2591
16685TIP3   OH271545   1.145   4.494   4.667 -0.1390 -0.2996  0.5705
16685TIP3    H171546   1.210   4.457   4.607 -0.6786 -0.3132 -0.0067
16685TIP3    H271547   1.069   4.437   4.657 -0.9037  0.8332 -0.1761
16686TIP3   OH271548   4.782   1.685   1.048  0.0852  0.0136 -0.5935
16686TIP3    H171549   4.855   1.735   1.082 -0.2147 -0.1921  0.3613
16686TIP3    H271550   4.704   1.728   1.083 -0.2668  0.2783 -1.6631
16687TIP3   OH271551   5.954   0.764  13.661  0.2389  0.2449 -0.2924
16687TIP3    H171552   6.009   0.730  13.732  0.5945  2.8729  0.7610
16687TIP3    H271553   5.876   0.797  13.706 -0.4465  0.1023 -1.3652
16688TIP3   OH271554   3.042   4.202   2.684 -0.7717 -0.2904 -0.0099
16688TIP3    H171555   3.074   4.248   2.761 -0.3981  0.1756 -0.4404
16688TIP3    H271556   3.122   4.175   2.638 -0.9670  1.9060 -1.7194
16689TIP3   OH271557   5.823   3.690   3.240 -0.7007 -0.2221 -0.0353
16689TIP3    H171558   5.788   3.773   3.206 -0.3154 -0.0985 -0.1350
16689TIP3    H271559   5.914   3.710   3.262 -1.1456 -0.1152  1.7305
16690TIP3   OH271560   1.940   6.597   5.455 -0.4799 -0.2252 -0.1104
16690TIP3    H171561   1.952   6.692   5.451 -0.7951 -0.1911 -0.2268
16690TIP3    H271562   2.008   6.562   5.397  1.4274 -0.2083  2.0785
16691TIP3   OH271563   1.471   4.410  16.297 -0.5168  0.0338 -0.2226
16691TIP3    H171564   1.540   4.461  16.341 -0.9553 -1.9939  3.0269
16691TIP3    H271565   1.507   4.391  16.211  1.7312  1.5836  0.3111
16692TIP3   OH271566   0.840   0.586   6.591  0.2800 -0.1680 -0.2614
16692TIP3    H171567   0.805   0.503   6.624 -0.5556 -0.7640 -2.5228
16692TIP3    H271568   0.763   0.633   6.560  0.6703  1.8105  1.6865
16693TIP3   OH271569   4.658   1.754   1.933  0.4755 -0.0862  0.2790
16693TIP3    H171570   4.719   1.721   1.999 -0.3318 -1.4169  0.3807
16693TIP3    H271571   4.680   1.705   1.854 -0.5775 -0.7485  0.3726
16694TIP3   OH271572   6.765   6.654  16.519  0.3463  0.2003 -0.0464
16694TIP3    H171573   6.749   6.746  16.497  1.3860  0.5769  0.7230
16694TIP3    H271574   6.759   6.608  16.435 -0.0217  0.9900 -0.4605
16695TIP3   OH271575   2.464   4.311   5.001 -0.6482  0.2769 -0.0334
16695TIP3    H171576   2.414   4.335   4.923  1.0307 -0.4924 -1.3782
16695TIP3    H271577   2.397   4.285   5.065 -2.0631  1.2349 -1.0922
16696TIP3   OH271578   1.119   6.798   1.855 -0.5883  0.1953  0.6674
16696TIP3    H171579   1.183   6.820   1.923  0.3210 -1.2127  0.2925
16696TIP3    H271580   1.143   6.852   1.781  1.5920 -1.8751 -0.2309
16697TIP3   OH271581   3.601   2.204   5.547 -0.0047  0.0446  0.4974
16697TIP3    H171582   3.514   2.218   5.510  0.4777 -0.2225 -0.7673
16697TIP3    H271583   3.612   2.274   5.611 -1.9002 -1.0269  2.0567
16698TIP3   OH271584   6.654   2.693  11.581 -0.3975 -0.4436  0.3133
16698TIP3    H171585   6.625   2.704  11.672  0.2324 -2.9257  0.8597
16698TIP3    H271586   6.579   2.719  11.528  0.1118  3.6165  1.4437
16699TIP3   OH271587   5.473   3.652   2.303  0.3905  0.3485  0.1876
16699TIP3    H171588   5.558   3.681   2.269  0.2609  1.1672  0.5359
16699TIP3    H271589   5.409   3.704   2.254  0.2207  1.9375  2.0393
16700TIP3   OH271590   0.124   0.597  10.880  0.3703  0.1474 -1.0831
16700TIP3    H171591   0.072   0.517  10.875 -0.3252  0.3172  2.0605
16700TIP3    H271592   0.077   0.660  10.826 -0.7513 -0.7049 -1.1131
16701TIP3   OH271593   5.819   0.895   5.790  0.0026 -0.8360 -0.2760
16701TIP3    H171594   5.839   0.901   5.884 -1.2966  0.4404 -0.0610
16701TIP3    H271595   5.729   0.862   5.788 -0.2927  0.0180 -1.0507
16702TIP3   OH271596   0.210   0.776  17.219  0.3016  0.0128 -0.4413
16702TIP3    H171597   0.259   0.790  17.138  2.5856 -0.1574  0.8697
16702TIP3    H271598   0.142   0.713  17.195  1.4382 -0.6528 -2.0302
16703TIP3   OH271599   2.270   4.623   0.008 -0.2185  0.4897 -0.1153
16703TIP3    H171600   2.250   4.597   0.098  3.2576 -0.9230  0.3312
16703TIP3    H271601   2.286   4.541  -0.038 -4.2416  1.0288 -2.7044
16704TIP3   OH271602   5.407   5.083   2.075  0.3544  0.0535  0.0361
16704TIP3    H171603   5.404   5.007   2.017 -1.4244  1.9109 -2.3779
16704TIP3    H271604   5.318   5.093   2.108  0.4860  1.3121  0.0430
16705TIP3   OH271605   1.084   5.769  16.455  0.3834  0.8089  0.1414
16705TIP3    H171606   1.109   5.854  16.417 -1.1916  1.7169  1.0871
16705TIP3    H271607   0.988   5.774  16.462  0.4299 -0.4270  1.6726
16706TIP3   OH271608   5.954   6.755   1.808  0.7041  0.3362 -0.3181
16706TIP3    H171609   5.945   6.809   1.730  0.1578 -0.3600 -0.7448
16706TIP3    H271610   5.889   6.791   1.869  1.0139  0.7724 -0.2416
16707TIP3   OH271611   5.442   1.956  16.016  0.6491 -0.3865  0.5257
16707TIP3    H171612   5.391   1.980  16.093  0.6307 -0.2772  0.4800
16707TIP3    H271613   5.378   1.953  15.944  0.8396  0.5263  0.3076
16708TIP3   OH271614   3.350   1.803  13.681 -0.1445 -0.1918  0.3004
16708TIP3    H171615   3.263   1.815  13.719 -0.0981 -0.6993  0.5602
16708TIP3    H271616   3.381   1.719  13.715 -1.0444 -1.7953 -2.6968
16709TIP3   OH271617   2.482   1.908   5.933 -0.3953 -0.3524  0.1931
16709TIP3    H171618   2.403   1.885   5.884 -0.5205  1.5003 -0.5427
16709TIP3    H271619   2.554   1.873   5.881 -0.6666 -1.0195  0.2583
16710TIP3   OH271620   1.443   0.877  14.922 -0.1664 -0.0886 -0.5812
16710TIP3    H171621   1.408   0.944  14.981 -0.9301 -1.4871  0.5792
16710TIP3    H271622   1.367   0.847  14.872  0.2382  0.1677 -1.3511
16711TIP3   OH271623   6.346   4.642  16.318 -0.0114  0.0923  0.0740
16711TIP3    H171624   6.365   4.699  16.243 -1.2352  1.9086  1.1193
16711TIP3    H271625   6.265   4.598  16.294  0.0765 -0.0097 -0.0406
16712TIP3   OH271626   5.712   0.818  12.943 -0.7250  0.2295  0.0751
16712TIP3    H171627   5.738   0.759  12.872  1.3449  2.5726 -1.1972
16712TIP3    H271628   5.780   0.807  13.009 -2.2126 -1.3366  1.3994
16713TIP3   OH271629   3.611   6.181  14.196  0.0675 -0.0634 -0.0744
16713TIP3    H171630   3.551   6.193  14.270 -0.0198 -0.9690  0.0083
16713TIP3    H271631   3.580   6.102  14.153  3.2760 -2.6011  2.0113
16714TIP3   OH271632   5.602   6.795   1.731 -0.4571  0.5930  0.2771
16714TIP3    H171633   5.586   6.721   1.673 -1.2559  1.2204 -0.3182
16714TIP3    H271634   5.670   6.846   1.687 -1.4194  1.3325 -0.3506
16715TIP3   OH271635   4.008   4.135   0.599  0.3212  0.2251  0.5029
16715TIP3    H171636   3.994   4.216   0.550  1.1262  0.0689  0.0145
16715TIP3    H271637   3.920   4.109   0.626 -0.2121 -0.0287 -1.4049
16716TIP3   OH271638   1.842   2.558   4.313 -0.3623 -0.1011  0.1183
16716TIP3    H171639   1.792   2.617   4.369  2.0579  0.1257  2.1336
16716TIP3    H271640   1.870   2.612   4.240 -0.3539  0.5742  0.6132
16717TIP3   OH271641   5.644   2.230  14.330 -0.0715 -0.2155 -0.2992
16717TIP3    H171642   5.607   2.144  14.349  1.0073 -0.2710  1.6808
16717TIP3    H271643   5.577   2.292  14.358 -0.3955 -0.3913 -0.6850
16718TIP3   OH271644   2.575   0.161   1.220  0.6066 -0.3680 -0.6523
16718TIP3    H171645   2.530   0.244   1.236  0.6126 -0.4994  0.0627
16718TIP3    H271646   2.550   0.137   1.131 -1.0721 -0.6466 -0.1267
16719TIP3   OH271647   2.342   2.241   6.155  0.2992 -0.3344 -0.5102
16719TIP3    H171648   2.315   2.319   6.203  0.1751  0.3723 -1.6951
16719TIP3    H271649   2.321   2.261   6.064 -0.6040 -2.1319 -0.7197
16720TIP3   OH271650   0.546   3.046  17.042  0.4696  0.4829  0.1530
16720TIP3    H171651   0.610   3.043  16.971  1.2380 -0.5577  0.8834
16720TIP3    H271652   0.462   3.037  16.998  0.9788 -0.9812 -0.5518
16721TIP3   OH271653   3.007   5.728   3.041 -0.9838  0.3009 -0.5921
16721TIP3    H171654   3.076   5.767   2.988  1.0195 -3.2403 -0.7662
16721TIP3    H271655   2.943   5.696   2.978 -0.6800 -0.1673 -0.6657
16722TIP3   OH271656   2.013   0.473  13.152 -0.3553 -0.3968  0.4408
16722TIP3    H171657   1.968   0.389  13.159  2.2946 -1.7044  2.5852
16722TIP3    H271658   1.961   0.532  13.208 -0.8656 -1.2009  0.8140
16723TIP3   OH271659   2.256   4.123  10.682 -0.0548 -0.1199 -0.6179
16723TIP3    H171660   2.179   4.080  10.720  0.3023  0.5016  0.8195
16723TIP3    H271661   2.230   4.215  10.673  0.5107  0.0875 -0.1390
16724TIP3   OH271662   4.905   4.720   3.576 -0.2446 -0.2119  0.1753
16724TIP3    H171663   4.914   4.655   3.506  0.0966  0.0273 -0.0052
16724TIP3    H271664   4.811   4.730   3.588 -0.3008 -0.5304  0.0077
16725TIP3   OH271665   4.914   6.356  10.506 -0.0711  0.0763  0.6449
16725TIP3    H171666   4.902   6.272  10.463 -2.4779  0.1327  1.1609
16725TIP3    H271667   4.961   6.336  10.586 -0.5647 -0.7669  0.7232
16726TIP3   OH271668   0.074   5.209  11.614 -0.1424  0.3393 -0.1489
16726TIP3    H171669   0.057   5.248  11.700 -3.2013  1.4877 -1.2175
16726TIP3    H271670   0.101   5.119  11.634 -0.4092  0.7171  2.0314
16727TIP3   OH271671   4.998   6.486  14.268 -0.3192  0.0344 -0.6764
16727TIP3    H171672   5.079   6.535  14.256  0.5188 -1.0048  0.6784
16727TIP3    H271673   5.024   6.394  14.262 -1.4647 -0.3086 -0.6135
16728TIP3   OH271674   3.931   4.800  15.090 -0.1527 -0.1796 -0.1166
16728TIP3    H171675   4.024   4.796  15.113  0.3235  1.3310 -1.6435
16728TIP3    H271676   3.895   4.866  15.149 -0.2152 -0.6403  0.3584
16729TIP3   OH271677   5.426   3.964   4.574 -0.5229  0.2316 -0.6162
16729TIP3    H171678   5.512   3.974   4.534 -0.9075  0.3270 -1.4248
16729TIP3    H271679   5.430   3.879   4.618 -0.4157 -0.3105 -1.6611
16730TIP3   OH271680   1.126   2.790  13.521  0.8088 -0.3756  0.4259
16730TIP3    H171681   1.112   2.875  13.479 -1.4108  0.7145  3.2376
16730TIP3    H271682   1.081   2.797  13.605  0.7474 -4.2751  0.7904
16731TIP3   OH271683   0.933   2.762   0.732  0.1060  0.5796  0.6910
16731TIP3    H171684   0.898   2.776   0.644  1.3038  0.0021  0.0986
16731TIP3    H271685   0.945   2.667   0.738  2.7071  0.8554  0.3844
16732TIP3   OH271686   1.535   6.386  12.483 -0.1255  0.1651  0.2851
16732TIP3    H171687   1.600   6.373  12.414  1.3305  2.8277  1.0865
16732TIP3    H271688   1.462   6.430  12.439 -0.1863 -0.2572 -0.0374
16733TIP3   OH271689   0.128   0.757   1.928  0.0980  0.1291  0.3228
16733TIP3    H171690   0.193   0.695   1.897  0.0143  0.1930  0.0161
16733TIP3    H271691   0.067   0.767   1.854 -0.6225 -0.4250  0.8336
16734TIP3   OH271692   0.757   0.553   0.011 -0.2205  0.1697  0.3164
16734TIP3    H171693   0.738   0.593  -0.074 -0.8516  1.7167  1.1741
16734TIP3    H271694   0.845   0.584   0.033 -1.1983  2.0713  1.5503
16735TIP3   OH271695   0.260   1.170   5.869 -0.1991  0.4809 -0.1772
16735TIP3    H171696   0.332   1.139   5.924  1.0558  1.2180 -1.3804
16735TIP3    H271697   0.265   1.265   5.874 -0.8690  0.5378 -0.5544
16736TIP3   OH271698   0.366   4.977   0.981  0.9079  0.0759 -0.4761
16736TIP3    H171699   0.416   5.018   0.911  2.3357 -3.8765 -1.9195
16736TIP3    H271700   0.431   4.951   1.046  0.1220 -0.3459  0.1631
16737TIP3   OH271701   4.594   3.142   0.037  0.3874  0.9446 -0.0574
16737TIP3    H171702   4.613   3.200   0.111 -1.0700  0.5016  0.6644
16737TIP3    H271703   4.500   3.151   0.022  0.5195  0.3739 -1.3130
16738TIP3   OH271704   5.897   1.616  15.374  0.7544  0.4097  0.4952
16738TIP3    H171705   5.926   1.661  15.453  0.9943 -0.0043  0.6435
16738TIP3    H271706   5.802   1.621  15.378  0.7781  0.9989  0.4527
16739TIP3   OH271707   6.113   2.915   3.423 -0.0041  0.3950 -0.3964
16739TIP3    H171708   6.099   2.987   3.362 -1.1637  0.9272  0.4866
16739TIP3    H271709   6.112   2.956   3.510  1.7398 -0.3322 -0.0061
16740TIP3   OH271710   3.558   3.229   2.917  0.2274  0.2368  0.6513
16740TIP3    H171711   3.624   3.294   2.893 -0.1616  0.1796 -0.5939
16740TIP3    H271712   3.585   3.150   2.871 -1.7162  0.6996 -1.3415
16741TIP3   OH271713   4.978   6.555   3.505  0.3779 -0.1458 -0.0795
16741TIP3    H171714   5.020   6.470   3.491  0.1816  0.1425 -2.6965
16741TIP3    H271715   5.031   6.616   3.454 -0.1586  1.1366  0.8596
16742TIP3   OH271716   0.707   2.384   4.107  0.0940  0.1261  0.1808
16742TIP3    H171717   0.682   2.415   4.020 -1.7712  0.2042  0.7206
16742TIP3    H271718   0.646   2.312   4.126  0.7699 -0.1857  1.2383
16743TIP3   OH271719   0.218   1.090   2.147 -0.2303 -0.4130  0.4298
16743TIP3    H171720   0.251   1.093   2.237 -1.5515 -0.5537  0.9306
16743TIP3    H271721   0.134   1.137   2.151  0.0913  0.2906 -0.8965
16744TIP3   OH271722   5.507   6.644   6.618  0.3532 -0.0966 -0.4279
16744TIP3    H171723   5.534   6.721   6.668 -1.3934  1.3448 -1.6158
16744TIP3    H271724   5.587   6.594   6.605  1.1462  0.4078  2.2399
16745TIP3   OH271725   3.403   5.107  16.588  0.8213  0.1225  0.1617
16745TIP3    H171726   3.350   5.184  16.566 -0.1342 -0.3929  0.6408
16745TIP3    H271727   3.492   5.132  16.563  0.5513  1.4581  0.4692
16746TIP3   OH271728   5.180   6.488   3.247  0.2578 -0.1178  0.0939
16746TIP3    H171729   5.259   6.439   3.269  1.1559  1.9110  1.4176
16746TIP3    H271730   5.108   6.430   3.273  1.2645 -1.6721 -0.4663
16747TIP3   OH271731   6.721   4.363   3.571 -0.1194  0.0711 -0.0291
16747TIP3    H171732   6.688   4.440   3.617 -0.0908  1.1245 -1.7101
16747TIP3    H271733   6.816   4.374   3.572 -0.1517  0.4216 -0.8896
16748TIP3   OH271734   0.339   0.248  13.319  0.8103  0.1381  0.3565
16748TIP3    H171735   0.419   0.297  13.299  0.0834  0.8820 -0.7565
16748TIP3    H271736   0.335   0.181  13.251  0.6099 -0.0461  0.5489
16749TIP3   OH271737   6.252   5.329   5.252 -0.1617  0.3222  0.0571
16749TIP3    H171738   6.212   5.413   5.228 -0.2391 -0.5686 -3.2034
16749TIP3    H271739   6.178   5.274   5.280 -0.6084  0.1844 -1.3703
16750TIP3   OH271740   0.675   0.007   6.358  0.0608  0.1278  0.3125
16750TIP3    H171741   0.678   0.072   6.288  1.1091 -1.7838 -1.5053
16750TIP3    H271742   0.590   0.019   6.399 -0.7127  1.0830 -1.5195
16751TIP3   OH271743   1.353   4.052  14.739  0.0345  0.1540 -0.2344
16751TIP3    H171744   1.404   4.058  14.658  0.6091 -0.0271  0.1142
16751TIP3    H271745   1.391   3.978  14.786 -2.8284 -2.2531 -1.5615
16752TIP3   OH271746   4.605   4.812  13.921  0.1287 -0.3635 -0.0569
16752TIP3    H171747   4.690   4.812  13.877 -1.2446 -0.2436 -2.8211
16752TIP3    H271748   4.598   4.724  13.959  1.4881 -0.3528  0.2554
16753TIP3   OH271749   2.389   5.243  12.695 -0.3295 -0.2888  0.1299
16753TIP3    H171750   2.334   5.204  12.626  0.6135 -0.1827 -0.6948
16753TIP3    H271751   2.478   5.239  12.659  0.0753  0.4204  1.0536
16754TIP3   OH271752   2.683   3.066   2.420  0.2073  0.1344  0.3852
16754TIP3    H171753   2.717   3.051   2.332 -3.9812  0.7814 -1.4878
16754TIP3    H271754   2.670   2.978   2.456  1.5832 -0.1420  0.2371
16755TIP3   OH271755   6.299   3.366  16.840  0.2940  0.3346  0.5461
16755TIP3    H171756   6.368   3.344  16.902  0.0628 -1.4612  0.2125
16755TIP3    H271757   6.236   3.294  16.849 -1.2834  1.6830  0.4882
16756TIP3   OH271758   3.658   0.938   2.735 -0.4681 -0.0217 -0.3882
16756TIP3    H171759   3.725   0.960   2.800  0.5083  1.3415 -1.8307
16756TIP3    H271760   3.680   0.849   2.708  1.6378  0.9264 -1.8848
16757TIP3   OH271761   0.363   3.314  11.803 -0.4235  0.4156  0.4753
16757TIP3    H171762   0.291   3.353  11.852 -1.5676 -2.9333  1.5465
16757TIP3    H271763   0.427   3.290  11.870  0.7817  1.4540 -0.2818
16758TIP3   OH271764   2.763   6.361  10.966  0.1294  0.7109 -0.1304
16758TIP3    H171765   2.734   6.418  10.894  2.8207 -0.3282 -2.1359
16758TIP3    H271766   2.849   6.329  10.938 -0.0262 -2.0325  2.2775
16759TIP3   OH271767   4.809   3.710   0.105 -0.5267 -0.4075 -0.3743
16759TIP3    H171768   4.902   3.699   0.126 -0.2712 -0.0768 -1.2870
16759TIP3    H271769   4.766   3.723   0.190  0.3912  0.3631 -0.0136
16760TIP3   OH271770   1.031   3.239  13.832  0.5516  0.0354  0.5728
16760TIP3    H171771   0.943   3.201  13.831  0.9431 -0.8667 -0.0251
16760TIP3    H271772   1.056   3.237  13.924  0.2120 -0.3258  0.6617
16761TIP3   OH271773   2.010   4.660   1.392 -0.4944 -0.5337  0.3005
16761TIP3    H171774   2.021   4.620   1.478 -1.1673 -1.7944 -0.1886
16761TIP3    H271775   1.915   4.663   1.379 -0.5032  2.1517  0.7449
16762TIP3   OH271776   1.800   5.961  11.788 -0.1382  0.5012  0.1766
16762TIP3    H171777   1.745   5.933  11.714  0.1738  0.5589 -0.0798
16762TIP3    H271778   1.852   5.883  11.810  0.1860  0.6576 -0.0425
16763TIP3   OH271779   5.882   1.920  14.538 -0.3577  0.6996  0.1606
16763TIP3    H171780   5.951   1.860  14.565 -0.3405  0.9081  0.5732
16763TIP3    H271781   5.927   2.002  14.518 -0.6285  1.2021  1.5930
16764TIP3   OH271782   0.693   6.558  16.797 -0.4885  0.4427  0.4438
16764TIP3    H171783   0.719   6.600  16.715 -1.1187  1.0632  0.5593
16764TIP3    H271784   0.773   6.557  16.850 -0.3284  0.9925  0.2190
16765TIP3   OH271785   3.515   4.153   5.617 -0.7677 -0.2958 -0.7229
16765TIP3    H171786   3.508   4.087   5.548 -1.3797  0.8996 -1.8329
16765TIP3    H271787   3.576   4.218   5.583 -0.7766  0.1198  0.0275
16766TIP3   OH271788   0.133   1.233  13.088 -0.0224 -0.0647 -0.5316
16766TIP3    H171789   0.205   1.293  13.067  0.1716  0.4142  1.4400
16766TIP3    H271790   0.176   1.149  13.105 -0.1391 -0.3324 -1.5096
16767TIP3   OH271791   5.934   2.689   3.497  0.2788  0.1938 -0.3674
16767TIP3    H171792   6.005   2.658   3.441  0.4849  0.6724 -0.3684
16767TIP3    H271793   5.925   2.782   3.476 -1.5816 -0.2638 -1.7233
16768TIP3   OH271794   3.531   4.654  16.575  0.0755  0.3117  0.8014
16768TIP3    H171795   3.599   4.721  16.574 -0.4770  0.9974 -4.1650
16768TIP3    H271796   3.449   4.703  16.568 -0.4868 -0.7123  0.0365
16769TIP3   OH271797   3.447   0.882   5.531 -0.2158  0.0883  0.3521
16769TIP3    H171798   3.384   0.937   5.484 -0.2253 -0.0037  0.2545
16769TIP3    H271799   3.514   0.861   5.465  1.3056  2.3208  1.1409
16770TIP3   OH271800   3.385   3.165   4.383 -0.4990  0.0897  0.0683
16770TIP3    H171801   3.411   3.154   4.475 -0.1537 -0.1113 -0.0556
16770TIP3    H271802   3.414   3.253   4.360  1.0808 -0.5432 -0.4091
16771TIP3   OH271803   5.729   5.325  17.081 -0.1322  0.1047 -0.2871
16771TIP3    H171804   5.707   5.239  17.115  0.2935  0.2695  0.4114
16771TIP3    H271805   5.816   5.315  17.042 -0.5086 -0.0208 -1.1087
16772TIP3   OH271806   6.568   0.581   4.340 -0.1195  0.3849  0.2921
16772TIP3    H171807   6.660   0.575   4.365 -0.0458  0.5616  0.0695
16772TIP3    H271808   6.567   0.558   4.247 -0.5144 -1.2616  0.6861
16773TIP3   OH271809   1.931   2.519   4.827 -0.0694  0.4292 -0.9225
16773TIP3    H171810   1.902   2.458   4.895 -1.1075  2.0302  0.1135
16773TIP3    H271811   2.019   2.544   4.852 -0.9780  2.1343  0.6762
16774TIP3   OH271812   1.600   2.002   4.170  0.0179  0.0648  0.1921
16774TIP3    H171813   1.558   2.088   4.178 -0.0317  0.0968 -0.3454
16774TIP3    H271814   1.690   2.022   4.145 -0.1556 -0.0482 -0.5515
16775TIP3   OH271815   4.145   6.790  11.211 -0.4920  0.3460  0.3889
16775TIP3    H171816   4.215   6.843  11.173 -1.1945  1.3033  0.3898
16775TIP3    H271817   4.170   6.781  11.303 -1.8484  3.3034  1.1340
16776TIP3   OH271818   1.704   5.760  15.808  0.2119  0.4743 -0.2553
16776TIP3    H171819   1.690   5.825  15.877  1.2780  2.6941 -2.0240
16776TIP3    H271820   1.630   5.700  15.816 -0.9227  2.0204  1.3456
16777TIP3   OH271821   3.870   0.764  11.643  0.2685  0.3437  0.1071
16777TIP3    H171822   3.936   0.828  11.618 -1.6414  2.3463 -0.0517
16777TIP3    H271823   3.870   0.700  11.572  1.3436  0.8613 -0.3731
16778TIP3   OH271824   0.318   0.396  10.742 -0.4459  0.2566 -0.8617
16778TIP3    H171825   0.325   0.312  10.788 -0.8257  0.9411  0.4923
16778TIP3    H271826   0.258   0.379  10.670 -0.9573 -0.5077 -0.2665
16779TIP3   OH271827   0.650   4.349   1.371  1.0005  0.3933 -0.3638
16779TIP3    H171828   0.592   4.371   1.444  1.4367  1.4795 -0.3238
16779TIP3    H271829   0.735   4.332   1.411  0.6216 -1.5895 -0.3873
16780TIP3   OH271830   3.590   4.072   4.898 -0.4678  0.2509  0.1209
16780TIP3    H171831   3.566   4.039   4.812 -0.2300  0.1021  0.1111
16780TIP3    H271832   3.541   4.154   4.907 -0.1108  0.5161 -0.3553
16781TIP3   OH271833   6.799   4.519   1.078 -0.3380 -0.4661 -0.6690
16781TIP3    H171834   6.850   4.537   0.999  0.3246  1.6548  0.1959
16781TIP3    H271835   6.790   4.605   1.120 -1.8013 -1.3647  0.8800
16782TIP3   OH271836   4.756   6.004   5.377 -0.0891  0.1069 -0.1486
16782TIP3    H171837   4.685   5.977   5.318 -0.3751  0.1887  0.1577
16782TIP3    H271838   4.791   5.921   5.410 -0.0073  0.0643 -0.3424
16783TIP3   OH271839   3.827   1.740  15.543 -0.0788 -0.4690 -0.0659
16783TIP3    H171840   3.896   1.806  15.539 -0.1933 -0.3577 -0.2385
16783TIP3    H271841   3.841   1.695  15.626  0.8361 -1.1479 -0.5849
16784TIP3   OH271842   5.014   3.986   6.071  0.0480 -0.0309 -0.0537
16784TIP3    H171843   5.059   4.018   6.150  1.8784 -1.3428 -0.5287
16784TIP3    H271844   4.986   3.897   6.094  1.1457 -0.6568 -1.0702
16785TIP3   OH271845   4.760   3.822  15.741 -0.4141  0.3661 -0.2229
16785TIP3    H171846   4.786   3.764  15.813 -0.1651  0.7962  0.0339
16785TIP3    H271847   4.698   3.769  15.690 -2.4293  0.8356  1.6000
16786TIP3   OH271848   1.645   6.165   4.972  0.0861  0.3153 -0.4375
16786TIP3    H171849   1.580   6.200   4.910 -0.1811 -0.7575 -0.7827
16786TIP3    H271850   1.653   6.072   4.947  1.8332  0.4642 -0.4717
16787TIP3   OH271851   5.227   6.551  16.900  0.0622  0.0234  0.6569
16787TIP3    H171852   5.162   6.507  16.955 -0.5998 -0.8058 -0.7854
16787TIP3    H271853   5.292   6.484  16.880  0.1152  0.2352  0.1110
16788TIP3   OH271854   2.590   2.905  10.865 -0.4633 -0.0149 -0.7411
16788TIP3    H171855   2.628   2.992  10.871  1.0595 -0.6964 -0.0102
16788TIP3    H271856   2.663   2.849  10.838 -0.9250 -1.3476  0.6729
16789TIP3   OH271857   3.788   2.820   5.464 -0.0880  0.4680  0.5094
16789TIP3    H171858   3.851   2.768   5.515  0.8070  0.2058 -0.8583
16789TIP3    H271859   3.820   2.910   5.470  0.4531  0.3257 -0.2362
16790TIP3   OH271860   2.270   2.240   0.420 -0.1731 -0.2194  0.4559
16790TIP3    H171861   2.192   2.202   0.380  0.6643 -1.4428 -0.0303
16790TIP3    H271862   2.343   2.195   0.378  0.8114  1.3110  0.5121
16791TIP3   OH271863   1.235   6.043   4.747 -0.4781  0.3762  0.1147
16791TIP3    H171864   1.179   6.112   4.782 -0.2467 -0.0755  1.3961
16791TIP3    H271865   1.209   6.036   4.655 -1.4755  1.1990  0.3207
16792TIP3   OH271866   4.660   0.432   0.464 -0.2049 -0.1970  0.4947
16792TIP3    H171867   4.663   0.459   0.556  0.2038 -0.5837  0.5972
16792TIP3    H271868   4.735   0.373   0.454 -0.1398 -0.0081 -0.1367
16793TIP3   OH271869   1.897   2.773  11.616  0.2748  0.2571  0.0391
16793TIP3    H171870   1.944   2.691  11.634  0.2850  0.0260 -1.0203
16793TIP3    H271871   1.830   2.749  11.552 -1.8173  0.4261  2.1066
16794TIP3   OH271872   4.494   3.420  17.209  0.3664 -0.1588 -0.3764
16794TIP3    H171873   4.501   3.445  17.301 -0.0420 -0.3023 -0.3037
16794TIP3    H271874   4.584   3.405  17.181  0.6069  1.1665 -0.3609
16795TIP3   OH271875   1.676   4.358  16.993  0.2125  0.0000  0.2072
16795TIP3    H171876   1.650   4.358  17.086  0.6475  0.1079  0.3314
16795TIP3    H271877   1.626   4.430  16.955  0.3672  0.2409  0.4525
16796TIP3   OH271878   2.957   2.618  14.828 -0.7563 -0.4636  0.4598
16796TIP3    H171879   3.037   2.652  14.870 -0.2216 -1.2436  0.0959
16796TIP3    H271880   2.908   2.696  14.803 -0.2333  0.0243  0.9393
16797TIP3   OH271881   6.123   1.740  16.704 -0.0074 -0.0014  0.2292
16797TIP3    H171882   6.040   1.787  16.699 -0.9498 -1.5296  1.2849
16797TIP3    H271883   6.189   1.809  16.709 -1.0864  1.2571 -1.9254
16798TIP3   OH271884   0.022   2.332  16.165 -0.4817 -0.0294 -0.1909
16798TIP3    H171885  -0.047   2.391  16.134 -1.3433 -0.0506  1.6354
16798TIP3    H271886   0.073   2.384  16.226  0.6386 -0.2744 -0.8983
16799TIP3   OH271887   1.587   0.405   6.399  0.6672  0.5605  0.2697
16799TIP3    H171888   1.567   0.384   6.490  1.4737  2.0901  0.8262
16799TIP3    H271889   1.608   0.321   6.359 -2.5946 -0.5419  0.7107
16800TIP3   OH271890   0.930   3.671  11.985 -0.6652 -0.0522 -0.5684
16800TIP3    H171891   1.002   3.709  12.034 -0.2589 -1.5338  0.0084
16800TIP3    H271892   0.852   3.719  12.014 -0.2204  0.0668  0.4234
16801TIP3   OH271893   0.531   0.977  12.237  0.3626  0.3031  0.1383
16801TIP3    H171894   0.612   0.927  12.227  0.9445  0.5914  2.9765
16801TIP3    H271895   0.558   1.068  12.230  0.4828  0.4366  2.1245
16802TIP3   OH271896   3.330   0.851   0.329 -0.3119  0.3068  0.1524
16802TIP3    H171897   3.393   0.896   0.274  0.4231 -0.0632  0.6838
16802TIP3    H271898   3.290   0.921   0.381 -1.0183  0.6567 -0.8481
16803TIP3   OH271899   2.563   4.205  11.877  0.7154 -0.2387 -0.1079
16803TIP3    H171900   2.636   4.228  11.935 -1.5886 -0.7881  3.1116
16803TIP3    H271901   2.603   4.150  11.810  3.1767 -1.1351  1.9986
16804TIP3   OH271902   4.195   4.719  13.153 -0.4685 -0.5712  0.2100
16804TIP3    H171903   4.149   4.720  13.069  0.0757  1.9565 -0.1156
16804TIP3    H271904   4.287   4.731  13.129 -0.2514 -0.4031  1.1296
16805TIP3   OH271905   0.017   5.965   1.970  0.1668 -1.2248  0.4655
16805TIP3    H171906   0.020   5.969   2.066 -0.3966  1.3814  0.4292
16805TIP3    H271907   0.062   6.044   1.941  0.2436 -1.9329 -1.4250
16806TIP3   OH271908   0.534   5.632  15.959  0.0904  0.1033 -0.2960
16806TIP3    H171909   0.542   5.617  16.053  0.3731  1.2281 -0.1411
16806TIP3    H271910   0.617   5.602  15.923 -0.9299 -2.7090 -0.5197
16807TIP3   OH271911   5.612   5.064  10.980 -0.3799 -0.3053 -0.0711
16807TIP3    H171912   5.647   5.022  11.059  0.1960 -1.1671 -0.7770
16807TIP3    H271913   5.672   5.136  10.962 -1.3962  0.8687  1.1713
16808TIP3   OH271914   0.407   2.139  17.155  0.3317 -0.3331  0.0877
16808TIP3    H171915   0.452   2.207  17.205  0.1204  0.5496 -0.8934
16808TIP3    H271916   0.315   2.168  17.155  0.3001 -0.4420 -0.6255
16809TIP3   OH271917   2.248   3.824  13.537 -0.3207  0.1493  0.0228
16809TIP3    H171918   2.302   3.861  13.607  1.8145  0.5306 -1.7806
16809TIP3    H271919   2.183   3.892  13.519  1.4063  1.6251 -0.8591
16810TIP3   OH271920   4.779   0.633   3.957  0.2970 -0.3591  0.3777
16810TIP3    H171921   4.853   0.618   4.016  0.1566 -1.6850  0.2297
16810TIP3    H271922   4.725   0.554   3.966 -1.5095  0.9134  1.0715
16811TIP3   OH271923   4.659   2.530   3.416  0.1219  0.3847  0.2108
16811TIP3    H171924   4.719   2.494   3.482  1.2683  0.9428 -0.5027
16811TIP3    H271925   4.590   2.465   3.408 -0.2389  0.4717  2.2450
16812TIP3   OH271926   6.379   2.680   5.890 -0.0473 -0.8322  0.2154
16812TIP3    H171927   6.367   2.711   5.980  1.4452 -0.6419  0.3664
16812TIP3    H271928   6.291   2.681   5.852 -0.4421  0.7613  1.1365
16813TIP3   OH271929   2.342   6.561   1.396 -0.1943 -0.1127 -0.0578
16813TIP3    H171930   2.303   6.640   1.432 -1.6388 -1.1609  0.6980
16813TIP3    H271931   2.422   6.548   1.448 -1.1258 -0.3947  1.3206
16814TIP3   OH271932   6.504   1.643   3.047  0.0912 -0.1957  0.1479
16814TIP3    H171933   6.552   1.724   3.032 -1.3632  0.4057 -1.4722
16814TIP3    H271934   6.421   1.655   3.000 -1.3739 -1.4605  2.3300
16815TIP3   OH271935   3.118   2.706   5.593 -0.3002 -0.5563  0.3044
16815TIP3    H171936   3.143   2.792   5.560 -0.9601 -0.2634  0.5580
16815TIP3    H271937   3.196   2.673   5.638  0.3327 -0.5933 -0.7953
16816TIP3   OH271938   3.588   4.309  11.304  0.2583  0.0752  0.3357
16816TIP3    H171939   3.607   4.395  11.343 -2.0837  0.2827  1.1514
16816TIP3    H271940   3.542   4.330  11.222  0.0255 -0.3846  0.3483
16817TIP3   OH271941   5.197   2.080   1.188  0.5571 -0.3771 -0.0377
16817TIP3    H171942   5.267   2.070   1.123  0.3188  0.8751 -0.5105
16817TIP3    H271943   5.144   2.152   1.154 -0.4480 -0.7239  0.7798
16818TIP3   OH271944   3.908   0.415  13.417  0.0713  1.3888 -0.1278
16818TIP3    H171945   3.892   0.328  13.380  0.0758  1.2591  0.1693
16818TIP3    H271946   3.866   0.413  13.503  1.2396  1.2017  0.4630
16819TIP3   OH271947   0.580   1.206   5.330  0.8345  0.0585  0.1768
16819TIP3    H171948   0.556   1.243   5.415  0.0101  1.0069 -0.4549
16819TIP3    H271949   0.541   1.266   5.266 -0.4602 -1.8528 -0.8916
16820TIP3   OH271950   2.962   5.072  15.394  0.2936  0.1860 -0.1010
16820TIP3    H171951   2.892   5.048  15.332  0.2645 -0.2964  0.1165
16820TIP3    H271952   2.988   4.989  15.434 -0.4340  0.6385  1.3351
16821TIP3   OH271953   1.967   1.719  15.950 -0.4230  1.1036 -0.1772
16821TIP3    H171954   1.886   1.727  15.999  0.0818  0.2562  0.8341
16821TIP3    H271955   2.019   1.656  16.001  1.7325  3.2867  0.3826
16822TIP3   OH271956   3.835   1.647  15.785 -0.5941 -0.7298  0.2765
16822TIP3    H171957   3.793   1.722  15.827 -0.2092 -0.7865  0.7756
16822TIP3    H271958   3.821   1.574  15.845 -0.7581 -1.0025 -0.0912
16823TIP3   OH271959   4.966   2.000  15.180 -0.3509 -0.0294  0.4558
16823TIP3    H171960   4.935   2.013  15.091  0.5959 -1.1515 -0.0595
16823TIP3    H271961   5.061   2.011  15.174 -0.3626  0.7048  1.4848
16824TIP3   OH271962   5.172   2.063  14.724  0.5541  0.4422 -0.6335
16824TIP3    H171963   5.118   2.034  14.651  0.9669 -1.8753 -0.0469
16824TIP3    H271964   5.222   2.137  14.688  1.4816 -1.2763 -3.0244
16825TIP3   OH271965   2.710   4.936   3.294  0.1567 -0.3183 -0.0970
16825TIP3    H171966   2.683   4.845   3.286 -1.9894  0.4516 -2.0862
16825TIP3    H271967   2.797   4.939   3.253 -0.0712 -1.3024 -0.6512
16826TIP3   OH271968   6.039   4.460  11.842  0.2996 -0.4377 -0.7016
16826TIP3    H171969   6.043   4.555  11.858 -0.1635 -0.4365 -0.5815
16826TIP3    H271970   5.969   4.429  11.899 -0.1520 -0.7175 -1.4038
16827TIP3   OH271971   6.611   3.996   3.952 -0.1414  0.0366  0.2177
16827TIP3    H171972   6.602   4.010   4.046 -2.6224  1.3151 -0.1622
16827TIP3    H271973   6.616   4.083   3.914  0.4399 -0.4561 -0.8764
16828TIP3   OH271974   2.100   2.290  14.559 -0.3043 -0.7687  0.3599
16828TIP3    H171975   2.155   2.350  14.610  0.7305 -2.9667  1.9332
16828TIP3    H271976   2.019   2.339  14.543  0.6590  1.1697  1.2638
16829TIP3   OH271977   2.890   4.242  16.992  0.2839 -0.3478 -0.3976
16829TIP3    H171978   2.814   4.290  16.958  0.7738  1.1638  0.5825
16829TIP3    H271979   2.900   4.168  16.933 -3.3079 -1.7970  0.6890
16830TIP3   OH271980   0.358   4.370   0.929  1.0210  0.0433 -0.2739
16830TIP3    H171981   0.442   4.361   0.883  1.0492 -0.6668 -0.0758
16830TIP3    H271982   0.381   4.402   1.016  1.0556  0.1933 -0.3371
16831TIP3   OH271983   2.649   6.380  16.180 -0.1591  0.0395 -0.2652
16831TIP3    H171984   2.735   6.418  16.163 -0.0772  0.7535  1.6296
16831TIP3    H271985   2.602   6.388  16.097  1.4614 -0.0119 -1.2088
16832TIP3   OH271986   6.377   4.765   4.502  0.0143  0.0501  0.2087
16832TIP3    H171987   6.405   4.724   4.420  0.7127  1.9097 -0.5034
16832TIP3    H271988   6.332   4.845   4.475 -0.3891  0.3178  1.6162
16833TIP3   OH271989   2.518   0.720   2.793 -0.6337  0.2760  0.1096
16833TIP3    H171990   2.542   0.635   2.830 -0.2040  0.2813 -0.1562
16833TIP3    H271991   2.501   0.701   2.700 -1.8374  0.2337  0.3196
16834TIP3   OH271992   5.459   4.839   3.838 -0.5773  0.6639 -0.3318
16834TIP3    H171993   5.532   4.900   3.829  0.2772 -0.1938  0.5462
16834TIP3    H271994   5.498   4.753   3.823 -1.6019  0.2685 -0.7714
16835TIP3   OH271995   6.530   6.814   0.816 -0.1052  0.2239 -0.3616
16835TIP3    H171996   6.445   6.828   0.859 -0.6182 -0.3574 -1.1911
16835TIP3    H271997   6.509   6.772   0.733  0.8913  1.3988 -1.2220
16836TIP3   OH271998   6.507   4.841  11.280 -0.0927 -0.2563  0.0669
16836TIP3    H171999   6.453   4.916  11.301 -0.9954 -0.7765 -0.3743
16836TIP3    H272000   6.582   4.878  11.232 -1.0395  0.2582 -1.0470
16837TIP3   OH272001   0.018   5.891  14.166  0.7543  0.5921 -0.4827
16837TIP3    H172002  -0.028   5.835  14.103 -1.1564 -0.4022  1.7347
16837TIP3    H272003   0.071   5.830  14.218 -0.2000  0.9816  0.9817
16838TIP3   OH272004   6.026   4.296  16.445  0.0973 -0.2504  0.2640
16838TIP3    H172005   5.945   4.286  16.496  1.2380 -0.8142  2.0313
16838TIP3    H272006   6.077   4.218  16.466  2.5026  1.6483  1.8389
16839TIP3   OH272007   0.919   5.027   2.581 -0.0265 -0.5858  0.3828
16839TIP3    H172008   0.945   5.088   2.650 -0.5419 -0.3554  0.3781
16839TIP3    H272009   0.832   5.058   2.554  0.9572  0.4913 -1.6872
16840TIP3   OH272010   5.162   1.962  15.868  0.3304  0.1897 -0.1170
16840TIP3    H172011   5.072   1.973  15.837  0.1433  4.4526  1.5717
16840TIP3    H272012   5.153   1.920  15.953  0.0921 -0.9495 -0.6889
16841TIP3   OH272013   1.816   4.806   5.062  0.1104  0.0658  0.3253
16841TIP3    H172014   1.752   4.746   5.101  0.0308  0.7334  1.2322
16841TIP3    H272015   1.796   4.891   5.101  1.9340  0.1761  1.0611
16842TIP3   OH272016   6.067   0.471  12.348 -0.6829 -0.2947 -0.6450
16842TIP3    H172017   6.016   0.471  12.429  0.8703  0.1770  0.3387
16842TIP3    H272018   6.123   0.548  12.355 -0.7741 -0.0603 -2.3281
16843TIP3   OH272019   2.854   6.557   4.410 -0.3467 -0.5359 -0.3195
16843TIP3    H172020   2.792   6.550   4.483 -0.3828  1.1489 -0.1671
16843TIP3    H272021   2.837   6.479   4.357 -2.1766 -0.4221  0.0548
16844TIP3   OH272022   3.550   6.461   3.289  0.8265 -0.1891 -0.2310
16844TIP3    H172023   3.505   6.488   3.369  1.3619  0.0765 -0.0199
16844TIP3    H272024   3.519   6.372   3.273 -2.2694  1.0883 -1.8688
16845TIP3   OH272025   2.447   1.445   1.780  0.7722  0.5598  0.1160
16845TIP3    H172026   2.535   1.406   1.770  0.1451 -1.1384  1.0005
16845TIP3    H272027   2.388   1.369   1.782 -0.5286  1.5939  1.4723
16846TIP3   OH272028   4.660   6.004   5.695 -0.7613  0.5069 -0.5251
16846TIP3    H172029   4.620   6.077   5.742 -0.0022  1.6057 -1.5733
16846TIP3    H272030   4.604   5.991   5.619 -2.3607 -1.6923  0.9497
16847TIP3   OH272031   4.639   2.301   5.052 -0.3412 -0.4193  0.5109
16847TIP3    H172032   4.733   2.311   5.034 -0.4817  0.7299  0.3773
16847TIP3    H272033   4.600   2.284   4.966 -0.6077  1.9310  0.1420
16848TIP3   OH272034   4.529   0.364   2.866 -0.1513 -0.0057 -0.4966
16848TIP3    H172035   4.532   0.458   2.847  1.7683  0.0119 -0.1094
16848TIP3    H272036   4.445   0.352   2.911 -0.9443  1.3203 -1.5796
16849TIP3   OH272037   5.903   5.756  12.277 -0.2996 -0.1139  0.0332
16849TIP3    H172038   5.941   5.756  12.365 -0.5791 -0.4712  0.1543
16849TIP3    H272039   5.809   5.761  12.291 -0.3599 -0.4588 -0.2391
16850TIP3   OH272040   0.792   2.358  14.746 -0.2699  0.9578  0.4391
16850TIP3    H172041   0.787   2.347  14.841 -1.5260  0.6626  0.3544
16850TIP3    H272042   0.872   2.311  14.720 -1.4755 -1.5155  1.0126
16851TIP3   OH272043   4.854   1.371  12.487 -0.0135  0.4209 -0.6527
16851TIP3    H172044   4.776   1.422  12.464 -0.0209 -0.0291 -1.6905
16851TIP3    H272045   4.926   1.433  12.479  0.0269  0.1889 -2.3281
16852TIP3   OH272046   1.983   2.225   3.648 -0.8664 -0.6175  0.4751
16852TIP3    H172047   2.004   2.170   3.572  0.7004  2.5868 -1.5300
16852TIP3    H272048   2.051   2.293   3.648 -2.7780  1.3791  2.7760
16853TIP3   OH272049   2.625   1.142   0.533 -0.1488  0.3191  0.1201
16853TIP3    H172050   2.593   1.081   0.599 -1.0271  0.1831 -0.4160
16853TIP3    H272051   2.689   1.092   0.483 -0.6108 -0.0646 -0.0947
16854TIP3   OH272052   0.899   3.741  13.979 -0.3130  0.0093 -0.9284
16854TIP3    H172053   0.922   3.788  14.059 -0.9504  1.0531 -1.3548
16854TIP3    H272054   0.811   3.706  13.996 -0.8113  0.9796 -1.5048
16855TIP3   OH272055   0.991   1.750   5.415 -0.0577 -0.0447  0.2498
16855TIP3    H172056   1.008   1.680   5.478  1.2545 -0.3075 -0.3761
16855TIP3    H272057   0.898   1.770   5.425 -0.1114 -0.8624  1.4708
16856TIP3   OH272058   1.645   2.014  17.059  0.3461  0.5186  0.2427
16856TIP3    H172059   1.568   1.967  17.029  1.0877 -0.5096 -0.0705
16856TIP3    H272060   1.719   1.968  17.019  1.1519  1.1649  0.9662
16857TIP3   OH272061   1.353   2.703   1.635  0.5594  0.3073  0.2926
16857TIP3    H172062   1.296   2.778   1.649 -0.9447 -0.4698 -1.4251
16857TIP3    H272063   1.429   2.739   1.589 -0.6265  0.6533 -1.4639
16858TIP3   OH272064   5.656   1.566   4.480 -0.2537  0.4336 -0.1658
16858TIP3    H172065   5.567   1.583   4.448 -1.2325  0.0050  2.2164
16858TIP3    H272066   5.668   1.629   4.551  0.1035 -1.6556  1.6795
16859TIP3   OH272067   4.001   4.671   0.731  0.5799 -0.5503 -0.3579
16859TIP3    H172068   4.043   4.596   0.771  1.2737 -0.8232 -1.5697
16859TIP3    H272069   3.996   4.650   0.638 -0.6341  0.2383 -0.4933
16860TIP3   OH272070   6.084   1.029  16.881 -0.1073 -0.4376  0.2271
16860TIP3    H172071   6.141   1.105  16.891  1.0283 -1.2179 -0.0840
16860TIP3    H272072   6.034   1.047  16.801  0.0139  0.0641  0.2597
16861TIP3   OH272073   4.573   0.290   2.570 -0.3123  0.0587 -0.1469
16861TIP3    H172074   4.565   0.339   2.652  1.0329 -0.3731  0.2430
16861TIP3    H272075   4.497   0.231   2.570 -0.3521  0.1025  0.7443
16862TIP3   OH272076   3.516   0.512  17.215  0.0284  0.5865 -0.2089
16862TIP3    H172077   3.447   0.454  17.246 -1.0298  0.1487 -3.1603
16862TIP3    H272078   3.482   0.600  17.230  0.9126  0.4563  2.7251
16863TIP3   OH272079   0.175   3.188   3.796  0.0595 -0.2434  0.3413
16863TIP3    H172080   0.154   3.255   3.730 -0.4336 -0.3101  0.4265
16863TIP3    H272081   0.226   3.122   3.748 -1.6569 -1.0824 -0.3736
16864TIP3   OH272082   1.993   0.200  16.423  0.5364 -0.1498 -0.6381
16864TIP3    H172083   2.019   0.285  16.386  0.3464 -0.2796 -1.0792
16864TIP3    H272084   1.987   0.215  16.517 -0.0804  0.4788 -0.7802
16865TIP3   OH272085   1.570   1.220  12.937  0.4113 -0.3183  0.6859
16865TIP3    H172086   1.564   1.310  12.968  0.2910  0.3981 -1.3711
16865TIP3    H272087   1.661   1.194  12.952  0.7356  0.5433  0.2008
16866TIP3   OH272088   1.556   5.084   0.575  0.2552  0.2593  0.2192
16866TIP3    H172089   1.526   5.100   0.665 -1.0042  0.2580 -0.1908
16866TIP3    H272090   1.522   5.159   0.525  1.9816  0.9006 -0.0438
16867TIP3   OH272091   3.000   3.924  14.282  0.2962 -0.1108 -0.5220
16867TIP3    H172092   2.914   3.901  14.247  0.6521  0.3554 -1.6971
16867TIP3    H272093   3.004   3.877  14.366 -0.1053 -2.0957 -1.5772
16868TIP3   OH272094   0.330   0.698   2.890 -0.1114 -0.0604 -0.7316
16868TIP3    H172095   0.331   0.794   2.893 -0.3005 -0.0694 -0.3097
16868TIP3    H272096   0.246   0.677   2.850 -0.3365 -0.0609 -0.2609
16869TIP3   OH272097   4.662   3.977  14.052  0.6202 -0.9279 -0.0708
16869TIP3    H172098   4.699   4.013  14.133  2.7156 -2.1695 -0.4367
16869TIP3    H272099   4.590   3.921  14.082 -1.8702  2.4587  0.5744
16870TIP3   OH272100   1.856   5.583  12.042 -0.0057  0.3188 -0.4676
16870TIP3    H172101   1.774   5.549  12.006 -0.1585 -0.3198  0.4702
16870TIP3    H272102   1.843   5.584  12.137  0.5014  1.7152 -0.4052
16871TIP3   OH272103   1.042   3.069   4.146  0.4303  0.3680  0.7891
16871TIP3    H172104   0.998   2.984   4.149  1.8154 -0.4493 -0.7869
16871TIP3    H272105   1.098   3.070   4.224  1.7219 -0.9455 -0.0813
16872TIP3   OH272106   4.518   2.380  11.794  0.2071  0.1434  0.2176
16872TIP3    H172107   4.522   2.444  11.866  0.2317  1.2578 -0.7641
16872TIP3    H272108   4.606   2.342  11.792  0.7827  1.4748 -0.4367
16873TIP3   OH272109   4.011   5.751  16.780  0.0090  0.3800  0.7597
16873TIP3    H172110   4.020   5.784  16.870  0.4868 -0.6661  1.1054
16873TIP3    H272111   4.005   5.656  16.790 -1.8284  0.3695 -0.1826
16874TIP3   OH272112   6.175   4.362   2.561  0.2805 -0.0657 -0.2621
16874TIP3    H172113   6.204   4.273   2.539 -1.5202 -1.1246  1.4744
16874TIP3    H272114   6.243   4.395   2.620  0.4147 -0.7038 -0.0514
16875TIP3   OH272115   3.258   6.443   4.866  0.3780  0.0487  0.1190
16875TIP3    H172116   3.306   6.479   4.940  1.3253 -1.6362  0.3405
16875TIP3    H272117   3.168   6.435   4.898  0.2846  1.5139  0.2896
16876TIP3   OH272118   5.273   3.912   2.784 -0.4662 -0.6729  0.7225
16876TIP3    H172119   5.256   3.977   2.715 -0.1184 -0.1182  1.1519
16876TIP3    H272120   5.356   3.940   2.822 -1.2610 -0.2763  2.1868
16877TIP3   OH272121   0.840   0.542  12.902 -0.0138 -0.0837 -0.5220
16877TIP3    H172122   0.877   0.579  12.982  0.7973  0.6982 -1.2481
16877TIP3    H272123   0.814   0.618  12.850  1.7486 -0.5167 -2.0660
16878TIP3   OH272124   0.370   5.173   1.291  0.1604  0.3163 -0.0164
16878TIP3    H172125   0.377   5.084   1.324  1.3734  0.3745 -0.0994
16878TIP3    H272126   0.328   5.164   1.205 -0.1060 -0.1264  0.1598
16879TIP3   OH272127   5.363   4.013  16.285  0.3691  0.0223  0.0521
16879TIP3    H172128   5.310   3.947  16.331  0.2724 -0.3129 -0.5388
16879TIP3    H272129   5.307   4.090  16.283 -0.3164 -0.4896 -1.0364
16880TIP3   OH272130   2.445   5.181  16.648  0.4017 -0.1909  0.4280
16880TIP3    H172131   2.354   5.170  16.676  0.8354 -0.8921  1.5402
16880TIP3    H272132   2.446   5.268  16.608 -1.2966 -1.0965 -1.7275
16881TIP3   OH272133   2.024   5.623   4.821 -0.5805 -0.5260  0.3722
16881TIP3    H172134   2.076   5.701   4.845 -0.1163 -0.0191 -2.1052
16881TIP3    H272135   2.079   5.549   4.846 -0.6549 -0.0476  1.9779
16882TIP3   OH272136   4.869   2.223   4.631 -0.6415  0.4538 -0.2565
16882TIP3    H172137   4.814   2.158   4.676  0.2096 -2.1245 -2.7981
16882TIP3    H272138   4.954   2.217   4.675 -0.0070 -1.5738 -1.6926
16883TIP3   OH272139   6.418   4.613  11.398  0.3257 -0.4559 -0.3278
16883TIP3    H172140   6.460   4.687  11.354  1.5325 -0.3799  0.8999
16883TIP3    H272141   6.492   4.563  11.434 -0.6371 -0.4440  1.6968
16884TIP3   OH272142   5.771   4.713   1.775 -0.1731 -0.1855 -0.1765
16884TIP3    H172143   5.681   4.705   1.744 -0.5115 -1.8360  1.1729
16884TIP3    H272144   5.762   4.742   1.866  0.7391  1.8195 -0.6839
16885TIP3   OH272145   2.474   2.738  17.200  0.3945  0.3614  0.4188
16885TIP3    H172146   2.514   2.728  17.113  0.3406 -3.1704  0.7165
16885TIP3    H272147   2.386   2.771  17.182 -1.0370 -4.0122 -1.2621
16886TIP3   OH272148   1.033   5.160   2.381 -0.3165  0.0472  0.5270
16886TIP3    H172149   1.034   5.116   2.466  1.1512 -0.9029  0.0429
16886TIP3    H272150   0.978   5.105   2.326 -1.0126  0.4966  0.7636
16887TIP3   OH272151   4.350   6.553   6.280  0.2946  0.2031  0.2043
16887TIP3    H172152   4.421   6.506   6.325  1.4577  1.2542 -0.5201
16887TIP3    H272153   4.358   6.643   6.312  0.4231  0.7078 -1.2510
16888TIP3   OH272154   4.746   0.407   2.135  0.7187 -0.4661 -0.1730
16888TIP3    H172155   4.736   0.325   2.184 -2.4318 -1.0342 -1.6697
16888TIP3    H272156   4.764   0.473   2.202  2.3742 -2.1701  1.1453
16889TIP3   OH272157   1.289   3.734  17.032 -0.4488  0.0854 -0.2952
16889TIP3    H172158   1.224   3.787  16.986 -1.1164  0.3055  0.8853
16889TIP3    H272159   1.261   3.735  17.123  1.0959 -0.0013  0.1998
16890TIP3   OH272160   0.911   6.519  12.362  0.1508 -0.3606  0.5625
16890TIP3    H172161   0.839   6.463  12.391 -0.3195 -0.2162 -0.3013
16890TIP3    H272162   0.894   6.532  12.269  1.4837 -0.5979  0.2815
16891TIP3   OH272163   5.261   0.254   2.899 -0.0586  0.2909 -0.3408
16891TIP3    H172164   5.240   0.325   2.838 -0.1025  0.9384  0.4352
16891TIP3    H272165   5.354   0.236   2.883 -0.4211 -0.5080 -1.6052
16892TIP3   OH272166   1.185   3.889  15.868  0.1257 -0.3325  0.4689
16892TIP3    H172167   1.162   3.807  15.912  4.8818 -2.0212  0.1487
16892TIP3    H272168   1.215   3.946  15.938 -1.5440  0.5568  0.4824
16893TIP3   OH272169   3.377   5.116  16.271  0.3377  0.1908 -0.5309
16893TIP3    H172170   3.440   5.181  16.240  0.0927  0.3909 -0.6088
16893TIP3    H272171   3.419   5.031  16.253  0.5066  0.3193 -0.7431
16894TIP3   OH272172   4.297   2.037  13.918  0.2233 -0.1550  0.1794
16894TIP3    H172173   4.227   2.088  13.877 -0.4778 -0.9811  0.3379
16894TIP3    H272174   4.376   2.090  13.906 -0.3870  0.6629 -0.2247
16895TIP3   OH272175   3.657   4.989   3.106 -0.2813 -0.6722 -0.0049
16895TIP3    H172176   3.633   4.951   3.190 -1.1122 -1.3750 -0.5548
16895TIP3    H272177   3.607   5.070   3.100  1.6319  0.6462  1.2535
16896TIP3   OH272178   3.014   3.221  14.248 -0.2207  0.5674 -0.5792
16896TIP3    H172179   3.036   3.232  14.341  0.4402 -1.0997 -0.5225
16896TIP3    H272180   2.949   3.151  14.246  1.1692 -0.7364 -1.5144
16897TIP3   OH272181   2.513   5.338   5.977 -0.1130 -0.2318  0.1050
16897TIP3    H172182   2.502   5.292   6.060 -0.5219 -1.0956 -0.4272
16897TIP3    H272183   2.568   5.413   5.999  1.3113 -1.4513  0.8129
16898TIP3   OH272184   1.368   5.322  15.175  0.7743  0.7142  0.0269
16898TIP3    H172185   1.336   5.360  15.092 -2.5235  0.9104  1.3003
16898TIP3    H272186   1.288   5.299  15.222  2.6424 -1.1004  2.4054
16899TIP3   OH272187   0.293   6.686  14.712  0.4857 -0.4256 -0.9363
16899TIP3    H172188   0.233   6.757  14.693  0.4189 -0.8399 -2.3165
16899TIP3    H272189   0.298   6.683  14.808 -1.2885 -0.0620 -0.8278
16900TIP3   OH272190   1.805   1.839   6.614 -0.4114 -0.4139  0.4940
16900TIP3    H172191   1.885   1.885   6.642 -0.5761 -0.0963  0.4387
16900TIP3    H272192   1.787   1.872   6.527 -1.3819  0.5420  1.0407
16901TIP3   OH272193   2.840   4.101   0.524  0.2582  0.2179 -0.0079
16901TIP3    H172194   2.799   4.099   0.610  1.6900  2.4620  0.7703
16901TIP3    H272195   2.901   4.028   0.525 -0.2688 -0.2168  0.5952
16902TIP3   OH272196   2.908   0.473   0.462 -0.3416  0.7399  0.2110
16902TIP3    H172197   3.002   0.467   0.443  0.1084  0.0599  2.5521
16902TIP3    H272198   2.866   0.432   0.386  1.3480 -0.5857 -0.0349
16903TIP3   OH272199   0.430   0.568   3.259 -0.1878  0.0470  0.2539
16903TIP3    H172200   0.377   0.603   3.330 -0.2454 -0.0280  0.2476
16903TIP3    H272201   0.511   0.539   3.301 -0.7745 -1.2499  0.4882
16904TIP3   OH272202   4.339   5.021   1.854 -0.0115  0.5060 -0.3912
16904TIP3    H172203   4.254   4.978   1.843  0.3728 -0.2625 -0.3323
16904TIP3    H272204   4.323   5.111   1.824 -1.4393  1.0012  1.7422
16905TIP3   OH272205   0.114   6.516  17.007 -0.3566 -0.3834 -0.1685
16905TIP3    H172206   0.127   6.521  16.912 -1.4694 -0.4578 -0.3375
16905TIP3    H272207   0.104   6.422  17.024 -1.4999 -0.2796 -0.1851
16906TIP3   OH272208   2.333   6.515   0.531  0.4394 -0.2102 -0.3761
16906TIP3    H172209   2.316   6.574   0.605  3.3912  0.6564 -0.2984
16906TIP3    H272210   2.365   6.435   0.572  1.5405  0.0743 -0.6559
16907TIP3   OH272211   4.391   2.553   4.763  0.0371  0.0149  0.3488
16907TIP3    H172212   4.467   2.596   4.803 -1.8185  3.3963  0.4708
16907TIP3    H272213   4.418   2.538   4.672  1.0442  0.7256  0.5159
16908TIP3   OH272214   2.215   0.419  16.606  0.6360  0.8212  0.1435
16908TIP3    H172215   2.303   0.395  16.578 -0.2881 -0.7443 -1.5832
16908TIP3    H272216   2.181   0.472  16.534 -0.5952 -0.4355 -0.2181
16909TIP3   OH272217   3.949   5.592  16.033  0.3292 -0.1012  0.2553
16909TIP3    H172218   3.936   5.548  16.117  0.1189 -1.8988 -0.6983
16909TIP3    H272219   3.865   5.581  15.987  0.9080 -0.3387 -0.7451
16910TIP3   OH272220   1.779   5.371  15.743  0.0081  0.2514 -0.2769
16910TIP3    H172221   1.836   5.334  15.810  0.1847  0.4908 -0.2937
16910TIP3    H272222   1.820   5.346  15.660 -0.4213 -0.3773 -0.3003
16911TIP3   OH272223   2.749   2.185  13.043 -0.1526 -0.3895  0.2120
16911TIP3    H172224   2.752   2.251  13.113 -0.0312 -0.6049  0.4080
16911TIP3    H272225   2.661   2.194  13.006  0.0887  0.3473 -0.2057
16912TIP3   OH272226   6.412   3.665   2.751  0.5519  0.2119  0.7350
16912TIP3    H172227   6.328   3.701   2.722 -0.1918 -0.8822  1.5045
16912TIP3    H272228   6.478   3.723   2.711 -0.5154  0.2779 -0.9727
16913TIP3   OH272229   1.490   4.733   4.639 -0.3605  0.1597  0.6442
16913TIP3    H172230   1.493   4.685   4.722  1.1170  1.6001  1.4528
16913TIP3    H272231   1.397   4.753   4.627 -0.7576 -1.1805  1.2756
16914TIP3   OH272232   4.297   4.163   5.481  0.0996  0.0888 -0.1205
16914TIP3    H172233   4.247   4.164   5.399 -0.3620  1.1265  0.1678
16914TIP3    H272234   4.389   4.159   5.453 -0.0479  0.6792 -0.6994
16915TIP3   OH272235   5.650   5.412   2.280 -0.0832  0.3284 -0.5304
16915TIP3    H172236   5.572   5.357   2.271 -1.5952  1.8801  2.2767
16915TIP3    H272237   5.678   5.429   2.190 -3.0085 -0.2196 -1.6052
16916TIP3   OH272238   5.891   4.395  16.745  0.4029  0.2510 -0.0203
16916TIP3    H172239   5.853   4.470  16.699  1.0623  1.4725  1.3950
16916TIP3    H272240   5.823   4.366  16.805  0.2633 -0.0772 -0.3379
16917TIP3   OH272241   0.311   1.024  14.769  0.3802  0.3306 -0.2935
16917TIP3    H172242   0.356   1.108  14.764 -2.1726  1.7858  0.0221
16917TIP3    H272243   0.231   1.043  14.818  0.2424 -2.5223  0.6837
16918TIP3   OH272244   4.268   6.180  13.732  0.4119  0.0366 -0.4259
16918TIP3    H172245   4.291   6.129  13.810  1.3589 -0.2734 -0.8980
16918TIP3    H272246   4.219   6.255  13.766 -0.4778 -0.8727  0.3253
16919TIP3   OH272247   1.297   6.053  14.341  0.5547 -0.0586 -0.7251
16919TIP3    H172248   1.309   6.034  14.434  1.6806 -2.4828 -1.3297
16919TIP3    H272249   1.209   6.088  14.335 -0.5551 -2.4156  0.8988
16920TIP3   OH272250   5.744   2.077   4.843 -0.3495  0.2586 -0.2273
16920TIP3    H172251   5.754   2.053   4.935  0.1092  0.5135 -0.2108
16920TIP3    H272252   5.786   2.162   4.835 -2.0502  1.1288 -0.2668
16921TIP3   OH272253   4.373   6.789   4.871  0.2353 -0.6846  0.2990
16921TIP3    H172254   4.385   6.749   4.958  1.4123 -2.5829 -0.6925
16921TIP3    H272255   4.462   6.801   4.838 -0.2112 -0.0121 -0.6662
16922TIP3   OH272256   2.458   2.017  15.949  0.2454  0.2689 -0.5173
16922TIP3    H172257   2.529   2.010  16.013 -0.6455 -1.6403  0.3116
16922TIP3    H272258   2.490   1.970  15.872  1.1447  2.1909 -1.3334
16923TIP3   OH272259   0.280   2.560  14.601 -0.1539 -0.0901 -0.3596
16923TIP3    H172260   0.373   2.575  14.617  0.4051 -3.7051  0.3689
16923TIP3    H272261   0.235   2.630  14.647  2.1623  0.6832  0.7783
16924TIP3   OH272262   1.190   1.463  11.975  0.3391 -0.3161  0.4142
16924TIP3    H172263   1.197   1.535  11.913 -1.2127 -0.4228  0.0861
16924TIP3    H272264   1.238   1.391  11.935  1.9984  0.5584  0.7986
16925TIP3   OH272265   5.416   2.449  13.545  0.3868  0.1445  0.2773
16925TIP3    H172266   5.475   2.384  13.583  0.3847  0.4878  0.8697
16925TIP3    H272267   5.337   2.399  13.524 -0.2050  0.2614  2.1878
16926TIP3   OH272268   5.342   2.464   4.810 -0.5120  0.1439  0.1343
16926TIP3    H172269   5.306   2.552   4.804 -0.1290  0.4186  1.8396
16926TIP3    H272270   5.436   2.475   4.795 -0.0030  0.4427  3.2734
16927TIP3   OH272271   4.288   1.673   2.483  0.1449  0.2989 -0.7339
16927TIP3    H172272   4.342   1.615   2.428  0.5508  0.5029 -0.5538
16927TIP3    H272273   4.303   1.761   2.447  1.4469  0.5992  0.5330
16928TIP3   OH272274   2.725   4.110  17.288 -0.3080  0.7143 -0.0152
16928TIP3    H172275   2.717   4.087  17.380  1.1276  1.0587  0.2102
16928TIP3    H272276   2.812   4.149  17.280 -0.4243  0.7198 -1.5071
16929TIP3   OH272277   0.508   1.353   5.110 -0.0961 -0.2364  0.1606
16929TIP3    H172278   0.540   1.341   5.020  0.3158  0.5201  0.1995
16929TIP3    H272279   0.432   1.410   5.101 -1.3019 -1.8174  0.0977
16930TIP3   OH272280   5.077   0.063   2.965 -0.6809 -0.5893 -0.2208
16930TIP3    H172281   5.150   0.125   2.956 -0.0154 -1.4157 -0.4952
16930TIP3    H272282   5.079   0.038   3.057 -1.3857  0.3145  0.0569
16931TIP3   OH272283   4.755   1.280  11.417 -0.0557 -0.3701  0.0292
16931TIP3    H172284   4.814   1.351  11.394 -0.1102 -0.4375 -0.3133
16931TIP3    H272285   4.757   1.278  11.513  2.7962 -2.3080 -0.0098
16932TIP3   OH272286   1.397   2.887   0.126  0.8714  0.2412  0.4580
16932TIP3    H172287   1.416   2.813   0.183  0.5587 -0.1157  0.1021
16932TIP3    H272288   1.304   2.904   0.140  0.9667  0.6340  0.6188
16933TIP3   OH272289   2.675   3.748  13.818  0.0121 -0.2936 -0.3119
16933TIP3    H172290   2.691   3.681  13.885 -2.9166 -0.8722 -0.1358
16933TIP3    H272291   2.757   3.753  13.769  0.3992 -3.8764 -0.1746
16934TIP3   OH272292   5.607   0.987   5.454  0.3145 -0.2882 -0.4645
16934TIP3    H172293   5.580   0.908   5.407  0.1064 -0.4120 -0.1381
16934TIP3    H272294   5.555   0.986   5.534  1.3245 -0.5602  0.2031
16935TIP3   OH272295   4.631   3.518  14.078 -0.4314 -0.1400  0.0256
16935TIP3    H172296   4.626   3.614  14.075  0.8836 -0.0621  0.0969
16935TIP3    H272297   4.642   3.497  14.170 -1.3850 -0.4066  0.0850
16936TIP3   OH272298   2.224   4.160   2.011  0.1313  0.5158  0.9417
16936TIP3    H172299   2.262   4.082   1.970 -0.4160  0.2886  0.8672
16936TIP3    H272300   2.298   4.221   2.018  0.3313  0.3840  0.0450
16937TIP3   OH272301   6.441   3.610   0.407  0.7453  0.3138  0.1661
16937TIP3    H172302   6.488   3.542   0.358 -0.2175 -1.7742  2.0412
16937TIP3    H272303   6.485   3.691   0.384  0.7853 -0.6744 -3.5960
16938TIP3   OH272304   6.116   0.902  13.043 -0.2361  0.2286 -0.3857
16938TIP3    H172305   6.067   0.848  12.982  0.4052 -0.6709 -0.1133
16938TIP3    H272306   6.160   0.967  12.988  0.3738 -0.6046 -0.8882
16939TIP3   OH272307   1.996   0.517  13.841 -0.3423 -0.2051  0.4477
16939TIP3    H172308   1.927   0.470  13.794 -0.6423 -0.1855  0.8685
16939TIP3    H272309   2.043   0.449  13.889 -0.2707 -0.1757  0.4194
16940TIP3   OH272310   3.186   6.211  15.262 -0.0824 -0.2001 -0.0661
16940TIP3    H172311   3.234   6.294  15.274  0.6697 -0.3340 -2.0154
16940TIP3    H272312   3.105   6.237  15.218 -0.9289 -0.2304  1.4380
16941TIP3   OH272313   3.574   2.525   0.787  0.0938  0.0998  0.5448
16941TIP3    H172314   3.493   2.473   0.785  0.1981 -0.1185  1.6458
16941TIP3    H272315   3.577   2.567   0.701 -0.9383 -0.2791  0.3079
16942TIP3   OH272316   0.831   0.154  12.633  0.0786 -0.0918 -0.0370
16942TIP3    H172317   0.844   0.249  12.632  1.7573 -0.2834  1.1430
16942TIP3    H272318   0.787   0.137  12.717  0.7398 -0.4660  0.2360
16943TIP3   OH272319   0.470   4.394  16.221  0.4140  0.1555 -0.6046
16943TIP3    H172320   0.488   4.412  16.129 -0.0923  1.2625 -0.4904
16943TIP3    H272321   0.390   4.342  16.221  1.0751 -0.8810 -0.8512
16944TIP3   OH272322   2.130   0.417  14.057 -0.1767  0.1716 -0.8763
16944TIP3    H172323   2.082   0.463  14.126  1.2087 -0.4594  0.5642
16944TIP3    H272324   2.216   0.400  14.096  0.0610 -1.7033 -2.1589
16945TIP3   OH272325   6.562   3.098   4.082 -0.7407 -0.0000 -0.5045
16945TIP3    H172326   6.506   3.167   4.117 -1.1307 -0.1145 -0.9038
16945TIP3    H272327   6.646   3.110   4.127 -1.4417 -0.5756  0.9642
16946TIP3   OH272328   6.697   1.555   6.828  0.2648 -0.3974 -0.5507
16946TIP3    H172329   6.756   1.516   6.892  0.8132  1.3772  0.0695
16946TIP3    H272330   6.743   1.547   6.744 -0.6921 -3.2063 -0.8379
16947TIP3   OH272331   2.934   6.384  17.074  0.0363 -0.2528  0.3763
16947TIP3    H172332   2.849   6.405  17.113  1.1186  4.0424  0.6740
16947TIP3    H272333   2.915   6.372  16.981 -1.0568 -0.3185  0.6033
16948TIP3   OH272334   2.858   6.626   2.241 -0.5237  0.0551  0.3531
16948TIP3    H172335   2.949   6.627   2.210 -0.5096 -2.2446  0.2377
16948TIP3    H272336   2.818   6.553   2.194 -2.2789  0.6733  0.8667
16949TIP3   OH272337   2.040   4.673   0.674  0.0783 -0.0983  0.4497
16949TIP3    H172338   2.026   4.685   0.768  0.7872  0.1346  0.5298
16949TIP3    H272339   1.970   4.723   0.632 -0.1065 -0.0213  0.8491
16950TIP3   OH272340   0.640   3.700  13.872  0.2594 -0.5780  0.2391
16950TIP3    H172341   0.616   3.721  13.782 -1.1478 -2.8745  0.0235
16950TIP3    H272342   0.622   3.780  13.921 -2.9668 -0.5587 -0.8468
16951TIP3   OH272343   2.173   5.243  11.232  0.0831 -0.3499  0.1621
16951TIP3    H172344   2.248   5.193  11.262 -0.3244 -0.9228  0.2363
16951TIP3    H272345   2.134   5.278  11.312  1.2116  1.3278  0.0154
16952TIP3   OH272346   3.587   5.409  16.500  0.2185  0.1466 -0.5270
16952TIP3    H172347   3.538   5.435  16.422  0.6950 -0.0200 -0.8821
16952TIP3    H272348   3.666   5.462  16.498  1.3811 -1.5694 -1.4686
16953TIP3   OH272349   3.896   1.261  11.209 -0.1039 -0.0852 -0.1162
16953TIP3    H172350   3.820   1.300  11.166 -1.4298 -1.0550  1.3024
16953TIP3    H272351   3.915   1.320  11.282  0.1774 -0.1306 -0.1512
16954TIP3   OH272352   0.890   3.607   4.527  0.1164  0.5778  0.1578
16954TIP3    H172353   0.796   3.621   4.516  0.1419  0.2156 -0.6008
16954TIP3    H272354   0.923   3.599   4.437  0.9226  1.0434  0.4102
16955TIP3   OH272355   2.159   6.352   6.176  0.2955 -0.1116 -0.0691
16955TIP3    H172356   2.070   6.317   6.177  0.8450 -1.6749 -2.0424
16955TIP3    H272357   2.215   6.275   6.183  1.5224  0.7457 -0.2330
16956TIP3   OH272358   1.513   2.865   6.021  0.7451 -0.9672 -0.6015
16956TIP3    H172359   1.466   2.788   5.990  0.6235 -1.7518  1.4333
16956TIP3    H272360   1.585   2.830   6.073  0.5045  0.2750  0.5997
16957TIP3   OH272361   5.714   1.582  13.497 -0.0715  0.3074 -0.4613
16957TIP3    H172362   5.773   1.657  13.503 -0.5732  0.8882 -2.2850
16957TIP3    H272363   5.771   1.506  13.495  0.5194  0.7396 -0.1780
16958TIP3   OH272364   2.426   1.337   4.143 -0.4926 -0.1297  0.3174
16958TIP3    H172365   2.353   1.276   4.138 -0.5503 -0.1302  1.1461
16958TIP3    H272366   2.404   1.407   4.081 -0.2169 -1.1567 -0.9658
16959TIP3   OH272367   0.777   6.597   4.778 -0.0732  0.1209 -0.1439
16959TIP3    H172368   0.801   6.515   4.821  0.4759 -0.5715 -1.7700
16959TIP3    H272369   0.690   6.580   4.741  0.8814 -0.4251 -2.2191
16960TIP3   OH272370   1.528   2.339   1.177  0.2055  0.0183  0.0018
16960TIP3    H172371   1.613   2.348   1.220  0.3757  0.8149 -0.4869
16960TIP3    H272372   1.542   2.376   1.090 -0.7122  0.3970  0.0133
16961TIP3   OH272373   4.136   5.236   3.879 -0.7697  0.1876 -0.4662
16961TIP3    H172374   4.183   5.306   3.925 -1.1861 -0.5680  1.1422
16961TIP3    H272375   4.180   5.156   3.907 -2.0016 -0.4013 -0.2053
16962TIP3   OH272376   1.386   0.357  13.158  0.1197 -0.5176 -0.0171
16962TIP3    H172377   1.373   0.433  13.101  0.7586  0.3171  0.9296
16962TIP3    H272378   1.474   0.326  13.134  0.8114  0.4475  1.1937
16963TIP3   OH272379   5.955   1.830  16.071 -0.0634  0.0045  0.0593
16963TIP3    H172380   5.920   1.764  16.131 -0.3950 -1.7586 -2.0113
16963TIP3    H272381   5.878   1.882  16.046  0.5493  2.6440  3.3892
16964TIP3   OH272382   4.644   3.006   1.413 -0.6616  0.0255 -0.0565
16964TIP3    H172383   4.616   3.076   1.472 -2.0116 -2.0395  1.8146
16964TIP3    H272384   4.695   2.947   1.467 -0.0319 -0.7667 -1.4759
16965TIP3   OH272385   0.916   2.287   2.782  0.2340 -0.9067  0.1740
16965TIP3    H172386   0.886   2.257   2.696  0.1754  0.7208 -0.3879
16965TIP3    H272387   1.002   2.325   2.766 -0.3716  0.6620  0.5848
16966TIP3   OH272388   0.194   2.832   0.697 -0.8135 -0.2323  0.3755
16966TIP3    H172389   0.188   2.861   0.788 -0.8734  2.2544 -0.3985
16966TIP3    H272390   0.103   2.810   0.674 -1.1869  1.4544  0.1864
16967TIP3   OH272391   4.680   5.622  12.997  0.3128 -0.5565 -0.2063
16967TIP3    H172392   4.642   5.706  12.970  2.4360  0.6777  0.5067
16967TIP3    H272393   4.614   5.582  13.054 -1.5377 -0.2847 -2.1059
16968TIP3   OH272394   3.318   0.141   6.101  0.1605  0.1659 -0.4663
16968TIP3    H172395   3.403   0.144   6.056  0.9110  1.2901  0.9801
16968TIP3    H272396   3.263   0.200   6.051  0.4615  0.0258 -0.9690
16969TIP3   OH272397   4.786   5.781   5.760  0.1294 -0.2067 -0.0534
16969TIP3    H172398   4.737   5.863   5.761 -0.2222 -0.4133  0.0769
16969TIP3    H272399   4.787   5.753   5.851 -1.7945 -1.5284 -0.3964
16970TIP3   OH272400   3.578   3.734   3.011 -0.2357  0.5095  0.3231
16970TIP3    H172401   3.569   3.827   2.990  0.9394  0.1446 -2.0332
16970TIP3    H272402   3.489   3.706   3.033 -1.1908  1.5534 -1.9216
16971TIP3   OH272403   3.831   2.568  12.618 -0.4560 -0.8851  0.1592
16971TIP3    H172404   3.792   2.540  12.701  0.2887 -2.5283 -0.0260
16971TIP3    H272405   3.924   2.575  12.636 -0.4775  0.3630 -0.1271
16972TIP3   OH272406   6.643   0.013   6.758 -0.3473 -0.1129  0.2103
16972TIP3    H172407   6.573   0.061   6.714 -1.1427 -0.6179  0.8926
16972TIP3    H272408   6.616  -0.079   6.751 -0.0541 -0.2597  0.9933
16973TIP3   OH272409   2.130   6.772   6.127 -0.0826  0.0719  0.5605
16973TIP3    H172410   2.221   6.753   6.150  0.9447  0.1234 -3.0534
16973TIP3    H272411   2.120   6.866   6.142  0.3631 -0.0084  1.3395
16974TIP3   OH272412   3.236   2.944  16.882  0.3864  0.0878 -0.0678
16974TIP3    H172413   3.218   3.016  16.822  1.7162  0.6701  0.2007
16974TIP3    H272414   3.150   2.913  16.910 -0.2091  0.9480 -0.9189
16975TIP3   OH272415   0.301   4.777   2.311 -0.0391  0.2856 -0.6967
16975TIP3    H172416   0.269   4.729   2.234  0.4230  0.9613 -1.3169
16975TIP3    H272417   0.227   4.832   2.337 -0.5373 -0.6896 -0.0435
16976TIP3   OH272418   1.699   2.770   4.461 -0.5047 -0.0527  0.1817
16976TIP3    H172419   1.631   2.838   4.469 -1.4306 -0.9329 -0.1686
16976TIP3    H272420   1.780   2.819   4.448 -1.3589  0.9671 -1.5029
16977TIP3   OH272421   2.301   2.144  16.476 -0.1568  0.2982  0.2959
16977TIP3    H172422   2.334   2.234  16.473 -1.7405  0.8785 -0.0874
16977TIP3    H272423   2.209   2.153  16.501 -0.4267 -1.1960 -0.0995
16978TIP3   OH272424   3.630   2.501  10.890 -0.1912  0.2178  0.4087
16978TIP3    H172425   3.619   2.486  10.984  2.0199 -0.7479  0.5392
16978TIP3    H272426   3.560   2.450  10.849 -1.8543  1.5188  1.5528
16979TIP3   OH272427   0.446   3.062  11.041  0.1120  0.0224  0.4148
16979TIP3    H172428   0.477   3.133  10.985  1.2552  0.0339  1.0388
16979TIP3    H272429   0.466   2.982  10.991 -0.3491  0.1031  0.1023
16980TIP3   OH272430   0.547   1.917   1.476 -0.7248  0.0448 -0.0994
16980TIP3    H172431   0.475   1.962   1.522 -1.1494 -1.1804  0.4653
16980TIP3    H272432   0.504   1.846   1.428  0.3174 -2.1119  2.0287
16981TIP3   OH272433   1.299   2.153   5.770  0.0623  0.1615  0.1368
16981TIP3    H172434   1.285   2.125   5.860  0.9152 -0.1668  0.1675
16981TIP3    H272435   1.378   2.106   5.742 -0.5754 -0.2536 -0.9980
16982TIP3   OH272436   4.605   4.160   4.467  0.1931  0.2154 -0.6270
16982TIP3    H172437   4.598   4.253   4.487 -0.3210 -0.1160  0.7360
16982TIP3    H272438   4.523   4.121   4.498  0.5255 -0.7444 -0.9124
16983TIP3   OH272439   5.547   4.675   5.803  0.5847 -0.6097  0.2001
16983TIP3    H172440   5.497   4.650   5.880  0.6366  3.1191  1.5353
16983TIP3    H272441   5.495   4.744   5.762  2.9400  0.8756 -0.3457
16984TIP3   OH272442   5.237   2.796   4.853 -0.3902 -0.1050 -0.3942
16984TIP3    H172443   5.330   2.800   4.876 -0.2442  0.3660 -1.0573
16984TIP3    H272444   5.194   2.853   4.918 -0.0745  0.5789 -0.7744
16985TIP3   OH272445   1.921   5.646  15.700  0.1242  0.1562  0.0541
16985TIP3    H172446   1.836   5.679  15.726  0.0926  0.6438 -0.6483
16985TIP3    H272447   1.903   5.559  15.663  0.0224 -0.0300  0.5415
16986TIP3   OH272448   3.596   3.046  12.066  0.0889 -0.5969  0.4865
16986TIP3    H172449   3.569   3.134  12.093  0.4990 -0.4735  0.4975
16986TIP3    H272450   3.612   3.000  12.149  1.1145 -0.2915  0.4711
16987TIP3   OH272451   4.666   1.434   0.267 -0.5843  0.0153  0.1526
16987TIP3    H172452   4.691   1.526   0.272 -2.0738  0.3737  1.4276
16987TIP3    H272453   4.665   1.404   0.358 -2.0720 -0.7078 -0.0821
16988TIP3   OH272454   2.077   1.309   1.447  0.1214  0.1286  0.0150
16988TIP3    H172455   2.000   1.359   1.475 -1.1355 -1.6032 -0.2595
16988TIP3    H272456   2.134   1.374   1.407 -2.1644  1.1206 -1.7453
16989TIP3   OH272457   1.874   0.085   5.471 -0.3192 -0.2472  0.1804
16989TIP3    H172458   1.835   0.154   5.525 -0.4067 -1.0330  1.1549
16989TIP3    H272459   1.961   0.117   5.449 -1.0905  1.0303 -1.0495
16990TIP3   OH272460   2.772   4.946   0.447  0.0728 -0.0528 -0.2526
16990TIP3    H172461   2.838   4.996   0.399 -1.2618  1.0668 -1.0042
16990TIP3    H272462   2.796   4.955   0.539  0.7323  0.7053 -0.4952
16991TIP3   OH272463   5.628   4.745  12.629 -0.6589 -0.0805 -0.5819
16991TIP3    H172464   5.692   4.674  12.625 -1.2263 -0.6078 -0.3740
16991TIP3    H272465   5.640   4.784  12.716 -1.5707 -1.0889  0.0192
16992TIP3   OH272466   3.528   0.440   5.658  0.4721 -0.3415  0.0335
16992TIP3    H172467   3.616   0.429   5.693  0.2863 -2.0135  0.0155
16992TIP3    H272468   3.541   0.451   5.564  0.8189  2.0029  0.3211
16993TIP3   OH272469   5.255   2.664  13.439  0.0947 -0.1745  0.2356
16993TIP3    H172470   5.295   2.741  13.399  0.0251  0.0186  0.5361
16993TIP3    H272471   5.321   2.595  13.430 -0.6323 -0.6247 -1.8574
16994TIP3   OH272472   5.234   3.629   3.047 -0.0087  0.0080  0.0520
16994TIP3    H172473   5.269   3.541   3.043  0.3227  0.0578  1.5019
16994TIP3    H272474   5.303   3.685   3.011  0.9648 -0.0248  1.8048
16995TIP3   OH272475   6.095   0.005  15.286 -0.3211 -0.1982 -0.3079
16995TIP3    H172476   6.111   0.016  15.380 -0.9108 -1.3388 -0.0550
16995TIP3    H272477   6.000   0.017  15.276 -0.2460  0.0155 -0.7700
16996TIP3   OH272478   3.309   2.811   4.009  0.7062 -0.3433  0.0670
16996TIP3    H172479   3.233   2.810   4.068  1.5705 -0.9444  1.1808
16996TIP3    H272480   3.369   2.747   4.047  1.9041  0.3439 -0.6518
16997TIP3   OH272481   4.726   6.343   2.183 -0.0384  0.3501 -0.2310
16997TIP3    H172482   4.753   6.292   2.260 -0.2895  0.9379  0.2533
16997TIP3    H272483   4.712   6.278   2.115  0.1699 -0.1815  0.2264
16998TIP3   OH272484   5.358   1.565   2.825 -0.0272  0.1334 -0.3777
16998TIP3    H172485   5.313   1.481   2.814  0.5396  0.0445 -2.1460
16998TIP3    H272486   5.329   1.618   2.751  2.5053  0.1787 -1.4027
16999TIP3   OH272487   2.672   4.025   5.073  0.1410  0.1128  0.7638
16999TIP3    H172488   2.752   3.988   5.110  0.4583  0.3637  0.3335
16999TIP3    H272489   2.627   4.064   5.148  0.9883  0.9939  0.8254
17000TIP3   OH272490   5.305   5.632   0.632 -0.5121 -0.6278  0.9569
17000TIP3    H172491   5.253   5.609   0.709  0.2001 -1.2211  1.2648
17000TIP3    H272492   5.264   5.583   0.560  0.0121 -1.6081  1.3176
17001TIP3   OH272493   2.863   0.508   3.424 -0.1918  0.0048  0.0580
17001TIP3    H172494   2.796   0.504   3.357  0.9500  0.0977 -1.1055
17001TIP3    H272495   2.946   0.512   3.376  0.5872  1.2618  1.4492
17002TIP3   OH272496   4.776   4.225   2.759 -0.0206  0.1309  0.3646
17002TIP3    H172497   4.809   4.290   2.697 -0.5666  1.0114  0.9868
17002TIP3    H272498   4.696   4.264   2.795  0.1154 -0.5003  1.3814
17003TIP3   OH272499   0.491   1.183   2.049 -0.0832  0.2047 -0.4053
17003TIP3    H172500   0.420   1.135   2.094 -0.2051  0.4929 -0.2878
17003TIP3    H272501   0.489   1.270   2.089 -1.0189  0.8569 -1.8603
17004TIP3   OH272502   0.018   4.730  10.650 -0.0092  0.1223 -0.1489
17004TIP3    H172503  -0.076   4.736  10.636  0.1469  1.6551 -0.5523
17004TIP3    H272504   0.040   4.640  10.625 -1.6149 -0.7622  1.5223
17005TIP3   OH272505   6.247   2.163  15.457  0.6786 -0.2655 -0.1606
17005TIP3    H172506   6.233   2.154  15.363  2.6850 -0.0137 -0.5190
17005TIP3    H272507   6.296   2.245  15.466 -0.5651  0.3556  1.2306
17006TIP3   OH272508   5.545   2.157   4.385  0.1336  0.5945  0.0803
17006TIP3    H172509   5.603   2.208   4.442  0.8869 -0.2715  0.0976
17006TIP3    H272510   5.458   2.191   4.403  0.6677  2.1576 -0.1865
17007TIP3   OH272511   0.656   3.602   1.233 -0.3436  0.3496  0.1097
17007TIP3    H172512   0.584   3.646   1.278 -0.1711  1.3435 -0.5571
17007TIP3    H272513   0.656   3.513   1.268 -0.1401  1.1206  2.1592
17008TIP3   OH272514   6.725   1.860  15.021  0.3491  0.2562 -0.0610
17008TIP3    H172515   6.707   1.766  15.017  0.8339  0.1695 -0.2306
17008TIP3    H272516   6.800   1.867  15.080 -1.0548  0.7342  1.7082
17009TIP3   OH272517   4.705   2.996  14.879 -0.1037 -0.6964 -0.3350
17009TIP3    H172518   4.771   2.958  14.938  0.5635 -0.9726 -1.2549
17009TIP3    H272519   4.743   2.987  14.792 -1.8195 -1.8121 -0.9924
17010TIP3   OH272520   5.228   6.617   6.003 -0.2252 -0.4558  0.5860
17010TIP3    H172521   5.255   6.617   5.911  0.0626  0.1158  0.6671
17010TIP3    H272522   5.137   6.644   6.001 -0.6334 -1.7834  0.3598
17011TIP3   OH272523   4.162   4.681   3.862 -0.2585 -0.0971  0.0401
17011TIP3    H172524   4.079   4.643   3.835  0.2657  0.4890 -2.4898
17011TIP3    H272525   4.193   4.623   3.932 -2.3932 -0.7518  0.4750
17012TIP3   OH272526   1.916   1.045   0.092  0.0554 -0.8797 -0.0233
17012TIP3    H172527   1.920   1.061   0.187 -1.4715 -3.3929  0.4975
17012TIP3    H272528   1.967   0.965   0.079 -0.0806 -0.7638 -1.2893
17013TIP3   OH272529   0.361   1.596   6.669  0.4007  0.1291  0.7403
17013TIP3    H172530   0.389   1.684   6.697 -0.9999  0.7342  0.2793
17013TIP3    H272531   0.397   1.587   6.581 -0.6442  0.8147  0.2351
17014TIP3   OH272532   4.761   0.032   3.434 -0.1405  0.1279 -0.2859
17014TIP3    H172533   4.749   0.012   3.341  0.3993  0.0887 -0.3441
17014TIP3    H272534   4.836   0.091   3.437 -0.3465  0.3723  0.0986
17015TIP3   OH272535   6.568   6.350  11.791  0.0668 -0.4190  0.1866
17015TIP3    H172536   6.591   6.404  11.867  1.9325 -0.5607 -0.2379
17015TIP3    H272537   6.572   6.260  11.823  1.4877 -0.5124 -0.2097
17016TIP3   OH272538   2.367   1.800   1.042 -0.3565 -0.2548 -0.0510
17016TIP3    H172539   2.424   1.731   1.076  0.3425  0.7164  0.7756
17016TIP3    H272540   2.291   1.753   1.008 -0.2437 -1.3761  1.2110
17017TIP3   OH272541   5.152   0.697  12.073 -0.4502  0.4157  0.0523
17017TIP3    H172542   5.058   0.715  12.079 -0.1443  1.6169  1.7354
17017TIP3    H272543   5.173   0.710  11.981 -1.3348  3.4103  0.1940
17018TIP3   OH272544   1.970   3.770   4.644 -0.5549 -0.7368 -0.0382
17018TIP3    H172545   1.945   3.826   4.718 -1.5580  1.9069 -2.3102
17018TIP3    H272546   2.063   3.787   4.631 -0.5196 -0.7322  0.2219
17019TIP3   OH272547   0.560   6.377  13.135 -0.3356 -0.1009  0.1420
17019TIP3    H172548   0.604   6.462  13.127 -1.9255  0.7336  0.0961
17019TIP3    H272549   0.583   6.330  13.054 -2.2169  1.6156 -1.4379
17020TIP3   OH272550   6.418   3.745  14.186  0.3330 -0.8158  0.3309
17020TIP3    H172551   6.435   3.793  14.105  0.5582  0.2112  0.9738
17020TIP3    H272552   6.323   3.745  14.195  0.2647 -1.6887 -0.3813
17021TIP3   OH272553   6.215   3.315   6.434 -0.1330  0.5763  0.0999
17021TIP3    H172554   6.191   3.260   6.360 -2.1926  0.7079  0.6436
17021TIP3    H272555   6.172   3.275   6.510 -0.0851  1.8211  0.8085
17022TIP3   OH272556   5.225   4.162  12.534  0.0513 -0.2388 -0.1223
17022TIP3    H172557   5.189   4.080  12.500 -1.8611  0.9235 -1.0148
17022TIP3    H272558   5.166   4.229  12.500  2.2999  1.6221 -0.4386
17023TIP3   OH272559   6.715   6.311   0.415  0.4197 -0.2782  0.8416
17023TIP3    H172560   6.739   6.301   0.322  0.7747 -1.2446  1.0290
17023TIP3    H272561   6.620   6.306   0.415  0.2450  2.2700  0.2453
17024TIP3   OH272562   4.433   0.475   5.888  0.0683  0.0115  0.0833
17024TIP3    H172563   4.362   0.534   5.866 -1.2756 -0.6323  2.5632
17024TIP3    H272564   4.497   0.530   5.933 -0.8257 -0.2295  1.6843
17025TIP3   OH272565   2.006   4.382   3.553 -0.4993 -0.1121 -0.1225
17025TIP3    H172566   2.044   4.313   3.607 -0.8044  0.2597  0.5723
17025TIP3    H272567   1.991   4.341   3.468  1.3524 -0.2849 -0.3729
17026TIP3   OH272568   3.187   1.184   6.120 -0.5692  0.8083 -0.5203
17026TIP3    H172569   3.261   1.128   6.097  0.4672  2.0120 -0.1769
17026TIP3    H272570   3.122   1.124   6.156  0.8048 -0.0907  0.4981
17027TIP3   OH272571   6.277   3.392  12.619 -0.1606 -0.8718  0.0392
17027TIP3    H172572   6.324   3.342  12.553 -1.5153 -0.3285 -1.3637
17027TIP3    H272573   6.339   3.461  12.645 -0.1011 -0.2762 -1.6393
17028TIP3   OH272574   0.743   6.802  11.301 -0.3305 -0.8901 -0.1621
17028TIP3    H172575   0.666   6.797  11.358  0.1548 -0.4940  0.5378
17028TIP3    H272576   0.768   6.710  11.287 -1.0922 -1.0309 -0.6265
17029TIP3   OH272577   4.548   5.125   6.665 -0.3446 -0.6149 -0.2081
17029TIP3    H172578   4.515   5.183   6.597 -0.7597 -0.7163 -0.0977
17029TIP3    H272579   4.643   5.125   6.654 -0.5973 -3.3960 -3.0857
17030TIP3   OH272580   5.084   3.655  11.267 -0.6082 -0.4752  0.7777
17030TIP3    H172581   5.164   3.685  11.311 -0.2099 -0.0759 -0.2058
17030TIP3    H272582   5.070   3.566  11.301  0.1671 -0.4894  1.0826
17031TIP3   OH272583   2.817   2.839  13.494 -0.2452  0.0779 -0.7189
17031TIP3    H172584   2.866   2.901  13.441 -0.5159 -0.1977 -1.2897
17031TIP3    H272585   2.733   2.882  13.512 -0.7478 -0.4330 -1.7778
17032TIP3   OH272586   6.324   4.857  13.537  0.2432 -0.6723 -0.4103
17032TIP3    H172587   6.233   4.885  13.535  0.5730  0.4660  0.5266
17032TIP3    H272588   6.353   4.863  13.445 -0.0529  0.8658 -0.4088
17033TIP3   OH272589   5.597   2.334  16.044 -0.2610 -0.4441  0.4347
17033TIP3    H172590   5.652   2.256  16.030  0.4316 -0.1099  1.2924
17033TIP3    H272591   5.644   2.404  15.999  0.2149 -0.0800  1.4850
17034TIP3   OH272592   2.747   0.376  15.808  0.2876  0.0728 -0.0081
17034TIP3    H172593   2.741   0.322  15.887 -0.2446  0.3029  0.1064
17034TIP3    H272594   2.744   0.466  15.839 -0.1843  0.1634 -0.3097
17035TIP3   OH272595   4.233   4.667  15.635  0.2526 -0.0325  0.1675
17035TIP3    H172596   4.216   4.589  15.689  0.6452 -0.5528 -0.4636
17035TIP3    H272597   4.167   4.662  15.565  1.1069 -0.4944 -0.6152
17036TIP3   OH272598   1.164   6.551  16.153  0.4503  0.6845 -0.2120
17036TIP3    H172599   1.113   6.611  16.098 -0.4448 -0.1144 -0.2508
17036TIP3    H272600   1.144   6.464  16.119  0.8655  0.2736  0.5878
17037TIP3   OH272601   3.901   3.224  14.366  0.3202 -0.1130  0.1010
17037TIP3    H172602   3.858   3.203  14.283  2.6874 -1.7692 -0.7642
17037TIP3    H272603   3.995   3.212  14.348  0.7784 -2.0054  3.4270
17038TIP3   OH272604   1.608   2.241  12.021 -0.2015  0.3241  0.1804
17038TIP3    H172605   1.653   2.216  11.940 -2.6065 -1.6769 -0.5993
17038TIP3    H272606   1.679   2.266  12.081  1.9286 -2.2629 -1.1524
17039TIP3   OH272607   1.513   1.661  11.811 -0.4365 -0.8046 -0.4385
17039TIP3    H172608   1.465   1.715  11.874  1.5581  0.5006  0.0229
17039TIP3    H272609   1.472   1.681  11.727 -3.1650 -2.6081  0.3793
17040TIP3   OH272610   2.281   0.459   0.990 -0.4963 -0.6149 -0.4003
17040TIP3    H172611   2.227   0.538   0.995  0.3427 -0.0437 -0.1973
17040TIP3    H272612   2.268   0.426   0.902  0.1646  0.5018 -0.9331
17041TIP3   OH272613   5.648   0.609   2.393  0.4686  0.8813 -0.0661
17041TIP3    H172614   5.593   0.686   2.381 -0.7611  0.1953  0.9921
17041TIP3    H272615   5.594   0.549   2.444  1.3182 -0.7809 -1.0789
17042TIP3   OH272616   0.650   2.744   3.984 -0.6711  0.2740 -0.0435
17042TIP3    H172617   0.669   2.662   3.939 -1.7643 -1.9765  3.4145
17042TIP3    H272618   0.560   2.765   3.959 -1.1286 -0.7353  0.7497
17043TIP3   OH272619   1.738   5.843  12.952 -0.2443 -0.0804 -0.2839
17043TIP3    H172620   1.709   5.935  12.954  0.0497  0.0307 -1.1184
17043TIP3    H272621   1.716   5.809  13.039 -1.8945  0.3020 -0.5534
17044TIP3   OH272622   3.314   6.001  16.858 -0.6882 -0.0567 -0.6736
17044TIP3    H172623   3.256   5.938  16.901 -1.3814 -0.3444 -1.9910
17044TIP3    H272624   3.282   6.005  16.768 -0.1729  1.6123 -0.8009
17045TIP3   OH272625   1.186   6.257  11.182 -0.0322  0.1620  0.1587
17045TIP3    H172626   1.165   6.177  11.230 -1.2150  0.5199  0.2663
17045TIP3    H272627   1.110   6.271  11.125  1.5752 -0.5427 -2.2329
17046TIP3   OH272628   1.852   4.816  12.817  0.2339 -0.3081 -0.0009
17046TIP3    H172629   1.875   4.728  12.849 -0.4234 -0.3992  0.2244
17046TIP3    H272630   1.780   4.844  12.873  0.0315  0.1209 -0.4728
17047TIP3   OH272631   6.269   1.522  14.430  0.5230 -0.3169 -0.2513
17047TIP3    H172632   6.338   1.471  14.471 -0.1787  0.0213  1.3887
17047TIP3    H272633   6.228   1.461  14.368  0.0578 -1.5997  1.2829
17048TIP3   OH272634   5.231   2.693  11.999  0.1738 -0.0198 -0.3533
17048TIP3    H172635   5.216   2.708  12.093  1.4217 -0.3594 -0.0861
17048TIP3    H272636   5.264   2.776  11.967 -0.5050  0.1745 -0.5470
17049TIP3   OH272637   4.917   1.343   0.954  0.3005 -0.2760 -0.4061
17049TIP3    H172638   4.991   1.404   0.941  1.6450 -1.6989  0.4000
17049TIP3    H272639   4.876   1.373   1.035 -0.5133  1.0073 -1.2749
17050TIP3   OH272640   4.571   1.133  12.683 -0.9961 -0.0697  0.4174
17050TIP3    H172641   4.639   1.065  12.675 -0.7874  0.0372  1.2320
17050TIP3    H272642   4.609   1.209  12.640 -1.7150 -0.7931 -1.6032
17051TIP3   OH272643   3.743   0.826   2.980  0.2564 -0.1016  0.6002
17051TIP3    H172644   3.702   0.752   2.934  0.6332  0.5537 -0.8043
17051TIP3    H272645   3.833   0.796   2.997  0.2817 -0.1277  0.4186
17052TIP3   OH272646   6.197   1.583   2.282 -0.0175  0.5511  0.1794
17052TIP3    H172647   6.109   1.548   2.297 -0.0237 -0.0490 -1.1658
17052TIP3    H272648   6.186   1.678   2.287 -0.4405  0.4432  1.5803
17053TIP3   OH272649   3.963   1.452  12.400 -0.1786  0.3942  0.4144
17053TIP3    H172650   3.892   1.516  12.398 -0.9670 -0.4832 -1.6075
17053TIP3    H272651   4.043   1.504  12.395 -0.7567  1.3099  0.5516
17054TIP3   OH272652   5.423   5.310  11.371 -0.0369  0.0742 -0.1443
17054TIP3    H172653   5.374   5.249  11.427  1.8177 -1.7403 -0.4292
17054TIP3    H272654   5.382   5.300  11.285 -1.5125  1.2888  0.3954
17055TIP3   OH272655   2.787   0.144   4.878 -0.0746  0.3021 -0.1689
17055TIP3    H172656   2.731   0.119   4.804  1.1800  4.1809 -2.5989
17055TIP3    H272657   2.870   0.100   4.861 -0.1963  0.1655 -0.4120
17056TIP3   OH272658   3.340   4.105  15.704 -0.1363  0.1713  0.0414
17056TIP3    H172659   3.383   4.190  15.706 -1.2164  0.7019  1.0250
17056TIP3    H272660   3.257   4.121  15.657 -0.6456 -0.1784  0.8102
17057TIP3   OH272661   4.018   0.340  16.944 -0.3201  0.0238  0.0422
17057TIP3    H172662   4.043   0.333  16.852 -2.0907 -2.1486 -0.2984
17057TIP3    H272663   4.102   0.342  16.991  0.6143  1.8730 -1.6270
17058TIP3   OH272664   2.285   5.238  12.438 -0.5270  0.2541 -0.9427
17058TIP3    H172665   2.233   5.286  12.374  0.5378 -0.2731 -2.2381
17058TIP3    H272666   2.376   5.261  12.417 -0.1138 -0.8416 -0.3776
17059TIP3   OH272667   5.383   2.577  11.604  0.9295  0.4474 -0.3620
17059TIP3    H172668   5.467   2.610  11.571  0.4074 -0.0654 -2.2610
17059TIP3    H272669   5.318   2.636  11.568  0.3777  0.2372  0.2700
17060TIP3   OH272670   2.816   2.688  13.238 -0.4238 -0.0744  0.3298
17060TIP3    H172671   2.809   2.740  13.158  2.8942 -0.3057 -0.1831
17060TIP3    H272672   2.836   2.753  13.306  1.6295 -0.3879  0.0594
17061TIP3   OH272673   3.579   4.468   1.382  0.4796 -0.5174  0.3892
17061TIP3    H172674   3.624   4.550   1.358  0.4556 -0.4418  0.6061
17061TIP3    H272675   3.646   4.414   1.423  0.2189 -0.1414  1.3218
17062TIP3   OH272676   4.164   1.529  16.841  0.1653  0.2613 -0.0354
17062TIP3    H172677   4.081   1.502  16.880 -0.3519  1.2968 -0.3932
17062TIP3    H272678   4.182   1.615  16.878  0.7451  0.3294 -0.4619
17063TIP3   OH272679   1.250   3.001   4.317  0.5386 -0.4133 -0.4126
17063TIP3    H172680   1.315   3.071   4.307  0.8794 -0.6590  0.0581
17063TIP3    H272681   1.253   2.953   4.234  1.1078 -0.5480 -0.3176
17064TIP3   OH272682   5.341   4.181   3.565 -0.0626 -0.5765  0.4438
17064TIP3    H172683   5.348   4.096   3.609 -0.8839 -0.8654  0.0266
17064TIP3    H272684   5.248   4.189   3.542 -0.2928  1.1433  1.8780
17065TIP3   OH272685   2.701   0.831  14.209  0.1548  0.0450 -0.5355
17065TIP3    H172686   2.675   0.766  14.145 -1.4702 -0.2604  0.3947
17065TIP3    H272687   2.773   0.791  14.257  0.8133 -0.0594 -1.5967
17066TIP3   OH272688   4.836   4.966   1.460  0.6968 -0.2392 -0.2069
17066TIP3    H172689   4.871   4.972   1.371 -0.0227  2.0768 -0.3754
17066TIP3    H272690   4.905   4.921   1.509  2.8390  1.9511 -1.0888
17067TIP3   OH272691   1.204   2.854   0.718 -0.5713  0.2314  0.1683
17067TIP3    H172692   1.127   2.797   0.723 -1.0096  0.8959  1.3295
17067TIP3    H272693   1.176   2.936   0.760  0.9538  0.2714  1.1431
17068TIP3   OH272694   6.088   6.244  16.911  0.0288 -0.6984 -0.1051
17068TIP3    H172695   6.120   6.283  16.992  1.2564  0.6483 -1.1868
17068TIP3    H272696   6.155   6.267  16.846 -1.4909 -0.7425 -1.7276
17069TIP3   OH272697   1.524   2.886   4.766 -0.2902  0.0250 -0.5589
17069TIP3    H172698   1.584   2.957   4.787  1.5708 -1.9000  0.9697
17069TIP3    H272699   1.510   2.892   4.672  2.7895  0.2097 -1.0461
17070TIP3   OH272700   5.205   1.371  14.811  0.1492 -0.0164 -0.1343
17070TIP3    H172701   5.294   1.401  14.796 -0.3545  0.2987 -2.6375
17070TIP3    H272702   5.164   1.441  14.862  0.9193  0.4530 -0.1608
17071TIP3   OH272703   0.070   3.008  14.916 -0.1862 -0.3387 -0.3059
17071TIP3    H172704   0.045   2.934  14.861  1.0223 -1.8076  1.0824
17071TIP3    H272705   0.164   2.998  14.929 -0.0775  1.2248  0.2124
17072TIP3   OH272706   3.116   3.410  14.947  0.0134 -0.4972 -0.3649
17072TIP3    H172707   3.180   3.382  15.013 -0.7011 -3.4682 -0.8639
17072TIP3    H272708   3.031   3.394  14.987 -0.4279 -1.8694 -1.7934
17073TIP3   OH272709   3.827   5.674  12.692  0.0343 -0.0651  0.5857
17073TIP3    H172710   3.849   5.611  12.760  0.6310 -0.1477  0.3190
17073TIP3    H272711   3.740   5.648  12.663  0.2152 -0.6712  0.5875
17074TIP3   OH272712   2.888   5.188  16.747  0.1848 -0.1138 -0.3362
17074TIP3    H172713   2.831   5.264  16.737  1.2654  0.7707  0.1561
17074TIP3    H272714   2.895   5.175  16.841 -0.3093 -1.0698 -0.4264
17075TIP3   OH272715   5.158   1.664   2.640  0.4281 -0.1981 -0.1424
17075TIP3    H172716   5.139   1.586   2.589 -0.6864 -0.4921  0.7099
17075TIP3    H272717   5.106   1.654   2.720  1.6843  0.5319  0.7868
17076TIP3   OH272718   5.771   2.957   1.363  0.0583  0.1577  0.4613
17076TIP3    H172719   5.847   3.013   1.381 -0.1400  0.5113  0.2074
17076TIP3    H272720   5.715   2.968   1.440 -0.4446  1.0925 -0.0222
17077TIP3   OH272721   5.493   2.601  16.210 -0.6178 -0.1821 -0.0458
17077TIP3    H172722   5.425   2.542  16.178 -0.7681 -0.4183  0.6916
17077TIP3    H272723   5.569   2.544  16.223 -0.5042 -0.0555 -0.1555
17078TIP3   OH272724   5.597   1.697  16.639  0.1664 -0.0545 -0.2503
17078TIP3    H172725   5.574   1.761  16.572 -0.9199 -0.4303 -0.2436
17078TIP3    H272726   5.608   1.749  16.719 -2.4483 -0.0519  0.1514
17079TIP3   OH272727   0.285   5.937   3.176 -0.0001  0.1009  0.2447
17079TIP3    H172728   0.238   5.886   3.110  0.5241 -1.1609  0.8294
17079TIP3    H272729   0.377   5.929   3.151  0.1248  0.3652  0.6199
17080TIP3   OH272730   3.875   1.833   1.142  0.3482  0.4062 -0.0950
17080TIP3    H172731   3.854   1.899   1.076  0.3001  0.4778 -0.0070
17080TIP3    H272732   3.790   1.809   1.180  0.2450 -0.4440 -0.8358
17081TIP3   OH272733   2.868   2.635  17.161 -0.9031 -0.0553 -0.1679
17081TIP3    H172734   2.837   2.660  17.248  2.0466 -2.1196  1.5919
17081TIP3    H272735   2.954   2.677  17.154 -0.1638 -1.6944 -1.1660
17082TIP3   OH272736   6.075   4.191   4.024  0.4701 -0.2277 -0.6331
17082TIP3    H172737   6.058   4.285   4.016 -0.2848 -0.3389 -0.3529
17082TIP3    H272738   6.089   4.161   3.934  1.6361  0.3184 -0.6423
17083TIP3   OH272739   5.006   3.914   5.814 -0.1865  0.3371  0.4109
17083TIP3    H172740   5.009   3.988   5.874 -3.4457 -0.0281  1.1127
17083TIP3    H272741   5.057   3.846   5.857  1.3206  1.5826  0.6063
17084TIP3   OH272742   1.464   1.071   3.106 -0.1347 -0.1588  0.4915
17084TIP3    H172743   1.538   1.130   3.120  0.5056 -0.5812 -1.0192
17084TIP3    H272744   1.471   1.007   3.177  1.0335 -0.2732  0.2877
17085TIP3   OH272745   6.269   6.453   5.901 -0.3178 -0.1729  0.1380
17085TIP3    H172746   6.322   6.527   5.931  1.1421 -0.6785 -1.1087
17085TIP3    H272747   6.291   6.382   5.962 -0.0757 -0.1902  0.0317
17086TIP3   OH272748   4.354   1.392   2.972  0.1806  0.5924  0.3036
17086TIP3    H172749   4.418   1.422   2.907  0.4978  1.3414  0.9475
17086TIP3    H272750   4.286   1.349   2.921  0.0613  1.8225 -0.6037
17087TIP3   OH272751   5.064   0.301   4.724 -0.3094  0.6794 -0.3451
17087TIP3    H172752   5.135   0.260   4.675 -1.9118  0.1957 -2.3141
17087TIP3    H272753   5.089   0.289   4.816  1.0851 -1.3942 -0.9566
17088TIP3   OH272754   1.159   4.263   3.198 -0.1356 -0.2647 -0.4104
17088TIP3    H172755   1.154   4.267   3.102 -1.9705  1.5162 -0.2751
17088TIP3    H272756   1.094   4.199   3.224 -0.5559  0.2107 -0.2860
17089TIP3   OH272757   3.669   4.715   3.953 -0.5476  0.0638 -0.2713
17089TIP3    H172758   3.674   4.736   3.860 -1.4345  0.6402 -0.1967
17089TIP3    H272759   3.579   4.737   3.978 -0.4409 -0.4864  0.6227
17090TIP3   OH272760   1.997   6.285  12.120 -0.4778  0.3651 -0.0641
17090TIP3    H172761   2.079   6.333  12.110 -0.1967 -0.1818 -0.4032
17090TIP3    H272762   1.930   6.353  12.126  0.0136  0.8141  0.3397
17091TIP3   OH272763   5.214   4.406   2.019 -0.5532 -0.2214 -0.3462
17091TIP3    H172764   5.158   4.467   2.068  0.7916  0.0248  0.9223
17091TIP3    H272765   5.303   4.434   2.040  0.0588 -1.7076 -0.9418
17092TIP3   OH272766   1.414   5.773  15.171 -0.5122 -0.1994  0.0567
17092TIP3    H172767   1.478   5.773  15.243 -0.3039 -0.1083 -0.1287
17092TIP3    H272768   1.412   5.682  15.142 -1.0668 -0.3681  0.5944
17093TIP3   OH272769   6.717   0.072  11.777 -0.0319 -0.5407  0.8390
17093TIP3    H172770   6.699  -0.021  11.759  1.2265 -0.4284 -1.0607
17093TIP3    H272771   6.675   0.119  11.706 -0.5800  0.3682  1.7485
17094TIP3   OH272772   3.394   3.192  12.266  0.4697 -0.0862  0.3136
17094TIP3    H172773   3.388   3.155  12.354  0.3735  0.4521  0.5341
17094TIP3    H272774   3.313   3.240  12.254 -0.2747 -1.5727 -0.7313
17095TIP3   OH272775   5.503   1.739   5.401  0.5714 -0.2976 -0.3011
17095TIP3    H172776   5.411   1.751   5.378  0.6621  1.8654  0.3838
17095TIP3    H272777   5.550   1.756   5.319  0.4433 -0.0125 -0.3168
17096TIP3   OH272778   2.346   0.491  14.212  0.0319 -0.7892 -0.1614
17096TIP3    H172779   2.272   0.506  14.270  0.7201  0.8411  0.3179
17096TIP3    H272780   2.378   0.578  14.190  0.8504 -1.4270 -1.6189
17097TIP3   OH272781   0.657   4.770  13.557 -0.0922  0.3945  0.3141
17097TIP3    H172782   0.709   4.830  13.610  0.3990  0.5465 -0.3321
17097TIP3    H272783   0.719   4.704  13.527 -0.4276  0.1315  0.1964
17098TIP3   OH272784   2.215   6.367   5.571  0.2300  0.2949  0.0014
17098TIP3    H172785   2.271   6.363   5.649  0.0947  0.0426  0.0878
17098TIP3    H272786   2.245   6.294   5.517  0.8812  0.9803 -0.5671
17099TIP3   OH272787   1.478   5.294   4.224  0.0770  0.4083 -0.4852
17099TIP3    H172788   1.481   5.203   4.253  0.2334  0.7308  0.5359
17099TIP3    H272789   1.438   5.291   4.137  0.9060 -0.7205 -0.8393
17100TIP3   OH272790   4.415   2.637   2.574 -0.0929 -0.5535  1.3585
17100TIP3    H172791   4.358   2.676   2.641 -0.5520 -0.0217  0.6681
17100TIP3    H272792   4.444   2.555   2.613 -0.3223 -0.2314  2.2326
17101TIP3   OH272793   0.145   1.241   0.675  0.0609 -0.4644  0.2846
17101TIP3    H172794   0.167   1.281   0.759  1.5833 -0.4009 -0.1286
17101TIP3    H272795   0.187   1.155   0.677  0.5112 -0.2731 -0.5885
17102TIP3   OH272796   2.471   2.639  14.296  0.3357  0.1678  0.0204
17102TIP3    H172797   2.528   2.661  14.370 -1.1848 -0.1823  1.3177
17102TIP3    H272798   2.457   2.722  14.251  1.1088  0.4253  0.2477
17103TIP3   OH272799   1.731   2.652   1.304  0.0617  0.0830 -0.1703
17103TIP3    H172800   1.756   2.570   1.345  0.5682  0.7613  0.9030
17103TIP3    H272801   1.786   2.718   1.346 -0.5263  1.0131 -0.8277
17104TIP3   OH272802   6.219   5.307   3.902  0.1280 -0.1365  0.4675
17104TIP3    H172803   6.179   5.348   3.825 -1.6475  0.2513  1.5655
17104TIP3    H272804   6.232   5.379   3.964  1.0440 -0.5344  0.7472
17105TIP3   OH272805   5.774   0.039   4.518  0.2364  0.2905 -0.4476
17105TIP3    H172806   5.869   0.034   4.521  0.2828  0.9006 -0.7745
17105TIP3    H272807   5.744  -0.052   4.522  0.7709  0.1903  1.5137
17106TIP3   OH272808   1.779   5.250  16.463  0.0549  0.1531  0.0134
17106TIP3    H172809   1.867   5.257  16.426 -0.0428  1.5265  0.0478
17106TIP3    H272810   1.793   5.224  16.554  0.3639 -1.0809 -0.3704
17107TIP3   OH272811   6.490   6.229  15.007 -0.1482 -0.1545 -0.2644
17107TIP3    H172812   6.496   6.134  14.998  1.0668 -0.0512 -0.7174
17107TIP3    H272813   6.578   6.256  15.034 -0.1252  0.9769 -1.4038
17108TIP3   OH272814   0.126   4.408  12.075  0.3811 -0.2289 -0.4841
17108TIP3    H172815   0.156   4.441  12.160  0.3957  1.8755 -1.2727
17108TIP3    H272816   0.053   4.351  12.096  0.7391 -0.1599  0.9926
17109TIP3   OH272817   0.079   5.455  16.447 -0.4745 -0.3624 -0.0365
17109TIP3    H172818   0.017   5.490  16.384 -0.2464 -2.7003 -1.6091
17109TIP3    H272819   0.026   5.437  16.525 -1.3505 -0.3155 -0.6129
17110TIP3   OH272820   5.689   5.616  13.092  0.1755 -0.4191  0.0808
17110TIP3    H172821   5.691   5.628  12.997 -0.9933 -0.6560  0.0239
17110TIP3    H272822   5.624   5.680  13.123  1.3352  0.4207  0.8381
17111TIP3   OH272823   2.610   4.607  15.437 -0.8093  0.3495 -0.2165
17111TIP3    H172824   2.544   4.617  15.506  1.1253 -0.7788  1.8951
17111TIP3    H272825   2.578   4.660  15.365 -2.9350  1.5643  1.5555
17112TIP3   OH272826   2.477   6.031   4.893 -0.6136 -0.1693  0.1218
17112TIP3    H172827   2.532   6.110   4.892 -0.8990  0.0514  1.5963
17112TIP3    H272828   2.539   5.959   4.899 -0.4293  0.0139  0.4024
17113TIP3   OH272829   5.900   6.041  12.073  0.6186 -0.1759  0.4733
17113TIP3    H172830   5.878   6.064  11.982  0.1270  1.3243  0.9619
17113TIP3    H272831   5.987   6.001  12.066  0.9535  0.6729 -0.5811
17114TIP3   OH272832   0.703   0.842  12.526 -0.5578  0.2818  0.3089
17114TIP3    H172833   0.734   0.852  12.436 -2.5973  1.0350 -0.3322
17114TIP3    H272834   0.690   0.931  12.558 -0.7035 -0.0012  1.0577
17115TIP3   OH272835   2.765   3.813  15.921 -0.2436  0.1985  0.0655
17115TIP3    H172836   2.858   3.799  15.902 -0.3506  0.9394 -1.0607
17115TIP3    H272837   2.747   3.902  15.890 -1.5087 -0.2317 -0.4920
17116TIP3   OH272838   5.047   1.815  16.516 -0.1390 -0.2383  0.0855
17116TIP3    H172839   4.973   1.853  16.470  1.2439  0.2309 -1.8150
17116TIP3    H272840   5.058   1.728  16.478  0.6703 -0.0603 -0.1035
17117TIP3   OH272841   1.411   3.441  13.090  0.2904 -0.4742 -0.5802
17117TIP3    H172842   1.505   3.449  13.108  0.3032 -0.4029 -0.6737
17117TIP3    H272843   1.403   3.468  12.998  0.1129 -0.0292 -0.4347
17118TIP3   OH272844   0.253   0.176   6.065 -0.0079  0.6083 -0.2902
17118TIP3    H172845   0.190   0.212   6.127  0.3887 -1.3454  1.3185
17118TIP3    H272846   0.284   0.095   6.107  1.5621  0.1461 -2.2609
17119TIP3   OH272847   0.828   6.261   1.946 -0.1258 -0.2241 -0.7492
17119TIP3    H172848   0.737   6.237   1.934  0.6549 -3.0438 -1.4364
17119TIP3    H272849   0.871   6.233   1.865  1.4362  0.4770 -0.1809
17120TIP3   OH272850   5.471   1.965  14.391  0.1100  0.0935 -0.0656
17120TIP3    H172851   5.468   1.949  14.486 -0.6878 -1.3594 -0.3197
17120TIP3    H272852   5.545   1.912  14.361  0.7185  0.9967 -0.1924
17121TIP3   OH272853   0.054   2.683   5.599  0.7257  0.4598 -0.2596
17121TIP3    H172854   0.023   2.739   5.528  0.5387  0.5107 -0.1381
17121TIP3    H272855  -0.020   2.677   5.659  0.5700 -0.3233 -0.5178
17122TIP3   OH272856   3.479   6.684   1.415  0.0495  0.2707  0.0098
17122TIP3    H172857   3.455   6.603   1.460  4.0053 -0.1022  1.6787
17122TIP3    H272858   3.481   6.661   1.322  0.6167 -1.4149  0.4274
17123TIP3   OH272859   1.214   0.720   2.369 -0.1620 -0.3836  0.6156
17123TIP3    H172860   1.144   0.746   2.308  0.4637  0.9100  0.4300
17123TIP3    H272861   1.209   0.625   2.372 -0.5014 -0.4315 -1.1013
17124TIP3   OH272862   4.615   3.846   5.497 -0.2505 -0.0719  0.0432
17124TIP3    H172863   4.619   3.939   5.475 -0.4134 -0.0395  0.1506
17124TIP3    H272864   4.578   3.844   5.585  0.2948 -0.2051  0.2723
17125TIP3   OH272865   3.147   3.691   6.323 -0.4295 -0.2910  0.0752
17125TIP3    H172866   3.130   3.785   6.333  3.0728  0.2386  2.1619
17125TIP3    H272867   3.202   3.685   6.246  1.4325 -0.2767  1.3664
17126TIP3   OH272868   0.027   6.593   4.517  0.0977  0.0688  0.2972
17126TIP3    H172869  -0.028   6.523   4.553 -1.1613  1.0388  0.3010
17126TIP3    H272870   0.014   6.587   4.422 -0.2154  0.4694  0.3160
17127TIP3   OH272871   2.134   2.248  10.751 -0.6017 -0.1194  0.0213
17127TIP3    H172872   2.154   2.163  10.790 -0.8003 -0.8645 -1.4976
17127TIP3    H272873   2.217   2.296  10.755 -0.1922 -0.8022 -0.1722
17128TIP3   OH272874   0.791   3.159  12.386 -0.1424 -0.2102  0.2967
17128TIP3    H172875   0.811   3.196  12.300 -0.1411  0.2085  0.4758
17128TIP3    H272876   0.700   3.183  12.402  0.0480  0.2532  0.6884
17129TIP3   OH272877   5.205   2.041   4.861  0.1894 -0.5787 -0.4528
17129TIP3    H172878   5.138   2.006   4.802  0.0381 -1.8101  0.4328
17129TIP3    H272879   5.285   1.995   4.837  0.0081 -1.4977  0.6568
17130TIP3   OH272880   5.990   1.889   3.666 -0.2619 -0.0317  0.1086
17130TIP3    H172881   5.910   1.931   3.632  0.4930  0.1010 -1.5239
17130TIP3    H272882   6.058   1.956   3.657  0.1712 -0.3459  0.9605
17131TIP3   OH272883   1.615   4.565  12.082  0.5651  0.8921 -0.0621
17131TIP3    H172884   1.629   4.525  12.168 -0.1521 -0.3475 -0.5277
17131TIP3    H272885   1.697   4.611  12.064  1.3771 -0.3114  0.5067
17132TIP3   OH272886   0.823   5.383   0.279  0.2283  0.1296  0.0877
17132TIP3    H172887   0.875   5.430   0.214  0.4613  0.2320  0.3475
17132TIP3    H272888   0.871   5.302   0.294 -0.8225 -0.7685 -1.2892
17133TIP3   OH272889   1.954   5.529   1.925 -0.1585  0.0194  0.3554
17133TIP3    H172890   1.980   5.506   1.836 -1.1762 -0.6150  0.2130
17133TIP3    H272891   2.024   5.496   1.980  1.0564  1.4476 -0.2975
17134TIP3   OH272892   1.740   4.571   3.500 -0.5792  0.0351  0.2648
17134TIP3    H172893   1.652   4.533   3.493  0.0066 -1.6075  1.5363
17134TIP3    H272894   1.782   4.523   3.571  1.6168  0.2856 -0.8071
17135TIP3   OH272895   2.449   1.633   4.200 -0.4470 -0.0311  0.4716
17135TIP3    H172896   2.448   1.651   4.106  0.0987  1.3281  0.7196
17135TIP3    H272897   2.364   1.594   4.218 -0.5339 -0.3353 -0.5947
17136TIP3   OH272898   3.285   2.680   4.366  0.5218 -0.4397 -0.6307
17136TIP3    H172899   3.343   2.641   4.301  0.0606 -2.5532  0.1862
17136TIP3    H272900   3.325   2.659   4.450 -0.6417 -0.6623 -0.1213
17137TIP3   OH272901   2.476   2.363  14.483 -0.0393 -0.7454  0.4360
17137TIP3    H172902   2.398   2.409  14.513 -0.1114  0.6129 -1.6683
17137TIP3    H272903   2.454   2.270  14.490 -1.8390 -0.3757 -0.0430
17138TIP3   OH272904   4.769   6.274   1.543  0.4864  0.2042  0.0863
17138TIP3    H172905   4.834   6.330   1.501 -0.5281 -0.1850 -2.0694
17138TIP3    H272906   4.714   6.242   1.471 -2.1642  0.6121  1.8641
17139TIP3   OH272907   2.454   3.597  11.861 -0.0457  0.0042 -0.5865
17139TIP3    H172908   2.451   3.502  11.862 -0.3356  0.0056 -1.3075
17139TIP3    H272909   2.372   3.624  11.820 -1.6477  0.6531  2.8653
17140TIP3   OH272910   1.494   2.967  11.286  0.0464  0.4731 -0.1249
17140TIP3    H172911   1.585   2.936  11.282 -0.5862 -1.2732 -1.6928
17140TIP3    H272912   1.454   2.933  11.207 -1.5651  2.6829 -0.2903
17141TIP3   OH272913   4.071   0.577   1.804  0.2623 -0.4916  0.3132
17141TIP3    H172914   4.066   0.636   1.879 -1.6905  0.5865 -0.6390
17141TIP3    H272915   4.015   0.503   1.828 -0.7527  0.0757 -0.2321
17142TIP3   OH272916   4.439   2.015   5.110 -0.0329 -0.1949  0.0301
17142TIP3    H172917   4.483   2.094   5.080  0.2729 -0.7655 -1.0575
17142TIP3    H272918   4.349   2.042   5.125  0.0470  0.3395 -0.4212
17143TIP3   OH272919   4.324   3.205  12.540 -0.0705  0.2563  0.4088
17143TIP3    H172920   4.403   3.247  12.574  0.8313 -0.9951 -0.1297
17143TIP3    H272921   4.331   3.114  12.566 -0.4871 -0.2322 -1.1338
17144TIP3   OH272922   2.480   2.326  14.826 -0.4356 -0.1889  0.1633
17144TIP3    H172923   2.499   2.233  14.813 -1.3894 -0.4454  0.5987
17144TIP3    H272924   2.385   2.334  14.818 -0.3485  0.7808 -0.0493
17145TIP3   OH272925   2.403   4.698   4.821  0.0348  0.0919  0.9957
17145TIP3    H172926   2.395   4.793   4.816  0.4467  0.0796  0.0009
17145TIP3    H272927   2.374   4.676   4.910 -2.5503  0.9029  0.3984
17146TIP3   OH272928   3.745   3.475   6.130  0.1329 -0.6355  0.0198
17146TIP3    H172929   3.688   3.405   6.098  0.3138  0.1830 -2.2263
17146TIP3    H272930   3.685   3.547   6.152  0.2811  1.3937 -5.3035
17147TIP3   OH272931   3.171   3.564  17.190  0.3758 -0.2182 -0.0222
17147TIP3    H172932   3.212   3.524  17.113 -0.1996 -1.1605  0.1497
17147TIP3    H272933   3.088   3.517  17.200  0.3346  0.0571  1.0383
17148TIP3   OH272934   1.011   2.084   0.306 -0.1323 -0.3063  0.5816
17148TIP3    H172935   0.967   2.113   0.226 -1.7021  0.2525  1.6244
17148TIP3    H272936   1.031   1.992   0.291  0.5036  0.0628 -0.8544
17149TIP3   OH272937   0.706   0.259   5.685  0.0268  0.4661  0.5990
17149TIP3    H172938   0.628   0.282   5.735  0.5678 -2.1186  2.7221
17149TIP3    H272939   0.751   0.342   5.672 -1.7304  1.6229  1.6744
17150TIP3   OH272940   5.344   1.601  16.688 -0.2496  0.1330  0.0828
17150TIP3    H172941   5.279   1.662  16.723  0.1035  2.2469 -2.7448
17150TIP3    H272942   5.425   1.652  16.684  0.2483 -0.7425 -1.6065
17151TIP3   OH272943   1.812   6.197  16.640  0.0616 -0.2786 -0.3377
17151TIP3    H172944   1.849   6.108  16.633 -0.2198 -0.4238  0.0556
17151TIP3    H272945   1.753   6.193  16.714 -1.2218 -0.2017 -1.3380
17152TIP3   OH272946   3.062   1.473  16.916 -0.2020  0.4678  0.2179
17152TIP3    H172947   3.080   1.514  17.000 -2.1364  0.7993  0.4957
17152TIP3    H272948   3.012   1.394  16.938 -1.6349  1.1065 -0.6647
17153TIP3   OH272949   5.753   4.360   4.373  0.3534  0.3538  0.0170
17153TIP3    H172950   5.833   4.385   4.327  1.1833  1.0996  1.8026
17153TIP3    H272951   5.716   4.444   4.403 -0.7349 -0.0403 -0.1933
17154TIP3   OH272952   4.179   5.243  16.891 -0.3604  0.5895  0.1368
17154TIP3    H172953   4.180   5.184  16.816  0.6165  1.5968 -0.6352
17154TIP3    H272954   4.130   5.194  16.958  1.2034 -1.4713 -0.1828
17155TIP3   OH272955   6.475   6.815  15.164  0.0760  0.1322  0.4822
17155TIP3    H172956   6.497   6.778  15.079  0.4469  1.7918 -0.1596
17155TIP3    H272957   6.469   6.739  15.222 -2.3415 -1.2353 -1.4466
17156TIP3   OH272958   6.110   5.897   4.549 -0.7904 -0.2608 -0.4677
17156TIP3    H172959   6.031   5.950   4.539 -0.3813  0.5054  0.3184
17156TIP3    H272960   6.171   5.953   4.598 -0.8244 -1.8968  1.5492
17157TIP3   OH272961   4.150   2.482   1.552 -0.5332  0.2370  0.0229
17157TIP3    H172962   4.120   2.478   1.462  0.0331 -0.8348 -0.1234
17157TIP3    H272963   4.198   2.400   1.566 -1.9469 -0.3219  1.7845
17158TIP3   OH272964   5.748   4.653  11.510 -0.0253  0.3136  0.4338
17158TIP3    H172965   5.687   4.672  11.581 -0.9519  1.6682 -0.6880
17158TIP3    H272966   5.696   4.666  11.430  1.2634 -0.2268 -0.5113
17159TIP3   OH272967   6.146   0.577   0.719 -0.1382 -0.2987  0.6733
17159TIP3    H172968   6.208   0.505   0.712  0.8238  0.6487 -0.6334
17159TIP3    H272969   6.191   0.644   0.771 -0.5998 -0.1724  0.9214
17160TIP3   OH272970   4.219   6.127   4.473 -0.3433 -0.2177 -0.0187
17160TIP3    H172971   4.209   6.052   4.531  1.4279  0.7505  1.6155
17160TIP3    H272972   4.305   6.164   4.496 -0.1768  0.9435 -2.3818
17161TIP3   OH272973   1.779   6.220   0.074  0.1499  0.1027  0.5037
17161TIP3    H172974   1.777   6.307   0.034  0.4854 -0.0468  0.1621
17161TIP3    H272975   1.871   6.193   0.067 -0.3228 -1.1246 -1.2236
17162TIP3   OH272976   1.209   6.368   4.930 -0.3852 -0.1503  0.2422
17162TIP3    H172977   1.179   6.446   4.977 -2.3062 -1.2551  0.9149
17162TIP3    H272978   1.130   6.315   4.919  0.6718 -1.4764 -1.2448
17163TIP3   OH272979   4.335   1.831  14.653  0.3068  0.5424 -0.8057
17163TIP3    H172980   4.323   1.748  14.606  0.2191  0.6376 -0.9529
17163TIP3    H272981   4.429   1.848  14.650  0.4293  0.0378 -0.0723
17164TIP3   OH272982   2.362   3.247   6.363  0.0165 -0.0585  0.3157
17164TIP3    H172983   2.435   3.261   6.423  0.4303 -1.0114  0.0373
17164TIP3    H272984   2.394   3.275   6.278  1.6778 -4.6554 -0.7336
17165TIP3   OH272985   1.441   4.694   2.899 -0.0399  0.0038 -0.2326
17165TIP3    H172986   1.374   4.729   2.840  0.5291  1.5561  0.0434
17165TIP3    H272987   1.470   4.768   2.952  1.3240 -0.8122  0.2187
17166TIP3   OH272988   2.383   3.258   1.684 -0.7982  0.2532  0.0257
17166TIP3    H172989   2.424   3.182   1.724 -0.0277  1.6052  1.8693
17166TIP3    H272990   2.451   3.325   1.685 -1.9329  1.4253 -0.1991
17167TIP3   OH272991   3.070   3.798  12.970  0.4361  0.3957  0.1863
17167TIP3    H172992   2.978   3.774  12.977 -0.2645  2.5917 -0.9789
17167TIP3    H272993   3.083   3.865  13.038  0.9437  0.7222 -0.2244
17168TIP3   OH272994   0.344   1.111  13.799 -0.6979 -0.1089 -0.0359
17168TIP3    H172995   0.390   1.195  13.803  0.7656 -0.8673 -0.5581
17168TIP3    H272996   0.343   1.081  13.890  0.2694 -0.3006 -0.0807
17169TIP3   OH272997   2.042   1.484   6.303 -0.2661 -0.2597  0.0730
17169TIP3    H172998   2.083   1.441   6.378  1.5732  1.5428  0.1588
17169TIP3    H272999   1.968   1.427   6.280  1.0985 -2.5770  1.1776
17170TIP3   OH273000   2.995   6.522   2.805 -0.1673 -0.2774 -0.1325
17170TIP3    H173001   3.088   6.508   2.784  0.1551  0.7388  0.5612
17170TIP3    H273002   2.976   6.609   2.771 -0.4096  0.1985  1.1952
17171TIP3   OH273003   6.182   5.072  12.916 -0.0857 -0.5868 -0.4347
17171TIP3    H173004   6.128   5.021  12.976 -0.9046  0.2581 -0.4459
17171TIP3    H273005   6.272   5.053  12.944 -0.4562 -0.1411  1.1104
17172TIP3   OH273006   0.914   1.842  15.788 -0.2720 -0.4405 -0.2233
17172TIP3    H173007   0.960   1.763  15.817 -0.2879  0.2865  1.9002
17172TIP3    H273008   0.968   1.877  15.717  1.6070 -0.5257  1.0989
17173TIP3   OH273009   0.601   4.669   0.274  0.5326 -0.6983 -0.1667
17173TIP3    H173010   0.680   4.618   0.294  2.0035  1.2031 -0.9352
17173TIP3    H273011   0.624   4.717   0.194 -1.0205  0.7018  0.2073
17174TIP3   OH273012   5.785   5.355   4.593 -0.0388  0.2584  0.4829
17174TIP3    H173013   5.860   5.353   4.653  0.0700 -1.1713  0.3148
17174TIP3    H273014   5.818   5.400   4.515  0.6044 -0.2418  0.4669
17175TIP3   OH273015   1.236   5.945  16.144 -0.3773 -0.4068  0.2174
17175TIP3    H173016   1.252   6.039  16.147 -0.5313 -0.3886  0.5392
17175TIP3    H273017   1.211   5.928  16.053 -2.9098  0.2926  0.7364
17176TIP3   OH273018   0.473   6.513   6.153 -0.2180 -0.0672 -0.1593
17176TIP3    H173019   0.445   6.595   6.193 -2.3273 -0.8674  0.0240
17176TIP3    H273020   0.430   6.445   6.204 -0.4269 -1.2144 -1.8315
17177TIP3   OH273021   5.724   2.684   3.850  0.2435  0.1579 -0.3786
17177TIP3    H173022   5.818   2.667   3.848  0.0885 -0.6201 -1.0675
17177TIP3    H273023   5.693   2.661   3.763 -0.9210 -1.4704  0.4381
17178TIP3   OH273024   5.997   3.455   4.848 -0.5936 -0.1293 -0.1959
17178TIP3    H173025   5.915   3.447   4.798 -1.3764 -0.5553  1.1364
17178TIP3    H273026   5.989   3.538   4.894  1.2582  1.5453 -2.7340
17179TIP3   OH273027   5.127   5.547  11.991  0.7031  0.1722 -0.4511
17179TIP3    H173028   5.209   5.580  12.027  1.7819 -0.1450 -2.5808
17179TIP3    H273029   5.148   5.458  11.963 -0.6453 -0.2707 -0.0674
17180TIP3   OH273030   0.813   5.889  10.591  0.0639 -0.3564  0.6155
17180TIP3    H173031   0.840   5.811  10.543  0.2756 -0.3402  0.7093
17180TIP3    H273032   0.756   5.936  10.530 -0.4706 -0.8331  0.7454
17181TIP3   OH273033   2.078   2.937  13.903  0.1703  0.0675  0.0480
17181TIP3    H173034   2.083   2.962  13.995 -0.7776 -1.0907  0.4109
17181TIP3    H273035   2.100   2.844  13.902 -0.6847 -0.1262 -0.7998
17182TIP3   OH273036   1.305   2.062   0.988  0.3722  0.6078 -0.0019
17182TIP3    H173037   1.359   2.123   0.937  1.1758  0.9024  1.1895
17182TIP3    H273038   1.339   2.069   1.077 -0.0584 -0.9931  0.2965
17183TIP3   OH273039   5.596   2.483  17.260  0.0091  0.4130 -0.7031
17183TIP3    H173040   5.657   2.548  17.296  0.1403 -0.2672  0.3247
17183TIP3    H273041   5.524   2.481  17.323 -0.1197 -0.2482 -0.8705
17184TIP3   OH273042   5.848   3.862  14.661 -0.3546  0.8273  0.0197
17184TIP3    H173043   5.853   3.850  14.756  0.0342  1.0442  0.0265
17184TIP3    H273044   5.817   3.952  14.650  0.1103  0.9778 -0.0634
17185TIP3   OH273045   2.720   2.130   1.574  0.0724  0.4648 -0.3694
17185TIP3    H173046   2.672   2.175   1.644  0.3134  2.1869 -1.2812
17185TIP3    H273047   2.770   2.062   1.619 -1.3170  0.2299  0.8821
17186TIP3   OH273048   2.140   6.385   4.900 -0.3702  0.3017 -0.3468
17186TIP3    H173049   2.060   6.332   4.903  0.5657 -1.1109  0.2907
17186TIP3    H273050   2.139   6.435   4.981 -1.9691  2.3792 -1.5881
17187TIP3   OH273051   2.338   0.680   3.265  0.2525  0.2974  0.6816
17187TIP3    H173052   2.266   0.714   3.213  1.4876 -0.2508 -1.4505
17187TIP3    H273053   2.358   0.595   3.226  0.6305 -0.5300  2.6310
17188TIP3   OH273054   2.838   2.789   5.726 -0.3342 -0.5409 -0.0394
17188TIP3    H173055   2.851   2.717   5.788 -1.3377 -0.9777 -0.3060
17188TIP3    H273056   2.905   2.853   5.748 -0.9610 -0.4848  1.7854
17189TIP3   OH273057   0.703   5.170   1.249  0.3509  0.3814  0.2411
17189TIP3    H173058   0.636   5.225   1.208  0.1987  0.2510  0.3157
17189TIP3    H273059   0.670   5.155   1.337  0.2104 -0.1424  0.1001
17190TIP3   OH273060   5.461   0.819   5.225 -0.1257 -0.3753 -0.2626
17190TIP3    H173061   5.381   0.869   5.211  0.2900  0.5327  0.5452
17190TIP3    H273062   5.508   0.825   5.142 -0.3620  0.0559 -0.3665
17191TIP3   OH273063   2.915   4.367  16.050  0.8007  0.1163  0.0530
17191TIP3    H173064   2.869   4.342  16.130  2.2731  0.2239  0.9555
17191TIP3    H273065   2.962   4.288  16.023  1.0126  0.3307 -0.2106
17192TIP3   OH273066   3.982   3.804   2.287 -0.0272 -0.4899 -0.1281
17192TIP3    H173067   4.004   3.892   2.320 -0.6139 -0.4520  0.1719
17192TIP3    H273068   4.033   3.795   2.207 -0.9876  0.6596 -0.8844
17193TIP3   OH273069   5.803   3.523   1.148  0.0450 -0.2204  0.5773
17193TIP3    H173070   5.755   3.532   1.230 -0.0689  2.3975  0.2514
17193TIP3    H273071   5.763   3.587   1.089  2.2570  0.2560 -0.4837
17194TIP3   OH273072   5.592   6.423  14.335  0.2530  0.0751 -0.3575
17194TIP3    H173073   5.604   6.466  14.420  1.2597 -1.1704  0.1365
17194TIP3    H273074   5.503   6.388  14.339  0.2954  0.0214  0.1890
17195TIP3   OH273075   0.067   1.206  14.993  0.5210  0.2877 -0.0934
17195TIP3    H173076  -0.015   1.162  15.013 -1.6272  3.9052 -0.5756
17195TIP3    H273077   0.108   1.219  15.079 -0.3961  0.3055  0.3481
17196TIP3   OH273078   0.665   5.268   3.022  0.9837 -0.0124  0.1945
17196TIP3    H173079   0.611   5.207   3.072  1.2348  0.2612  0.7996
17196TIP3    H273080   0.740   5.215   2.994  0.6244 -0.2812 -0.2836
17197TIP3   OH273081   5.693   1.641  15.874  0.3669 -0.3839 -0.2599
17197TIP3    H173082   5.722   1.726  15.840  0.5368 -1.3766 -2.7130
17197TIP3    H273083   5.674   1.590  15.795 -2.5053 -1.6759  1.2167
17198TIP3   OH273084   5.932   3.191  14.499  0.3181  0.3603 -0.0751
17198TIP3    H173085   5.912   3.284  14.497  1.8864  0.7057 -1.4635
17198TIP3    H273086   5.850   3.148  14.475 -0.2780  1.4128  0.0385
17199TIP3   OH273087   0.873   3.834   0.919  0.0049 -0.2944  0.2713
17199TIP3    H173088   0.842   3.767   0.980  2.3006  0.5811  2.5346
17199TIP3    H273089   0.873   3.915   0.971 -0.2406  0.9571 -1.6257
17200TIP3   OH273090   4.342   5.544   5.027 -0.6356  0.1025 -0.2691
17200TIP3    H173091   4.427   5.530   5.069  0.3751 -0.5838 -2.4346
17200TIP3    H273092   4.301   5.457   5.027 -1.7289  0.6113  1.5691
17201TIP3   OH273093   4.668   1.087  15.131  0.8160 -0.0691 -0.3713
17201TIP3    H173094   4.595   1.149  15.138  2.1811  1.4769  0.7697
17201TIP3    H273095   4.669   1.060  15.039 -1.3743 -0.3454 -0.3227
17202TIP3   OH273096   4.392   4.116  16.546  0.5115 -0.4170 -0.6609
17202TIP3    H173097   4.300   4.140  16.540  1.1016  2.0181 -0.6953
17202TIP3    H273098   4.410   4.114  16.640  0.4769 -0.6512 -0.6600
17203TIP3   OH273099   4.702   2.298  12.505  0.5004 -0.0437 -0.4711
17203TIP3    H173100   4.619   2.345  12.512  0.5696  0.0577 -0.3263
17203TIP3    H273101   4.747   2.318  12.587 -0.1667 -1.6573  0.3238
17204TIP3   OH273102   6.487   2.421   3.216 -0.2939 -0.7703 -0.1891
17204TIP3    H173103   6.434   2.441   3.139 -1.0041 -1.9713 -0.0169
17204TIP3    H273104   6.571   2.462   3.198 -0.8440  0.0093 -1.0585
17205TIP3   OH273105   6.152   5.821  11.357 -0.4245 -0.4454  0.2591
17205TIP3    H173106   6.121   5.840  11.446 -0.0221  1.5683  0.0083
17205TIP3    H273107   6.177   5.907  11.322  1.0286 -1.4308 -1.1973
17206TIP3   OH273108   4.159   5.061  15.975 -0.5546  0.3578 -0.1204
17206TIP3    H173109   4.246   5.073  15.935 -0.8884 -0.3434 -1.0754
17206TIP3    H273110   4.129   4.977  15.941 -1.6296  0.6203  0.1759
17207TIP3   OH273111   3.348   4.411  16.760  0.7090  0.1891 -0.6517
17207TIP3    H173112   3.343   4.505  16.742  1.2198 -0.2852 -3.5820
17207TIP3    H273113   3.258   4.385  16.782  0.4800  1.2552 -0.3019
17208TIP3   OH273114   0.917   6.819   3.676  0.7970 -0.8199  0.5046
17208TIP3    H173115   0.964   6.884   3.728  0.3098  1.6061 -1.9182
17208TIP3    H273116   0.981   6.787   3.613  0.3540 -0.6727 -0.0317
17209TIP3   OH273117   3.505   2.929  13.842  0.7546 -0.0640 -0.3692
17209TIP3    H173118   3.455   2.986  13.900 -1.5616 -1.2538 -1.1146
17209TIP3    H273119   3.517   2.848  13.891 -0.6852 -0.8536 -1.2629
17210TIP3   OH273120   0.325   1.928  14.093  0.5177  0.4259  0.3310
17210TIP3    H173121   0.278   2.011  14.104 -0.8866 -0.4694  1.1568
17210TIP3    H273122   0.284   1.869  14.156  0.3099 -1.4103 -1.4983
17211TIP3   OH273123   4.652   3.896  16.759  0.6040  0.1398  0.1364
17211TIP3    H173124   4.737   3.857  16.780  0.3169 -0.5648 -0.0031
17211TIP3    H273125   4.630   3.948  16.837  0.7858 -0.3346  0.5083
17212TIP3   OH273126   0.764   5.681   0.350 -0.1739 -0.1304  0.3277
17212TIP3    H173127   0.851   5.714   0.330 -0.3310 -0.9851 -1.8530
17212TIP3    H273128   0.775   5.586   0.356 -0.9213 -0.2270  0.2250
17213TIP3   OH273129   2.203   5.294  16.113 -0.1298  0.2591  0.5759
17213TIP3    H173130   2.157   5.377  16.106 -0.2369  0.1613  0.0388
17213TIP3    H273131   2.278   5.312  16.169  0.9961  1.2371 -1.1853
17214TIP3   OH273132   0.896   4.991   2.922 -0.1734 -0.2088 -0.4176
17214TIP3    H173133   0.951   5.058   2.881 -0.0091 -0.2066 -0.1939
17214TIP3    H273134   0.807   5.011   2.891  0.1442 -1.0785 -1.9091
17215TIP3   OH273135   1.828   4.947  11.612 -0.1045  0.1647 -0.8135
17215TIP3    H173136   1.845   4.911  11.699 -0.3100 -0.4982 -1.0429
17215TIP3    H273137   1.912   4.981  11.582 -0.1762  0.9951 -0.0824
17216TIP3   OH273138   3.346   6.556  16.295 -0.2012  0.0014 -0.2214
17216TIP3    H173139   3.312   6.504  16.221 -0.4982  0.4929 -0.4314
17216TIP3    H273140   3.425   6.598  16.261  0.4007 -0.8284  0.1482
17217TIP3   OH273141   4.432   2.326   6.629  0.3860 -0.1749 -0.3225
17217TIP3    H173142   4.479   2.347   6.709 -1.6045  1.4208  0.4745
17217TIP3    H273143   4.415   2.232   6.634 -1.0771  0.1696  1.9147
17218TIP3   OH273144   0.738   3.191  12.845  0.9704 -0.2310 -0.5359
17218TIP3    H173145   0.698   3.118  12.798  0.9478  0.4679 -1.6182
17218TIP3    H273146   0.820   3.156  12.880 -0.0271 -1.3445  0.7075
17219TIP3   OH273147   1.048   0.872  12.018 -0.3460 -0.4206 -0.0364
17219TIP3    H173148   1.107   0.875  11.943  0.9125  0.3798  0.9598
17219TIP3    H273149   0.966   0.840  11.983  0.5655 -1.1611 -1.5405
17220TIP3   OH273150   4.861   4.305  14.666  0.0002  0.3152  0.3537
17220TIP3    H173151   4.781   4.354  14.686 -1.1212 -1.2289 -0.2528
17220TIP3    H273152   4.894   4.347  14.586 -1.2740 -0.2517 -0.4995
17221TIP3   OH273153   0.993   3.124  14.249 -0.0511  0.3539 -0.3440
17221TIP3    H173154   1.018   3.039  14.213 -1.2831 -0.9406  1.7608
17221TIP3    H273155   0.911   3.146  14.205 -0.8200 -0.5591  0.6041
17222TIP3   OH273156   3.197   4.062   4.310  0.2787  0.5855 -0.2734
17222TIP3    H173157   3.239   4.055   4.396  0.7410  0.8133 -0.4730
17222TIP3    H273158   3.255   4.013   4.251 -0.9825 -1.1175 -0.1458
17223TIP3   OH273159   4.354   3.337  16.976 -0.4832  0.1369  0.1593
17223TIP3    H173160   4.269   3.360  17.015  0.0566  1.5397  0.5055
17223TIP3    H273161   4.417   3.350  17.047  0.1560  0.0460 -0.3934
17224TIP3   OH273162   1.620   5.433   4.917 -0.8390 -0.6612  0.0410
17224TIP3    H173163   1.643   5.393   5.000  1.2006 -1.0913 -0.7029
17224TIP3    H273164   1.702   5.435   4.868 -1.7147  0.9174 -1.4000
17225TIP3   OH273165   3.340   1.845  15.887  0.4385 -0.3587 -0.1197
17225TIP3    H173166   3.258   1.865  15.933  0.2969 -0.0506 -0.5048
17225TIP3    H273167   3.393   1.924  15.898  0.0283  0.0892 -1.3178
17226TIP3   OH273168   2.225   3.721   4.800  0.2670 -0.0833 -0.2879
17226TIP3    H173169   2.209   3.717   4.894 -0.2556 -0.0959 -0.3760
17226TIP3    H273170   2.225   3.629   4.772  0.1961 -0.0669 -0.3410
17227TIP3   OH273171   6.094   6.092   4.346 -0.2936 -0.4506 -0.2698
17227TIP3    H173172   6.012   6.042   4.346 -0.5928  0.0302 -1.1497
17227TIP3    H273173   6.084   6.155   4.418 -0.5202 -0.6673 -0.1100
17228TIP3   OH273174   0.659   5.875  15.355 -0.1729 -0.2740  0.3206
17228TIP3    H173175   0.618   5.788  15.352 -2.3442  0.7326  0.2952
17228TIP3    H273176   0.730   5.870  15.291  0.3097 -2.3148  0.9728
17229TIP3   OH273177   4.383   5.336  12.706  0.2569  0.1598 -0.4863
17229TIP3    H173178   4.310   5.315  12.649 -0.1249  0.6786 -0.1899
17229TIP3    H273179   4.380   5.431  12.716  0.3744  0.0845  0.3240
17230TIP3   OH273180   4.557   3.031  16.532  0.0845 -0.3897  0.1172
17230TIP3    H173181   4.484   2.998  16.478  0.3832  1.4443 -1.4652
17230TIP3    H273182   4.518   3.100  16.585 -0.0703 -1.7844  1.8877
17231TIP3   OH273183   3.961   4.381  16.138  0.0762 -0.0743 -0.0945
17231TIP3    H173184   3.939   4.332  16.058  0.4140  1.0142 -0.8694
17231TIP3    H273185   3.885   4.369  16.195 -0.6377  0.0513 -1.0169
17232TIP3   OH273186   3.848   0.635  12.411 -0.2897 -0.2134  0.3359
17232TIP3    H173187   3.859   0.602  12.322  0.0525  0.0336  0.2846
17232TIP3    H273188   3.934   0.671  12.434 -0.9161  1.5560  0.0136
17233TIP3   OH273189   0.672   5.346  16.418  0.2349 -0.6029  0.0531
17233TIP3    H173190   0.726   5.426  16.416  1.0610 -1.0966  1.4591
17233TIP3    H273191   0.611   5.360  16.491 -0.6524 -0.6138 -0.6833
17234TIP3   OH273192   2.382   4.456  12.081 -0.0640  1.0225 -0.3671
17234TIP3    H173193   2.435   4.522  12.127 -1.6939  1.5545  0.8058
17234TIP3    H273194   2.446   4.398  12.040  1.4223  1.7997  0.8029
17235TIP3   OH273195   1.364   0.052   1.142 -0.1739  0.1760  0.7025
17235TIP3    H173196   1.434   0.004   1.097 -1.5346  0.5887 -1.9365
17235TIP3    H273197   1.376   0.030   1.234  1.8369 -1.8410  0.0150
17236TIP3   OH273198   5.177   4.792  15.758  0.1157 -0.6005 -0.1099
17236TIP3    H173199   5.099   4.810  15.706 -0.2085 -0.0679  0.5442
17236TIP3    H273200   5.143   4.772  15.846  0.7591  0.7984  0.4805
17237TIP3   OH273201   2.149   4.478  11.838  0.2503  0.3728 -0.1941
17237TIP3    H173202   2.073   4.422  11.851 -0.4370  1.6849  1.6140
17237TIP3    H273203   2.122   4.540  11.771 -0.5026  1.2218  0.8852
17238TIP3   OH273204   6.618   0.124   2.254 -0.9938  0.1815 -0.0253
17238TIP3    H173205   6.664   0.199   2.292  2.4090 -2.1071  0.5897
17238TIP3    H273206   6.599   0.067   2.329  1.2388 -1.9917 -1.0247
17239TIP3   OH273207   6.629   1.096   5.952  0.0891 -0.2892  0.2743
17239TIP3    H173208   6.644   1.090   6.046 -1.2743  0.1490  0.5367
17239TIP3    H273209   6.716   1.095   5.913  0.7299  1.0532  1.6230
17240TIP3   OH273210   5.126   3.688  13.324 -0.0876 -0.4836 -0.5124
17240TIP3    H173211   5.179   3.614  13.294  1.7093  0.2617  0.7232
17240TIP3    H273212   5.150   3.760  13.265 -1.5565 -0.7663 -1.4785
17241TIP3   OH273213   6.414   0.367  14.573 -0.2131 -0.1397  0.2663
17241TIP3    H173214   6.449   0.302  14.634  0.4094  1.4481  1.6363
17241TIP3    H273215   6.449   0.341  14.487  0.1225 -1.5260  0.8114
17242TIP3   OH273216   2.434   0.428   3.439 -0.4756  0.1102 -0.1474
17242TIP3    H173217   2.488   0.475   3.503  0.1040 -0.2540 -0.3705
17242TIP3    H273218   2.493   0.412   3.365 -1.0461  0.2209 -0.6331
17243TIP3   OH273219   3.891   5.835   2.753  1.0108  0.2824  0.2775
17243TIP3    H173220   3.876   5.745   2.781 -1.0428  0.4026 -0.3851
17243TIP3    H273221   3.869   5.888   2.829 -0.4689  0.3682 -0.1976
17244TIP3   OH273222   2.381   4.135   3.613  0.5918 -0.2714  0.2481
17244TIP3    H173223   2.287   4.139   3.599  0.6576 -0.3975 -0.2566
17244TIP3    H273224   2.399   4.042   3.628  0.6935 -0.3091 -0.0979
17245TIP3   OH273225   1.465   2.004   6.233 -0.2804  0.7631 -0.2163
17245TIP3    H173226   1.541   2.027   6.287 -0.5252  1.2177 -0.0586
17245TIP3    H273227   1.420   1.936   6.283  1.7983 -1.9100 -1.8510
17246TIP3   OH273228   6.135   5.423   0.700  0.4232  0.2527  0.4905
17246TIP3    H173229   6.150   5.347   0.644  2.7416  0.1612  1.1893
17246TIP3    H273230   6.133   5.497   0.640  0.1078 -0.1500  0.0010
17247TIP3   OH273231   1.841   6.488   5.016  0.7802 -0.4120  0.4253
17247TIP3    H173232   1.874   6.406   4.979  0.1452 -0.6099  0.3031
17247TIP3    H273233   1.759   6.504   4.969  1.0193  0.4126  0.2814
17248TIP3   OH273234   4.809   4.246  15.232 -0.0375 -0.0285 -0.6428
17248TIP3    H173235   4.781   4.248  15.141  1.1648 -0.7746 -1.0440
17248TIP3    H273236   4.863   4.324  15.242 -0.5255  0.2838 -0.4517
17249TIP3   OH273237   5.253   3.749   0.718 -0.3037 -0.0152 -0.1158
17249TIP3    H173238   5.232   3.826   0.667  0.3112 -0.5039 -1.1164
17249TIP3    H273239   5.325   3.776   0.775 -0.1011  0.1514 -0.4528
17250TIP3   OH273240   3.170   1.446   5.288 -0.4748 -0.2110 -0.5676
17250TIP3    H173241   3.171   1.362   5.334  2.8046 -1.6164 -3.0016
17250TIP3    H273242   3.223   1.504   5.343  0.1017 -0.7336 -0.5663
17251TIP3   OH273243   0.340   0.204  16.575 -0.6151 -0.9358  0.0157
17251TIP3    H173244   0.308   0.207  16.485  1.2996 -1.1802 -0.6861
17251TIP3    H273245   0.274   0.252  16.625  0.1406  2.5363 -2.1028
17252TIP3   OH273246   6.466   6.799   1.795 -0.2214  0.3434  0.0783
17252TIP3    H173247   6.459   6.889   1.828  0.0244  0.3370  0.1444
17252TIP3    H273248   6.537   6.801   1.732  1.3851 -0.3289  1.8377
17253TIP3   OH273249   0.628   3.181  16.160  0.0974 -0.4576  0.0586
17253TIP3    H173250   0.637   3.087  16.174 -1.6195 -0.7244 -0.4628
17253TIP3    H273251   0.584   3.213  16.239  4.0322  0.5661  1.9404
17254TIP3   OH273252   4.688   1.150   2.813  0.0321  0.1808 -0.0110
17254TIP3    H173253   4.709   1.079   2.874  0.5929  0.6728  0.3755
17254TIP3    H273254   4.770   1.198   2.803  0.1433 -0.3473 -1.7615
17255TIP3   OH273255   1.296   0.627  16.122 -0.6830  0.0304 -0.4003
17255TIP3    H173256   1.383   0.620  16.081 -1.5840  1.2594 -2.6177
17255TIP3    H273257   1.314   0.620  16.216  1.6607 -1.1005 -0.8724
17256TIP3   OH273258   4.548   2.290  14.921 -0.0394 -0.3426  0.6236
17256TIP3    H173259   4.455   2.272  14.934 -0.0302 -0.1175  1.0086
17256TIP3    H273260   4.576   2.333  15.002  0.4656 -0.6654  0.6261
17257TIP3   OH273261   3.300   1.794   3.812  0.1117  0.3073  0.1833
17257TIP3    H173262   3.287   1.813   3.719  1.7331 -0.9254 -0.3306
17257TIP3    H273263   3.231   1.731   3.834  1.3901 -1.5172 -0.9169
17258TIP3   OH273264   6.082   0.945  13.860  0.3218  0.3080 -0.1866
17258TIP3    H173265   6.073   0.942  13.764  1.9119  0.9373 -0.3703
17258TIP3    H273266   6.129   0.866  13.882  1.6414  1.0997 -0.1342
17259TIP3   OH273267   3.580   4.343  14.244  0.5700 -0.7829  0.1268
17259TIP3    H173268   3.503   4.373  14.293  0.6167  0.1041 -0.3247
17259TIP3    H273269   3.639   4.308  14.311  0.0002 -0.9670  0.5374
17260TIP3   OH273270   6.501   1.410   2.504 -0.3405  0.8225 -0.1669
17260TIP3    H173271   6.445   1.337   2.531 -1.7408  1.6630 -0.7116
17260TIP3    H273272   6.517   1.459   2.584 -0.0992  0.3787  0.0556
17261TIP3   OH273273   3.861   0.579  12.141 -0.2661  0.2389 -0.1782
17261TIP3    H173274   3.801   0.507  12.122 -1.2654  0.6377  1.3887
17261TIP3    H273275   3.857   0.635  12.063  0.0607 -1.0639 -1.1529
17262TIP3   OH273276   5.566   5.491  11.825 -0.2135  0.0106 -0.0744
17262TIP3    H173277   5.605   5.555  11.884  0.3781 -0.6161  0.2094
17262TIP3    H273278   5.548   5.541  11.745  0.9861  0.3472 -0.1413
17263TIP3   OH273279   2.739   3.899   1.967 -0.4649  0.3806 -0.4016
17263TIP3    H173280   2.770   3.887   2.057 -1.2619 -1.2110 -0.3425
17263TIP3    H273281   2.786   3.977   1.936 -0.4044  1.1021  1.4830
17264TIP3   OH273282   2.131   5.759   3.569  0.3189 -0.2217 -0.0150
17264TIP3    H173283   2.052   5.747   3.517  0.9070 -0.1375 -0.9319
17264TIP3    H273284   2.128   5.851   3.597  0.2847 -0.1141 -0.3701
17265TIP3   OH273285   5.733   4.968  12.845  0.3216  0.4472  0.2908
17265TIP3    H173286   5.793   4.923  12.905  0.1770  0.5185  0.4915
17265TIP3    H273287   5.677   5.019  12.903 -0.4812 -0.2739  0.1585
17266TIP3   OH273288   4.813   2.923  15.507  0.1444 -0.1063 -0.1076
17266TIP3    H173289   4.796   2.830  15.495 -2.1673  0.4568 -1.3788
17266TIP3    H273290   4.763   2.947  15.585 -0.2904  0.3448 -0.5235
17267TIP3   OH273291   3.751   0.813   0.270  0.3587 -0.5569 -0.0048
17267TIP3    H173292   3.806   0.822   0.192  1.3280  0.4686  0.7650
17267TIP3    H273293   3.809   0.840   0.342 -0.6965 -0.9455  0.9914
17268TIP3   OH273294   2.365   1.507   2.792  0.6463  0.2539 -0.4009
17268TIP3    H173295   2.392   1.532   2.704  2.6253  2.4998  0.7745
17268TIP3    H273296   2.379   1.413   2.795 -1.5019 -0.2238 -3.1412
17269TIP3   OH273297   3.134   0.379   6.159  0.2296 -0.0138 -0.4222
17269TIP3    H173298   3.127   0.358   6.252 -1.1825  0.8711 -0.3229
17269TIP3    H273299   3.218   0.426   6.152 -0.1187  0.7729  0.5693
17270TIP3   OH273300   2.698   5.212   2.283 -0.2534  0.4966  0.0685
17270TIP3    H173301   2.603   5.209   2.287 -0.3604  0.5231 -2.0105
17270TIP3    H273302   2.718   5.227   2.191  1.7382  1.4586  0.6191
17271TIP3   OH273303   0.696   2.109  15.165  0.3181  0.1008 -0.6013
17271TIP3    H173304   0.640   2.114  15.242 -2.4459  0.5653 -2.5776
17271TIP3    H273305   0.784   2.097  15.201 -0.9056  0.0963  2.6039
17272TIP3   OH273306   6.610   1.817  15.916  0.0432  0.0785 -0.6773
17272TIP3    H173307   6.649   1.753  15.856 -0.0065 -1.7730  1.2089
17272TIP3    H273308   6.519   1.823  15.888  0.8337  1.8706 -2.9689
17273TIP3   OH273309   5.670   2.484  10.895 -0.1991 -0.3996 -0.5014
17273TIP3    H173310   5.760   2.489  10.864  0.0233 -1.7691 -0.1053
17273TIP3    H273311   5.622   2.547  10.840  0.6180 -1.0864 -2.0339
17274TIP3   OH273312   0.837   5.552  14.006  0.1328  0.6280 -0.3895
17274TIP3    H173313   0.831   5.503  13.924  1.4464  1.4529 -0.9982
17274TIP3    H273314   0.913   5.608  13.994 -0.2738  1.4866  1.0137
17275TIP3   OH273315   3.418   6.076  12.562  0.9390 -0.3578  0.5112
17275TIP3    H173316   3.337   6.061  12.612  0.5646 -1.7923 -0.4894
17275TIP3    H273317   3.391   6.066  12.471  1.7275  1.6890  0.0325
17276TIP3   OH273318   5.760   5.293   3.164 -0.1219 -0.0885  0.1148
17276TIP3    H173319   5.762   5.388   3.149  1.5131 -0.1160  0.0699
17276TIP3    H273320   5.811   5.256   3.092 -1.4967 -1.0822 -0.3590
17277TIP3   OH273321   0.626   0.692  12.132 -0.4679 -0.5508 -0.1871
17277TIP3    H173322   0.545   0.739  12.114 -0.4923 -0.5047  0.0342
17277TIP3    H273323   0.600   0.622  12.193  0.2754  1.7173  2.8532
17278TIP3   OH273324   4.320   5.971  10.775  0.0916 -0.4133 -0.0317
17278TIP3    H173325   4.280   5.906  10.833  0.3460 -2.0021 -1.6041
17278TIP3    H273326   4.273   5.960  10.692 -0.1225  1.6816 -0.2071
17279TIP3   OH273327   5.414   3.755  15.002 -0.0794 -0.1607  0.0101
17279TIP3    H173328   5.484   3.816  15.027 -0.6902  0.8232 -0.6375
17279TIP3    H273329   5.393   3.708  15.082  2.2342 -1.4147 -0.0547
17280TIP3   OH273330   1.813   4.997  14.529  0.2899 -0.7977  0.4292
17280TIP3    H173331   1.748   5.064  14.507 -0.0298 -1.1670  0.2342
17280TIP3    H273332   1.897   5.041  14.519  0.0652 -0.2962  0.7415
17281TIP3   OH273333   0.807   3.069   3.747  0.6513 -0.6593 -0.6361
17281TIP3    H173334   0.731   3.122   3.773  0.3441 -1.5223  0.2424
17281TIP3    H273335   0.882   3.114   3.786  0.6041  0.2027 -1.5143
17282TIP3   OH273336   2.569   3.259  13.350  0.4254 -0.2757 -0.1377
17282TIP3    H173337   2.526   3.337  13.318 -0.7503 -0.2862  1.3857
17282TIP3    H273338   2.535   3.246  13.439  3.2736 -0.4753  1.0095
17283TIP3   OH273339   2.502   4.325   2.261  0.0318  0.3317 -0.1996
17283TIP3    H173340   2.586   4.367   2.283 -0.1330  1.2839 -1.3189
17283TIP3    H273341   2.527   4.240   2.224  0.5136  0.6095 -0.5212
17284TIP3   OH273342   2.027   6.404   0.894  0.9638  0.2574 -0.1621
17284TIP3    H173343   2.051   6.383   0.984  0.3133  2.0228  0.4548
17284TIP3    H273344   1.937   6.371   0.885  1.8250 -1.9364 -0.8988
17285TIP3   OH273345   2.978   2.508  14.397  0.1124 -0.0126  0.1535
17285TIP3    H173346   2.918   2.469  14.461  2.1449 -2.7476  0.4758
17285TIP3    H273347   2.970   2.452  14.319  2.0679 -0.2888  0.1274
17286TIP3   OH273348   1.759   1.443  13.391 -0.0108 -0.1120 -0.2640
17286TIP3    H173349   1.731   1.517  13.444 -0.4838  0.0528 -0.7392
17286TIP3    H273350   1.846   1.468  13.358  0.4363 -0.3606  0.7008
17287TIP3   OH273351   5.427   3.481   0.087  0.1467  0.7301  0.4135
17287TIP3    H173352   5.350   3.488   0.144  1.1255 -0.6986  1.9415
17287TIP3    H273353   5.394   3.435   0.009 -0.3315 -0.8007  1.4950
17288TIP3   OH273354   2.763   2.215   5.035  0.0853  0.4552 -0.0670
17288TIP3    H173355   2.818   2.189   5.109  0.9328  1.4565 -0.3373
17288TIP3    H273356   2.800   2.170   4.960 -0.5859 -0.3151  0.0590
17289TIP3   OH273357   1.498   4.927  13.283  0.1635 -0.3518  0.2661
17289TIP3    H173358   1.561   4.913  13.354 -1.6854  2.9176  2.7175
17289TIP3    H273359   1.506   5.020  13.262 -0.5648 -0.9004 -2.6345
17290TIP3   OH273360   5.667   0.060  13.167  0.6475 -0.1173 -0.2548
17290TIP3    H173361   5.612  -0.017  13.154  0.1314  0.3088 -0.6231
17290TIP3    H273362   5.606   0.134  13.159  1.0391  0.3064  0.6362
17291TIP3   OH273363   2.904   6.294  12.706 -0.1004  0.1866  0.2314
17291TIP3    H173364   2.919   6.213  12.755 -1.3401  0.1700  0.6012
17291TIP3    H273365   2.870   6.264  12.621 -0.2008  0.3093  0.2305
17292TIP3   OH273366   2.372   0.823  13.833 -0.3296  0.3869 -0.3762
17292TIP3    H173367   2.407   0.909  13.856  1.0803 -0.7541  1.8749
17292TIP3    H273368   2.317   0.799  13.907  0.6746 -1.4158 -0.2028
17293TIP3   OH273369   0.304   5.950  14.205  0.4014  0.1817 -0.5716
17293TIP3    H173370   0.218   5.967  14.166  1.7210  2.9257 -2.4209
17293TIP3    H273371   0.342   5.881  14.151 -0.0456 -0.0079 -0.6446
17294TIP3   OH273372   0.041   4.568  11.304 -0.0223 -0.0870  0.1254
17294TIP3    H173373  -0.020   4.513  11.352  0.6387 -1.7614 -0.9075
17294TIP3    H273374   0.040   4.651  11.351 -2.5903 -0.2901  0.4872
17295TIP3   OH273375   0.439   3.801  13.158  0.2156  0.6239 -0.0659
17295TIP3    H173376   0.350   3.770  13.142  0.5263 -0.6708  0.5997
17295TIP3    H273377   0.444   3.886  13.113 -0.4553 -0.6016 -2.5706
17296TIP3   OH273378   2.666   6.466  17.085  0.4310 -0.2660 -0.2537
17296TIP3    H173379   2.628   6.525  17.151  0.5210 -0.4612 -0.0281
17296TIP3    H273380   2.622   6.382  17.099  1.9223 -0.8609  0.8956
17297TIP3   OH273381   4.795   2.931   4.190 -0.3623 -0.2309  0.1492
17297TIP3    H173382   4.771   2.946   4.099  0.1513 -0.8333 -0.0912
17297TIP3    H273383   4.733   2.863   4.219  1.4128 -2.2514 -0.6587
17298TIP3   OH273384   5.457   0.324   0.671  0.5387  0.4580 -0.2466
17298TIP3    H173385   5.364   0.344   0.664  0.3633 -0.5987 -1.0417
17298TIP3    H273386   5.461   0.228   0.668  1.5930  0.4687  0.5200
17299TIP3   OH273387   5.417   6.632  10.790  0.0913 -0.3776 -0.5781
17299TIP3    H173388   5.381   6.612  10.876 -0.0389 -1.1872 -0.8134
17299TIP3    H273389   5.422   6.727  10.787  1.2476 -0.3722  0.7917
17300TIP3   OH273390   4.901   3.889   2.602  0.3396 -0.6617 -0.0616
17300TIP3    H173391   4.872   3.956   2.541  0.9580 -0.7906 -0.4978
17300TIP3    H273392   4.825   3.873   2.659  0.3005  0.6437  0.2572
17301TIP3   OH273393   4.169   2.745  12.436  0.7279  0.1142  0.0711
17301TIP3    H173394   4.175   2.762  12.530  0.8467 -1.1842  0.2987
17301TIP3    H273395   4.082   2.708  12.424  0.4937  0.8121 -0.4209
17302TIP3   OH273396   3.194   4.870  15.616 -0.3100 -0.6017  0.0059
17302TIP3    H173397   3.207   4.810  15.690  0.7519 -0.2993  0.0726
17302TIP3    H273398   3.130   4.934  15.647 -1.0426 -1.3788  0.1229
17303TIP3   OH273399   5.421   5.413  10.892  0.3692  0.2682 -0.3118
17303TIP3    H173400   5.513   5.436  10.879  0.9330 -1.1141  1.0605
17303TIP3    H273401   5.400   5.354  10.821  1.5764 -2.1659  1.2815
17304TIP3   OH273402   6.048   0.304   0.420 -0.1006  0.2569 -0.5176
17304TIP3    H173403   5.994   0.335   0.347 -1.0245 -1.3509 -0.5464
17304TIP3    H273404   6.011   0.348   0.497 -1.2838 -0.6146 -0.5748
17305TIP3   OH273405   0.354   1.750  14.928  0.1450  0.3637  0.1981
17305TIP3    H173406   0.412   1.675  14.941  0.4889  0.9435  2.2080
17305TIP3    H273407   0.293   1.722  14.860 -0.9825 -2.4683  2.3226
17306TIP3   OH273408   1.002   2.845   1.560 -0.2680 -0.2388  0.3022
17306TIP3    H173409   0.972   2.861   1.470  1.1563  0.2695 -0.0830
17306TIP3    H273410   0.961   2.762   1.584 -3.6193  1.3814  0.5009
17307TIP3   OH273411   1.814   5.590  11.405 -0.9144 -0.2472  0.6310
17307TIP3    H173412   1.857   5.669  11.439 -0.9174  0.2775 -0.5529
17307TIP3    H273413   1.729   5.621  11.373 -0.0782 -0.3180 -1.7642
17308TIP3   OH273414   4.974   5.067  13.778 -0.0450 -0.1644  0.2283
17308TIP3    H173415   4.924   5.103  13.851  0.7847 -0.5647  1.0046
17308TIP3    H273416   4.909   5.052  13.710 -0.6773  1.0814  0.5500
17309TIP3   OH273417   5.788   6.541  15.571 -0.0652  0.2194  0.4764
17309TIP3    H173418   5.873   6.499  15.554  1.1278  2.8349 -0.2476
17309TIP3    H273419   5.733   6.512  15.498  0.0895 -1.7171  1.0949
17310TIP3   OH273420   3.431   1.132  15.262  0.0288  0.0484  0.4110
17310TIP3    H173421   3.464   1.221  15.275  1.3296 -0.3363 -0.1408
17310TIP3    H273422   3.411   1.128  15.168 -0.8811  0.0250  0.5953
17311TIP3   OH273423   3.199   2.723  14.883  0.2915 -0.3216  0.1669
17311TIP3    H173424   3.260   2.683  14.822  1.4974 -1.2241  1.9211
17311TIP3    H273425   3.243   2.803  14.912 -0.7811  0.7098 -1.0013
17312TIP3   OH273426   0.494   1.924   0.136  0.0244  0.0077  0.0281
17312TIP3    H173427   0.481   1.831   0.154 -0.0231  0.0878  0.4013
17312TIP3    H273428   0.406   1.962   0.142  0.1542  0.2088  0.6089
17313TIP3   OH273429   0.771   2.448  15.859  0.0333  0.3169  0.0541
17313TIP3    H173430   0.759   2.416  15.770 -0.0476 -3.1426  1.2291
17313TIP3    H273431   0.796   2.371  15.909  1.9946  2.5252  2.6844
17314TIP3   OH273432   4.395   4.184   1.401 -0.1828 -0.2675 -0.2549
17314TIP3    H173433   4.406   4.224   1.315 -2.4490 -0.8303 -0.8270
17314TIP3    H273434   4.378   4.092   1.383  0.4208 -0.6051  0.8554
17315TIP3   OH273435   0.248   0.120   0.933 -0.3130  0.3141 -0.4454
17315TIP3    H173436   0.236   0.051   0.999  0.3112  0.0496 -0.6073
17315TIP3    H273437   0.291   0.191   0.980 -0.8100  0.5345 -0.3182
17316TIP3   OH273438   1.765   3.490   0.358  0.4433  1.1238 -0.0262
17316TIP3    H173439   1.684   3.472   0.310  0.8242  0.7947 -0.5475
17316TIP3    H273440   1.834   3.452   0.304  1.0408  2.2523 -0.0660
17317TIP3   OH273441   6.329   0.434   0.177  0.1709 -0.8194 -0.0884
17317TIP3    H173442   6.417   0.464   0.156 -0.2140  0.9372  0.7180
17317TIP3    H273443   6.341   0.371   0.248  0.8693 -1.5842 -0.8699
17318TIP3   OH273444   1.435   2.634   3.443  0.7790  0.4344  0.0142
17318TIP3    H173445   1.403   2.718   3.476 -2.1474 -0.7668  0.4538
17318TIP3    H273446   1.443   2.579   3.522 -0.4167 -0.6270 -0.5756
17319TIP3   OH273447   2.443   6.530  10.931 -0.8694  0.3529 -0.3287
17319TIP3    H173448   2.372   6.513  10.869 -0.8026  0.1678 -0.3568
17319TIP3    H273449   2.522   6.504  10.884 -1.0644 -2.5940  0.8551
17320TIP3   OH273450   2.702   5.305  15.162 -0.0258  0.4801  0.3261
17320TIP3    H173451   2.734   5.365  15.230  0.6979 -0.9186  1.2403
17320TIP3    H273452   2.607   5.308  15.169  0.0413  0.4644  1.3074
17321TIP3   OH273453   1.837   5.023  16.215 -0.8711 -0.5810 -0.1312
17321TIP3    H173454   1.914   5.021  16.273 -2.1294 -1.1586  1.5829
17321TIP3    H273455   1.857   4.960  16.146  0.3944 -0.3632  0.0212
17322TIP3   OH273456   6.805   1.495  12.063 -0.0041 -0.4540 -0.3639
17322TIP3    H173457   6.898   1.518  12.060 -0.1367  0.1702  0.2832
17322TIP3    H273458   6.763   1.570  12.105 -0.7517 -0.8845 -0.3447
17323TIP3   OH273459   3.778   2.345  16.403  0.3269 -0.5159  0.1169
17323TIP3    H173460   3.844   2.319  16.468  1.3664  2.5058  0.3170
17323TIP3    H273461   3.812   2.311  16.320  0.4598 -1.8267  0.6884
17324TIP3   OH273462   5.886   2.534  15.701 -0.5795  0.2279  0.3045
17324TIP3    H173463   5.915   2.567  15.616 -0.7797 -0.4965 -0.0518
17324TIP3    H273464   5.840   2.608  15.741 -0.0527  0.7288 -0.0068
17325TIP3   OH273465   3.983   1.118  12.792 -0.6843 -0.5473 -0.2973
17325TIP3    H173466   4.003   1.207  12.765  0.4480 -1.0129 -0.9923
17325TIP3    H273467   3.907   1.128  12.850 -0.3463  0.8972 -0.0794
17326TIP3   OH273468   1.378   4.986   2.771 -0.4671 -0.4537  0.5819
17326TIP3    H173469   1.327   4.906   2.781 -1.9196  0.2843 -0.6322
17326TIP3    H273470   1.414   4.981   2.683 -3.7740  1.9294 -1.0610
17327TIP3   OH273471   0.224   3.351  16.208  0.2260 -0.2272 -0.4945
17327TIP3    H173472   0.181   3.341  16.293  1.0569 -1.7310 -0.2274
17327TIP3    H273473   0.292   3.417  16.223 -0.6543  0.6635 -0.4038
17328TIP3   OH273474   4.298   5.888   5.516 -0.8891 -0.0551 -0.5369
17328TIP3    H173475   4.323   5.977   5.542 -3.3152  1.2665 -2.5094
17328TIP3    H273476   4.379   5.837   5.523  0.7027  2.4613 -0.0559
17329TIP3   OH273477   0.853   0.851   4.163 -0.2999 -0.3659  0.2362
17329TIP3    H173478   0.852   0.837   4.068 -0.6295  1.5308 -0.0622
17329TIP3    H273479   0.923   0.794   4.195  1.1992  0.4938 -1.4112
17330TIP3   OH273480   5.870   1.194   0.663  0.0822  0.0799 -0.3767
17330TIP3    H173481   5.777   1.193   0.685  0.1389  0.7181 -0.1014
17330TIP3    H273482   5.914   1.185   0.748  0.2558 -2.7336 -0.7152
17331TIP3   OH273483   2.142   3.300  13.175 -0.1810  0.1037 -0.1758
17331TIP3    H173484   2.209   3.356  13.215  0.1795  0.2063 -0.9315
17331TIP3    H273485   2.070   3.301  13.238 -0.7978  2.6576 -0.8832
17332TIP3   OH273486   4.778   6.559  14.944  0.0155 -0.0124 -0.1740
17332TIP3    H173487   4.736   6.518  15.020  0.7851 -2.2909 -0.9591
17332TIP3    H273488   4.785   6.652  14.968  0.7156 -0.7732  2.7515
17333TIP3   OH273489   3.880   3.895   4.285  0.4238  0.6848  1.2219
17333TIP3    H173490   3.936   3.944   4.225  1.1268  0.1645  1.4477
17333TIP3    H273491   3.891   3.804   4.259  0.0020  0.5417  1.5401
17334TIP3   OH273492   5.809   1.418   3.554  0.1803 -0.0882  0.0703
17334TIP3    H173493   5.780   1.366   3.629  0.3385  0.8287  0.7802
17334TIP3    H273494   5.732   1.424   3.498 -0.2805  0.2056  0.7301
17335TIP3   OH273495   4.039   2.554   5.944 -0.3033  0.4776 -0.9956
17335TIP3    H173496   4.000   2.504   5.872 -0.1237 -2.8484  1.0890
17335TIP3    H273497   3.965   2.601   5.984 -0.9304 -0.1337 -1.4263
17336TIP3   OH273498   2.815   6.805  12.956  0.7933 -0.3368 -0.3375
17336TIP3    H173499   2.756   6.828  12.884  1.5839 -1.5583 -1.4151
17336TIP3    H273500   2.825   6.885  13.006 -2.4315 -0.3305  0.3625
17337TIP3   OH273501   4.503   4.338  12.620  0.2355  0.3295 -0.3127
17337TIP3    H173502   4.458   4.276  12.563  0.4765  1.8573 -2.2482
17337TIP3    H273503   4.577   4.289  12.656  1.3187 -0.1199 -3.0114
17338TIP3   OH273504   1.984   0.977   3.759  0.0154  0.3111  0.5811
17338TIP3    H173505   2.060   0.923   3.779  0.4067  0.9015  0.6959
17338TIP3    H273506   1.992   0.996   3.666  0.9944  1.8806  0.9677
17339TIP3   OH273507   6.009   2.264  12.713 -0.0765  0.3962 -0.2237
17339TIP3    H173508   6.033   2.355  12.730 -1.2237  1.0787 -2.1188
17339TIP3    H273509   5.962   2.236  12.791  0.2430  1.4314  0.3431
17340TIP3   OH273510   1.959   0.140   2.408 -0.2965 -0.7520  0.7178
17340TIP3    H173511   1.979   0.087   2.331 -1.1576 -0.5658  0.3569
17340TIP3    H273512   1.935   0.226   2.372  1.5599  0.0404  1.3120
17341TIP3   OH273513   2.081   2.297   5.305  0.2690  0.1401 -0.1401
17341TIP3    H173514   2.168   2.258   5.313 -0.1161 -0.7402 -0.2442
17341TIP3    H273515   2.029   2.256   5.374 -0.0257  0.7830  0.0277
17342TIP3   OH273516   5.952   0.185  16.850  0.7938 -0.3698 -0.2869
17342TIP3    H173517   5.969   0.242  16.925 -3.5449 -2.3384  2.3957
17342TIP3    H273518   5.900   0.239  16.791 -3.0661 -1.2861  2.1193
17343TIP3   OH273519   1.555   2.987  16.112  0.1907  0.8785 -0.0502
17343TIP3    H173520   1.593   2.900  16.123  0.7526  1.3407  1.7793
17343TIP3    H273521   1.523   2.987  16.022  1.4217 -0.7349 -0.5246
17344TIP3   OH273522   1.855   2.938   4.990 -0.2356 -0.5833  0.1850
17344TIP3    H173523   1.859   2.892   4.906 -0.1794  0.6001 -0.4739
17344TIP3    H273524   1.761   2.944   5.008 -0.2928  0.1523 -0.3505
17345TIP3   OH273525   2.552   6.761   4.867  0.2641  0.1240 -0.3092
17345TIP3    H173526   2.545   6.754   4.963  1.0804 -1.4806 -0.3534
17345TIP3    H273527   2.461   6.755   4.836  0.0725 -0.3342  0.3194
17346TIP3   OH273528   5.229   2.425  17.042  0.9716 -0.2216  0.2544
17346TIP3    H173529   5.278   2.342  17.044  0.5154 -0.4967  0.1754
17346TIP3    H273530   5.170   2.416  16.966 -0.2385 -0.4958  1.2105
17347TIP3   OH273531   0.945   0.003  13.123 -0.3594 -0.1363 -0.2848
17347TIP3    H173532   1.018   0.060  13.147  1.5508 -1.6308 -2.2817
17347TIP3    H273533   0.921  -0.041  13.204  0.9364  0.4392  0.4263
17348TIP3   OH273534   0.930   4.903   5.246  0.2857 -0.1911 -0.0665
17348TIP3    H173535   0.849   4.920   5.295  0.2630 -0.1147 -0.1311
17348TIP3    H273536   0.903   4.907   5.154  0.3766 -0.0988 -0.0889
17349TIP3   OH273537   0.278   2.470  13.534  0.3625 -0.7569  0.2669
17349TIP3    H173538   0.370   2.476  13.510  0.1728 -0.2162 -0.3340
17349TIP3    H273539   0.236   2.542  13.488 -0.2672 -0.6432  0.9991
17350TIP3   OH273540   4.895   4.544  13.401  0.2559 -0.5692 -0.2673
17350TIP3    H173541   4.929   4.461  13.367  0.3341  0.1634 -2.0262
17350TIP3    H273542   4.924   4.610  13.338 -1.1914  0.5883  0.2324
17351TIP3   OH273543   2.094   2.893   4.825  0.4271 -0.1999  0.7912
17351TIP3    H173544   2.153   2.821   4.804 -0.6668 -0.7442 -0.4434
17351TIP3    H273545   2.007   2.860   4.806 -0.0656  1.5908 -0.1773
17352TIP3   OH273546   4.704   4.134  13.279  0.0518  0.0616  0.3259
17352TIP3    H173547   4.709   4.225  13.251 -0.5550 -0.3812 -1.2609
17352TIP3    H273548   4.631   4.097  13.229  0.7387 -1.4715  0.4215
17353TIP3   OH273549   4.341   2.191  15.920 -0.4696 -0.1364  0.3274
17353TIP3    H173550   4.363   2.265  15.864 -0.6037  0.2040  0.7165
17353TIP3    H273551   4.269   2.223  15.975 -2.0172 -1.2403 -0.9958
17354TIP3   OH273552   3.074   4.885  13.440  0.1698  0.3908  0.0696
17354TIP3    H173553   3.111   4.797  13.446  1.4147  0.9620  1.0583
17354TIP3    H273554   3.087   4.911  13.349  1.7367  0.3696  0.2748
17355TIP3   OH273555   2.962   2.274  11.421  0.3652 -0.6489  0.6271
17355TIP3    H173556   2.873   2.308  11.429  0.1758 -0.5351 -1.6053
17355TIP3    H273557   2.999   2.321  11.346  1.9897 -1.3596  0.9668
17356TIP3   OH273558   4.099   2.013   2.896 -0.3320 -0.0579 -0.0498
17356TIP3    H173559   4.013   2.022   2.857 -1.4213 -0.7782  2.0890
17356TIP3    H273560   4.140   2.098   2.885 -1.8161  0.6780  0.0185
17357TIP3   OH273561   4.411   1.088   1.566 -0.5193  0.0547  0.0877
17357TIP3    H173562   4.483   1.146   1.592 -1.0332  1.1855 -0.9648
17357TIP3    H273563   4.333   1.143   1.569 -0.7035  0.0240 -3.0785
17358TIP3   OH273564   6.450   3.784  11.373  0.3233  0.0255 -0.2498
17358TIP3    H173565   6.359   3.815  11.376  0.3011 -0.1660  1.9489
17358TIP3    H273566   6.462   3.737  11.455  2.1621 -0.7053 -0.9110
17359TIP3   OH273567   1.303   2.391   3.333 -0.0771  0.3295  0.0206
17359TIP3    H173568   1.238   2.456   3.360  1.2185  2.0637 -0.9640
17359TIP3    H273569   1.383   2.441   3.321  0.3543 -1.0481 -3.2273
17360TIP3   OH273570   5.358   1.943   4.462 -0.1066  0.3360  0.0068
17360TIP3    H173571   5.421   2.016   4.464  0.3336 -0.0479  0.0634
17360TIP3    H273572   5.277   1.981   4.496  1.0728 -0.1427  3.5241
17361TIP3   OH273573   0.046   2.676   2.101  0.0833  0.3753 -0.1460
17361TIP3    H173574   0.105   2.673   2.025 -0.9340 -1.0055 -0.9022
17361TIP3    H273575   0.092   2.731   2.165  2.2325 -0.7491 -0.6865
17362TIP3   OH273576   5.454   5.823   3.804  0.3819 -0.2533  0.0977
17362TIP3    H173577   5.542   5.861   3.800  0.1967  0.2453  0.7160
17362TIP3    H273578   5.464   5.748   3.864  0.1972  0.3230  0.8550
17363TIP3   OH273579   5.105   0.756   5.085 -0.2744  0.6077  0.1236
17363TIP3    H173580   5.162   0.831   5.105 -1.5381  1.4632  0.5663
17363TIP3    H273581   5.019   0.783   5.116 -0.0631 -2.5158  3.7652
17364TIP3   OH273582   2.952   1.391  15.453 -0.2210  0.3408 -0.5206
17364TIP3    H173583   2.880   1.355  15.505  1.7230 -1.8719  0.7170
17364TIP3    H273584   2.996   1.452  15.512 -0.3466  0.8048 -0.8986
17365TIP3   OH273585   1.396   0.760   0.727 -0.2033  0.1966  0.3704
17365TIP3    H173586   1.466   0.811   0.767 -0.4566  0.8153  0.0292
17365TIP3    H273587   1.352   0.718   0.801 -0.1768  0.7052  0.6789
17366TIP3   OH273588   0.677   6.538  12.700  0.1262  0.2621  0.4414
17366TIP3    H173589   0.735   6.473  12.739  1.1154  1.4732  1.0190
17366TIP3    H273590   0.620   6.488  12.642  3.4249 -0.6408 -2.1298
17367TIP3   OH273591   2.332   6.357   2.421 -0.4251 -0.0921  0.0084
17367TIP3    H173592   2.270   6.370   2.349  0.6735 -2.2948 -1.4077
17367TIP3    H273593   2.392   6.431   2.415  1.1449 -1.5003 -2.9851
17368TIP3   OH273594   2.836   1.581  12.864 -0.0548 -0.1858 -0.5039
17368TIP3    H173595   2.883   1.503  12.893  1.5211  0.6800 -0.6705
17368TIP3    H273596   2.785   1.608  12.940 -0.1143 -1.0051 -0.2450
17369TIP3   OH273597   4.304   3.947   1.272  0.0699 -0.2163 -0.7055
17369TIP3    H173598   4.314   3.879   1.205 -0.2431 -0.4952 -0.4686
17369TIP3    H273599   4.245   4.010   1.233 -3.1037 -2.2018  0.6995
17370TIP3   OH273600   0.710   4.524   4.255  0.2752  0.1994  0.4403
17370TIP3    H173601   0.695   4.524   4.160 -0.0441  0.9124  0.4858
17370TIP3    H273602   0.680   4.438   4.284  2.1232 -0.7449 -0.3636
17371TIP3   OH273603   5.195   1.047  15.349  0.7098  0.5738 -0.2635
17371TIP3    H173604   5.102   1.047  15.324  0.8240  0.1019 -0.6979
17371TIP3    H273605   5.204   0.971  15.406  0.5182  1.4663  0.9837
17372TIP3   OH273606   0.266   5.943   3.445 -0.5376  0.1875  0.0119
17372TIP3    H173607   0.314   6.025   3.454 -0.5635  0.2680 -0.5708
17372TIP3    H273608   0.240   5.940   3.353 -1.6880  0.1644  0.3246
17373TIP3   OH273609   1.945   6.071   5.478  0.2692  0.0537 -0.2099
17373TIP3    H173610   1.950   6.011   5.404  1.1473 -0.2992  0.1303
17373TIP3    H273611   1.866   6.124   5.461  0.7897  0.3702 -1.6860
17374TIP3   OH273612   6.519   0.604  14.894  0.7858  0.3197 -0.4219
17374TIP3    H173613   6.459   0.670  14.927  0.3400 -0.0083 -0.5586
17374TIP3    H273614   6.500   0.526  14.946 -1.5655 -0.8920 -2.9364
17375TIP3   OH273615   0.174   3.931   5.235 -0.3172 -0.5858  0.2343
17375TIP3    H173616   0.099   3.926   5.295  0.6270  0.5916  1.5683
17375TIP3    H273617   0.246   3.891   5.284  0.1575 -0.8065 -0.6384
17376TIP3   OH273618   4.231   5.425   5.680 -0.4052 -0.7702  0.1480
17376TIP3    H173619   4.195   5.438   5.768 -1.1509  2.8872 -0.6026
17376TIP3    H273620   4.156   5.436   5.622  0.2656 -2.2452 -1.0260
17377TIP3   OH273621   2.655   4.334  15.556 -0.4102 -0.0461  0.2424
17377TIP3    H173622   2.645   4.427  15.533  2.2018 -0.0970 -1.2529
17377TIP3    H273623   2.698   4.335  15.642  0.2457  0.1225 -0.0887
17378TIP3   OH273624   2.123   5.669   3.981 -0.6842  0.1233 -0.0436
17378TIP3    H173625   2.109   5.580   4.015 -1.9154  0.9699  1.7267
17378TIP3    H273626   2.051   5.682   3.919  0.3323 -0.6350 -1.4003
17379TIP3   OH273627   3.465   0.334   2.716  0.0305  0.0323  0.1551
17379TIP3    H173628   3.558   0.314   2.726 -0.0276 -1.5339 -2.2004
17379TIP3    H273629   3.457   0.367   2.627 -1.7588 -0.3345  0.1596
17380TIP3   OH273630   1.795   0.212   5.041  0.4663  0.4423 -0.6272
17380TIP3    H173631   1.784   0.152   5.115  2.9140 -0.1546 -0.6815
17380TIP3    H273632   1.876   0.183   4.999  0.3392  2.2202 -2.1610
17381TIP3   OH273633   2.064   0.230   1.310  0.0867 -0.5005  0.8484
17381TIP3    H173634   2.086   0.274   1.392 -0.2011  1.8729 -0.3068
17381TIP3    H273635   1.968   0.223   1.312 -0.0906  1.4455 -0.2005
17382TIP3   OH273636   2.075   1.735   3.720 -0.5213 -0.3718  0.1621
17382TIP3    H173637   2.135   1.796   3.676 -1.5245  3.2666  3.5673
17382TIP3    H273638   2.114   1.721   3.806 -2.6450 -0.9735  1.0560
17383TIP3   OH273639   0.709   0.488   2.651  0.0308 -0.4492 -0.2007
17383TIP3    H173640   0.640   0.553   2.659  0.9502  0.4900  0.1995
17383TIP3    H273641   0.663   0.405   2.638 -1.1755  0.1125  0.4426
17384TIP3   OH273642   2.676   6.260   3.913 -0.2281 -0.4284  0.3252
17384TIP3    H173643   2.632   6.262   3.998  0.6594  0.0003  0.7940
17384TIP3    H273644   2.769   6.248   3.935 -0.1614 -1.7533 -0.6509
17385TIP3   OH273645   3.895   0.353  13.061 -0.4544  0.1352 -0.5919
17385TIP3    H173646   3.895   0.393  12.975 -2.6216  1.7827  0.1331
17385TIP3    H273647   3.939   0.416  13.118 -0.8551 -0.0237 -0.0934
17386TIP3   OH273648   6.194   1.176  14.521  0.0957 -0.1274 -0.6315
17386TIP3    H173649   6.156   1.239  14.459  0.6863  0.0596 -0.8126
17386TIP3    H273650   6.181   1.216  14.607  0.5660  0.3024 -0.7532
17387TIP3   OH273651   6.392   0.628  11.892  0.1732 -0.7849 -0.4360
17387TIP3    H173652   6.357   0.565  11.829  1.4133  0.4179 -2.3483
17387TIP3    H273653   6.479   0.650  11.859  1.0101 -0.4026  1.9008
17388TIP3   OH273654   5.886   2.364  12.258  0.0919  0.0239  0.0646
17388TIP3    H173655   5.981   2.361  12.246 -0.2502 -0.8732 -2.9282
17388TIP3    H273656   5.864   2.457  12.258  0.7591  0.2028 -1.6198
17389TIP3   OH273657   0.739   2.797   3.629  0.2625 -0.5236 -0.0442
17389TIP3    H173658   0.727   2.888   3.600  0.2567 -0.8663 -1.1641
17389TIP3    H273659   0.770   2.804   3.719 -1.0327  0.5581  0.3321
17390TIP3   OH273660   4.040   2.802  14.056  0.2248 -0.7570  0.6240
17390TIP3    H173661   4.036   2.844  13.970 -2.4167 -1.2509  0.4900
17390TIP3    H273662   4.101   2.729  14.043 -0.9078 -1.4285 -1.0919
17391TIP3   OH273663   2.551   0.327   5.745 -0.8920  0.1304 -0.5272
17391TIP3    H173664   2.482   0.369   5.796 -1.2604  0.8798 -1.6368
17391TIP3    H273665   2.573   0.248   5.795  0.5161  2.1291  2.1138
17392TIP3   OH273666   4.638   0.087   2.817 -0.3878  0.1960 -0.1749
17392TIP3    H173667   4.573   0.156   2.831 -0.3146 -0.0857  1.6655
17392TIP3    H273668   4.719   0.135   2.797 -0.2617  0.6641  1.4125
17393TIP3   OH273669   6.412   1.456   4.347  0.0703 -0.2766 -0.1862
17393TIP3    H173670   6.490   1.444   4.401  0.9838  0.9521 -1.2061
17393TIP3    H273671   6.429   1.403   4.269 -0.2057 -0.1897 -0.3047
17394TIP3   OH273672   2.703   1.547  14.693  0.2951  0.4001  0.3666
17394TIP3    H173673   2.609   1.529  14.702  0.5261 -0.2238  1.6351
17394TIP3    H273674   2.726   1.593  14.774  1.4447 -1.0416  0.8781
17395TIP3   OH273675   1.455   0.842   5.949  0.2878  0.3409 -0.0195
17395TIP3    H173676   1.420   0.784   5.881 -0.1792 -0.2771  0.7468
17395TIP3    H273677   1.546   0.815   5.961 -0.0486 -0.5139  0.6341
17396TIP3   OH273678   6.246   5.505   1.764 -0.1437 -0.0477  0.7108
17396TIP3    H173679   6.225   5.412   1.774  0.0211 -0.4597 -2.3612
17396TIP3    H273680   6.341   5.509   1.780  0.7567 -1.2432 -3.5580
17397TIP3   OH273681   6.553   2.892  13.576 -0.1225  0.0653  0.1253
17397TIP3    H173682   6.545   2.816  13.634  1.1586 -0.6088 -0.5555
17397TIP3    H273683   6.504   2.961  13.620  0.9894 -0.3761  2.1046
17398TIP3   OH273684   2.321   2.903  11.478 -0.1457  0.1909  0.4140
17398TIP3    H173685   2.266   2.960  11.532 -1.2199 -0.8882  0.4862
17398TIP3    H273686   2.400   2.890  11.531  0.0100  1.4293  0.4876
17399TIP3   OH273687   5.756   5.548   5.826  0.0052 -0.2219 -0.8217
17399TIP3    H173688   5.734   5.641   5.818 -0.2877 -0.1275  0.9737
17399TIP3    H273689   5.777   5.536   5.918 -1.9458 -2.3529 -0.6043
17400TIP3   OH273690   5.940   2.269  13.448  0.4064  0.4591  0.0901
17400TIP3    H173691   5.971   2.216  13.374  0.3730 -1.9742  1.7735
17400TIP3    H273692   5.915   2.353  13.408  0.9049 -0.6044 -2.5761
17401TIP3   OH273693   5.294   1.937  16.897  0.1406  0.0446  0.4453
17401TIP3    H173694   5.251   1.863  16.855 -1.2926  1.1426 -0.0695
17401TIP3    H273695   5.227   2.005  16.900  0.9797  0.8357  2.2471
17402TIP3   OH273696   1.178   0.785  12.684  0.4051 -0.1106 -0.5963
17402TIP3    H173697   1.094   0.752  12.655  0.3850 -0.2321 -0.3976
17402TIP3    H273698   1.240   0.714  12.666  0.5166  0.0810 -1.0026
17403TIP3   OH273699   1.912   6.739  11.782  0.5547 -0.4470  0.6727
17403TIP3    H173700   1.999   6.701  11.795  0.0937 -1.8147 -0.1805
17403TIP3    H273701   1.877   6.694  11.706  0.4360  2.4860 -1.0915
17404TIP3   OH273702   6.293   4.408  13.073 -0.4965 -0.7024  0.0756
17404TIP3    H173703   6.262   4.493  13.041  0.1547 -0.2462  0.6342
17404TIP3    H273704   6.237   4.390  13.149 -2.0426 -1.7842 -1.2851
17405TIP3   OH273705   6.592   2.698  16.503 -0.2607  0.5746 -0.1826
17405TIP3    H173706   6.667   2.743  16.464  0.6216  0.3810  1.2265
17405TIP3    H273707   6.569   2.630  16.441  0.0593  1.3135 -1.1183
17406TIP3   OH273708   1.413   5.936  11.327  0.3551 -0.1460 -0.0062
17406TIP3    H173709   1.343   5.905  11.270 -0.9465  1.4038  0.7029
17406TIP3    H273710   1.483   5.871  11.318 -0.1714 -0.3913 -2.6826
17407TIP3   OH273711   5.575   5.604  14.307  0.1197  0.4648  0.3019
17407TIP3    H173712   5.502   5.607  14.245 -0.2122  0.0383  0.6699
17407TIP3    H273713   5.636   5.670  14.275 -1.2800  2.1491  1.0515
17408TIP3   OH273714   3.085   3.241  15.365 -0.1955  0.3394 -0.2972
17408TIP3    H173715   3.077   3.152  15.331 -1.5962 -0.0664  1.0568
17408TIP3    H273716   2.996   3.277  15.361 -0.3500  0.4055  2.5423
17409TIP3   OH273717   5.013   3.480  13.900  0.2548  0.1165 -0.3009
17409TIP3    H173718   5.030   3.457  13.991  0.8759 -1.0615 -0.6987
17409TIP3    H273719   5.089   3.533  13.875 -0.2231  0.9708  0.0452
17410TIP3   OH273720   5.585   6.581  16.714 -0.4926 -0.6080  0.2915
17410TIP3    H173721   5.568   6.614  16.802  0.1855 -1.4076  0.7380
17410TIP3    H273722   5.566   6.487  16.720  0.7182 -0.8833 -0.0834
17411TIP3   OH273723   3.120   3.317   3.295 -0.0725  0.4871  0.1934
17411TIP3    H173724   3.207   3.314   3.336 -0.5976 -1.6369  1.2178
17411TIP3    H273725   3.123   3.250   3.227 -1.5941 -1.2149  1.7297
17412TIP3   OH273726   0.680   2.569  14.348  0.0075  0.3178 -0.4315
17412TIP3    H173727   0.748   2.504  14.328 -0.5496  0.3260 -2.5324
17412TIP3    H273728   0.598   2.520  14.344 -0.1644  0.4440  1.4336
17413TIP3   OH273729   1.388   5.251   1.286 -0.4847 -0.1027  0.4009
17413TIP3    H173730   1.317   5.312   1.304 -1.2703 -0.6121 -0.8930
17413TIP3    H273731   1.347   5.180   1.237  1.0834  0.1092 -1.3067
17414TIP3   OH273732   6.130   0.574  16.863 -0.2932 -0.1166 -0.2739
17414TIP3    H173733   6.186   0.644  16.829  0.2643 -0.3829  0.1067
17414TIP3    H273734   6.074   0.550  16.788 -0.0286  0.2696 -0.5985
17415TIP3   OH273735   3.480   1.374  14.826  0.1278  0.0884  0.0102
17415TIP3    H173736   3.524   1.289  14.814  1.0992  0.2273  2.2408
17415TIP3    H273737   3.550   1.433  14.855 -0.8420  1.2649 -0.0183
17416TIP3   OH273738   2.831   2.095   4.741 -0.3899  0.1487 -0.3654
17416TIP3    H173739   2.824   2.003   4.767 -0.9235  0.3073  0.0507
17416TIP3    H273740   2.749   2.112   4.694 -0.9860  0.8481  0.9102
17417TIP3   OH273741   3.182   5.941  11.337 -0.4404  0.3024 -0.6718
17417TIP3    H173742   3.232   6.018  11.311 -1.6985  1.0466 -0.9409
17417TIP3    H273743   3.097   5.976  11.365 -0.7603 -0.9191 -0.0725
17418TIP3   OH273744   2.435   1.358  13.008 -0.5833 -0.3634 -0.5252
17418TIP3    H173745   2.508   1.415  13.031 -0.8485 -0.2275 -0.0028
17418TIP3    H273746   2.412   1.314  13.090 -0.5862 -0.9799 -0.8573
17419TIP3   OH273747   1.544   4.931   5.370  0.2346 -0.4907  0.1533
17419TIP3    H173748   1.600   4.997   5.412  1.8945 -1.6662 -0.1636
17419TIP3    H273749   1.497   4.890   5.443 -0.0294  0.3291  0.4504
17420TIP3   OH273750   0.021   3.775  11.834 -0.0118  0.1443  0.0976
17420TIP3    H173751   0.014   3.852  11.778 -0.3802 -0.5600 -0.8404
17420TIP3    H273752  -0.070   3.747  11.849  0.1994 -2.3356 -2.7269
17421TIP3   OH273753   5.147   4.876   2.124 -0.1381  0.7243 -0.5666
17421TIP3    H173754   5.108   4.963   2.112 -0.0908  0.9893  1.1492
17421TIP3    H273755   5.100   4.838   2.198  0.2936 -0.4582 -0.8869
17422TIP3   OH273756   1.951   5.606   0.514 -0.1820 -0.6981  0.2954
17422TIP3    H173757   1.916   5.675   0.570 -0.8573 -1.8873  1.3795
17422TIP3    H273758   2.030   5.643   0.476 -1.4431  1.2762 -0.4917
17423TIP3   OH273759   0.238   5.430  12.643  0.2925  0.1243 -0.5750
17423TIP3    H173760   0.310   5.374  12.671 -1.5742 -1.3543  1.3686
17423TIP3    H273761   0.259   5.451  12.552  3.6783  0.5742  0.2444
17424TIP3   OH273762   6.156   4.953  12.588 -0.0131  0.3156  0.0567
17424TIP3    H173763   6.115   5.029  12.629 -0.1840 -0.7458  1.9066
17424TIP3    H273764   6.248   4.959  12.615  0.0286  0.0319 -0.0215
17425TIP3   OH273765   4.006   6.241  13.703 -0.3008  0.0911 -0.1891
17425TIP3    H173766   3.981   6.260  13.793 -3.5483  0.9437 -1.1787
17425TIP3    H273767   4.053   6.158  13.707 -1.3346 -0.4131  2.1559
17426TIP3   OH273768   0.689   6.196  12.012  0.1318  0.4097 -0.4186
17426TIP3    H173769   0.744   6.257  11.963  1.5010  0.1460  0.7442
17426TIP3    H273770   0.659   6.133  11.947  0.6823  0.9343 -1.1940
17427TIP3   OH273771   4.951   0.959  14.228  0.0913  0.2463 -0.5172
17427TIP3    H173772   5.008   1.026  14.266 -1.0606  0.0139  1.7015
17427TIP3    H273773   4.880   0.949  14.292 -1.0021 -1.4031 -1.9464
17428TIP3   OH273774   0.867   0.083  15.899 -0.2104 -0.0617  0.0727
17428TIP3    H173775   0.829   0.073  15.812 -1.4275 -1.0301  0.6862
17428TIP3    H273776   0.809   0.146  15.943  0.6583  0.7685  0.0423
17429TIP3   OH273777   2.445   2.513  11.833 -0.0842  0.8797 -0.1725
17429TIP3    H173778   2.370   2.525  11.774  0.3659 -0.7087 -1.1100
17429TIP3    H273779   2.408   2.464  11.907 -0.0848  0.4659 -0.4376
17430TIP3   OH273780   6.519   4.067   4.202  0.1445 -0.2567 -0.1378
17430TIP3    H173781   6.454   4.002   4.227  1.1883 -1.2929 -0.0991
17430TIP3    H273782   6.467   4.140   4.168 -1.0124 -1.3322 -0.7333
17431TIP3   OH273783   5.733   3.275   1.393  0.2315  0.1800  0.7976
17431TIP3    H173784   5.713   3.369   1.393 -0.1770  0.1250 -2.3211
17431TIP3    H273785   5.653   3.234   1.427 -0.4388  0.8078 -0.0085
17432TIP3   OH273786   5.736   0.018   5.924  0.0097 -0.7649  0.1493
17432TIP3    H173787   5.768   0.108   5.937  0.5146 -1.0936  1.2023
17432TIP3    H273788   5.716  -0.013   6.012 -0.5549 -1.5490 -0.2566
17433TIP3   OH273789   6.055   6.655  11.335 -0.2169  0.6886  0.3224
17433TIP3    H173790   6.104   6.679  11.414 -0.3830 -0.7237  0.8585
17433TIP3    H273791   5.967   6.636  11.367  0.7393 -4.0407  0.4552
17434TIP3   OH273792   3.372   5.742   4.905  0.2749 -0.4985  0.2359
17434TIP3    H173793   3.414   5.697   4.831 -0.4017  1.0351 -1.1080
17434TIP3    H273794   3.280   5.719   4.897 -0.0141  0.7771 -0.2309
17435TIP3   OH273795   6.272   0.469   6.571 -0.4186  0.0969 -0.3349
17435TIP3    H173796   6.308   0.461   6.660 -0.9714 -1.4201 -0.2251
17435TIP3    H273797   6.200   0.531   6.580 -0.3465  0.1005  0.2420
17436TIP3   OH273798   4.779   2.806  13.300  0.3861  0.1937 -0.1090
17436TIP3    H173799   4.854   2.762  13.340 -1.1210 -0.3601  2.2410
17436TIP3    H273800   4.717   2.818  13.372 -1.2271  1.8833 -1.6979
17437TIP3   OH273801   3.363   5.349   3.799 -0.0495  0.0966  0.0582
17437TIP3    H173802   3.345   5.273   3.744 -2.3021  1.1427 -0.7072
17437TIP3    H273803   3.436   5.394   3.757 -0.0646 -0.5174 -0.6217
17438TIP3   OH273804   4.308   3.547   6.169 -0.3836  0.1711  0.5541
17438TIP3    H173805   4.355   3.497   6.102  0.0432  0.0971  0.9039
17438TIP3    H273806   4.372   3.556   6.240 -0.6754  0.6622  0.7499
17439TIP3   OH273807   6.301   2.379  12.594  0.3803 -0.1095 -0.6597
17439TIP3    H173808   6.337   2.389  12.683  1.4683  0.1305 -1.1146
17439TIP3    H273809   6.209   2.403  12.603  0.6784  0.7495  0.2417
17440TIP3   OH273810   0.794   1.037  10.989  0.0740  0.1638  0.1259
17440TIP3    H173811   0.750   1.016  10.907 -0.7904  1.1054  0.3459
17440TIP3    H273812   0.728   1.081  11.042  0.9511  0.5962  0.8854
17441TIP3   OH273813   2.773   0.605   2.539  0.4504 -0.0001  0.2096
17441TIP3    H173814   2.679   0.619   2.538  0.3855  0.1364  3.3158
17441TIP3    H273815   2.810   0.692   2.558  1.2859  0.1655 -2.0393
17442TIP3   OH273816   3.547   4.374   0.956  0.6799  0.7205  0.2386
17442TIP3    H173817   3.551   4.329   0.871  1.5479 -2.3883  1.8478
17442TIP3    H273818   3.639   4.390   0.979  0.6393 -1.5147  2.1028
17443TIP3   OH273819   2.309   2.974  15.287 -0.1761 -0.0842 -0.2004
17443TIP3    H173820   2.287   2.955  15.378  1.4174 -0.1320  0.1897
17443TIP3    H273821   2.241   3.035  15.258 -1.3269 -0.9142  0.6689
17444TIP3   OH273822   6.405   3.463  14.663 -0.3771 -0.9381  0.4198
17444TIP3    H173823   6.363   3.443  14.746  0.1980  3.6699  2.0018
17444TIP3    H273824   6.337   3.452  14.597 -2.8488  1.8633  2.3818
17445TIP3   OH273825   6.546   1.897   1.766  0.4509 -0.3885  0.6826
17445TIP3    H173826   6.470   1.872   1.819 -0.9435 -0.8014 -1.4630
17445TIP3    H273827   6.579   1.976   1.808 -0.0035 -1.2582  2.7536
17446TIP3   OH273828   0.217   5.031  15.698 -0.3455  0.0442  0.1596
17446TIP3    H173829   0.305   5.004  15.671 -0.1676 -0.0828  0.8548
17446TIP3    H273830   0.205   5.116  15.656 -1.3862 -1.6011 -3.0047
17447TIP3   OH273831   1.181   3.532  10.951 -0.1566  0.1635  1.0153
17447TIP3    H173832   1.228   3.465  10.901  0.6615  1.7637 -0.3966
17447TIP3    H273833   1.089   3.517  10.929 -0.0025 -0.5880  0.8510
17448TIP3   OH273834   2.734   0.148  13.878 -0.0727  0.0576  0.2106
17448TIP3    H173835   2.795   0.214  13.847  1.5933 -1.4684  0.1020
17448TIP3    H273836   2.660   0.197  13.912  0.9971  1.9518 -0.1265
17449TIP3   OH273837   3.864   4.534  14.365  0.1848 -0.0933 -0.3379
17449TIP3    H173838   3.809   4.590  14.419 -0.1076 -1.2033  0.5361
17449TIP3    H273839   3.831   4.446  14.381  1.5762 -0.6696 -0.5780
17450TIP3   OH273840   4.687   6.306   0.042 -0.4759 -0.1679  0.1170
17450TIP3    H173841   4.728   6.250   0.108  0.1660 -0.3406 -0.4332
17450TIP3    H273842   4.602   6.265   0.025 -1.3374  0.7614  2.0196
17451TIP3   OH273843   3.597   4.500  15.630  0.9063 -0.2494  0.2956
17451TIP3    H173844   3.514   4.454  15.639  0.3784  0.1923 -2.0903
17451TIP3    H273845   3.575   4.592  15.643  1.0058 -0.1257 -0.3956
17452TIP3   OH273846   6.337   2.218   1.061 -0.4126  0.7251 -0.0205
17452TIP3    H173847   6.406   2.193   1.122 -0.2357 -1.6022 -1.1173
17452TIP3    H273848   6.369   2.299   1.021  2.2083 -0.8506 -1.2534
17453TIP3   OH273849   4.575   4.883  10.179 -0.0474 -0.6620  0.2395
17453TIP3    H173850   4.497   4.894  10.233 -0.5037 -0.6358 -0.4104
17453TIP3    H273851   4.558   4.939  10.103  0.2986 -1.1985 -0.2337
17454TIP3   OH273852   1.866   5.484  14.702 -0.5103  0.6825 -0.6789
17454TIP3    H173853   1.811   5.497  14.779  0.1061  0.1195 -0.1365
17454TIP3    H273854   1.804   5.464  14.631 -0.8896 -1.9157  0.3447
17455TIP3   OH273855   4.283   4.889  11.122 -0.0343 -0.0979  0.0090
17455TIP3    H173856   4.224   4.964  11.123  0.1322  0.0428 -0.3449
17455TIP3    H273857   4.343   4.907  11.049 -0.0235 -0.5966 -0.1113
17456TIP3   OH273858   4.692   1.311   4.730  0.7305 -0.3533  0.7434
17456TIP3    H173859   4.715   1.230   4.774  2.1300 -0.9889 -1.1213
17456TIP3    H273860   4.717   1.298   4.639 -1.8217  1.0530 -0.2352
17457TIP3   OH273861   1.941   6.617  16.756 -0.2292 -0.3170  0.2651
17457TIP3    H173862   1.851   6.585  16.747 -0.2273 -0.4890  0.8292
17457TIP3    H273863   1.931   6.703  16.798 -0.0974 -0.5513  0.7717
17458TIP3   OH273864   5.423   3.683   5.029 -0.5770  0.1091  0.5890
17458TIP3    H173865   5.352   3.624   5.001 -0.7554  0.2634  0.7166
17458TIP3    H273866   5.499   3.625   5.038  0.3021  0.5351 -3.2547
17459TIP3   OH273867   5.156   4.575   2.986 -0.4467  0.5899  0.3935
17459TIP3    H173868   5.217   4.528   2.928 -0.7932 -0.7180  1.0737
17459TIP3    H273869   5.170   4.536   3.072 -0.6259  1.8700  1.0074
17460TIP3   OH273870   2.984   1.964   2.256 -0.2254 -0.3412 -0.5676
17460TIP3    H173871   3.032   1.884   2.275 -0.2837 -0.6292 -1.5891
17460TIP3    H273872   3.006   2.024   2.327 -0.9961 -1.6207  0.7746
17461TIP3   OH273873   6.446   3.443   5.092 -0.0314  0.6339 -0.2663
17461TIP3    H173874   6.531   3.405   5.115 -0.4418  0.6009  1.2588
17461TIP3    H273875   6.424   3.404   5.008  0.7592 -0.5227  0.0481
17462TIP3   OH273876   0.510   2.290   0.384 -0.1454 -0.1101  0.3929
17462TIP3    H173877   0.600   2.316   0.365 -0.9283  2.9765  0.5050
17462TIP3    H273878   0.502   2.299   0.479 -1.0511  1.5576  0.1951
17463TIP3   OH273879   3.721   4.071   3.916  0.5420 -0.4929 -0.1484
17463TIP3    H173880   3.800   4.021   3.895  1.0958 -0.0625  0.8674
17463TIP3    H273881   3.693   4.036   4.001 -1.5184 -2.0491 -1.4186
17464TIP3   OH273882   3.493   5.182  14.534  0.4404  0.2517  0.2423
17464TIP3    H173883   3.573   5.149  14.575  1.9568  2.7350 -0.6208
17464TIP3    H273884   3.448   5.229  14.603  0.0102 -0.6083  0.5602
17465TIP3   OH273885   6.162   6.070   1.530  0.0633 -0.2442 -0.0829
17465TIP3    H173886   6.245   6.066   1.576  0.5887  2.0122 -0.7701
17465TIP3    H273887   6.181   6.117   1.449 -1.1336 -2.9345 -1.9806
17466TIP3   OH273888   2.957   3.379  12.171  0.3303 -0.4835  0.3950
17466TIP3    H173889   3.011   3.324  12.229 -0.1455 -1.0087  0.3494
17466TIP3    H273890   2.873   3.333  12.166 -0.0586  0.2259  0.3074
17467TIP3   OH273891   0.747   6.815   0.829  0.0174 -0.1342 -0.1707
17467TIP3    H173892   0.741   6.742   0.890  0.9093  1.0547  1.3603
17467TIP3    H273893   0.667   6.865   0.844  0.0687 -0.0311 -0.2412
17468TIP3   OH273894   6.738   5.270  17.108  0.1081  0.8573 -0.3085
17468TIP3    H173895   6.718   5.344  17.164 -0.4220  0.6379 -0.2101
17468TIP3    H273896   6.671   5.271  17.040 -1.0767 -0.7048  0.8184
17469TIP3   OH273897   4.265   2.685   5.974  0.2008 -0.3025 -0.0182
17469TIP3    H173898   4.194   2.639   5.929 -0.9971  1.1679  0.3153
17469TIP3    H273899   4.226   2.715   6.056  0.9409  1.2765 -0.2172
17470TIP3   OH273900   1.527   2.206   2.116  0.0079  0.4685  0.3079
17470TIP3    H173901   1.579   2.266   2.063  1.5676 -0.8216  0.3360
17470TIP3    H273902   1.577   2.196   2.197  0.0178 -1.2331  0.1112
17471TIP3   OH273903   5.760   3.421   2.832 -0.6082  0.2241  0.4517
17471TIP3    H173904   5.726   3.378   2.910  0.2746  0.7462  1.1376
17471TIP3    H273905   5.683   3.460   2.791 -1.0596  0.0564  1.1308
17472TIP3   OH273906   5.162   2.739  11.525 -0.0739  0.5804 -0.1665
17472TIP3    H173907   5.066   2.738  11.531 -0.2250  0.1586 -2.2306
17472TIP3    H273908   5.184   2.829  11.505 -0.0908  0.5404 -0.3675
17473TIP3   OH273909   3.096   1.268   1.522 -0.2244  0.1324 -0.2400
17473TIP3    H173910   3.083   1.174   1.539  1.1736 -0.2953 -1.4585
17473TIP3    H273911   3.113   1.273   1.428 -0.8585  1.6913 -0.2839
17474TIP3   OH273912   2.096   2.559  11.658  0.2241 -0.4359 -0.0694
17474TIP3    H173913   2.174   2.584  11.608 -0.5871 -1.6272 -1.9806
17474TIP3    H273914   2.115   2.471  11.690  0.3883 -0.0149  1.0030
17475TIP3   OH273915   6.209   3.093   4.192 -0.2860 -0.2863 -0.1523
17475TIP3    H173916   6.280   3.146   4.155 -1.9012  2.7126  0.8639
17475TIP3    H273917   6.140   3.097   4.125 -0.6347 -0.6334  0.1877
17476TIP3   OH273918   0.913   4.940   3.322 -0.1455 -1.0712  0.6349
17476TIP3    H173919   0.859   4.880   3.373  0.3728 -1.9438  0.1770
17476TIP3    H273920   0.940   4.889   3.246  0.7984 -0.4553  0.5437
17477TIP3   OH273921   1.028   2.298  12.320  0.0500  0.4413 -0.0899
17477TIP3    H173922   0.948   2.311  12.269  0.7598  1.5032 -0.9666
17477TIP3    H273923   1.014   2.348  12.400 -0.1160  0.7325 -0.2989
17478TIP3   OH273924   1.165   3.555   4.521  0.2726  0.3035 -0.3495
17478TIP3    H173925   1.074   3.562   4.493  0.9065  3.4321 -1.8130
17478TIP3    H273926   1.194   3.470   4.486 -1.3407  0.4217 -2.0616
17479TIP3   OH273927   2.607   1.748   5.720  0.1065 -0.6792  0.7763
17479TIP3    H173928   2.620   1.704   5.636 -0.7052 -1.9105  1.2659
17479TIP3    H273929   2.689   1.795   5.736 -0.2554  0.6832 -1.3356
17480TIP3   OH273930   2.406   6.757   0.651 -0.1088 -0.0487  0.2796
17480TIP3    H173931   2.395   6.823   0.582  0.3611  1.1632  1.3399
17480TIP3    H273932   2.404   6.807   0.732  0.3950 -1.3348  1.1007
17481TIP3   OH273933   2.833   3.926  16.312  0.1354  0.5711  1.0474
17481TIP3    H173934   2.854   3.889  16.398 -0.6073  1.0974  1.4647
17481TIP3    H273935   2.914   3.968  16.283  0.5872 -0.2172  1.1811
17482TIP3   OH273936   5.052   6.186   4.443  0.4110  0.1482  0.4063
17482TIP3    H173937   4.989   6.256   4.456  1.3271  0.9592  0.5540
17482TIP3    H273938   5.114   6.196   4.515 -0.4538 -1.9499  1.5064
17483TIP3   OH273939   1.979   6.104   1.302 -0.0907  0.0236 -0.0263
17483TIP3    H173940   2.043   6.174   1.296 -0.3238  0.2942  0.5740
17483TIP3    H273941   2.008   6.039   1.238 -0.2633  0.9717 -1.0824
17484TIP3   OH273942   6.573   2.971   2.782 -0.0633  0.5801  0.2625
17484TIP3    H173943   6.669   2.965   2.780 -0.0222  1.2529  0.3017
17484TIP3    H273944   6.553   3.012   2.866 -0.2884  2.3013 -0.6292
17485TIP3   OH273945   2.875   0.733  13.823 -0.6371  0.0805  0.2615
17485TIP3    H173946   2.810   0.748  13.754 -0.1127 -0.0149 -0.2576
17485TIP3    H273947   2.824   0.697  13.896 -1.0743 -0.5306 -0.3364
17486TIP3   OH273948   3.118   5.767  12.226  0.4521 -0.1695 -0.0085
17486TIP3    H173949   3.088   5.838  12.169  0.1317  0.4293  0.8828
17486TIP3    H273950   3.213   5.779  12.231  0.6231 -0.9053 -1.3012
17487TIP3   OH273951   1.581   1.945   0.373 -0.0402 -0.0798 -0.8627
17487TIP3    H173952   1.609   1.968   0.284  1.4207  0.0492 -0.3914
17487TIP3    H273953   1.631   2.004   0.429  0.5485 -1.4926  0.1407
17488TIP3   OH273954   3.967   2.904  11.682 -0.4148 -0.0566 -0.1698
17488TIP3    H173955   4.041   2.872  11.631  0.3482  0.4493  0.6112
17488TIP3    H273956   3.890   2.863  11.641  0.2278 -0.0658 -1.3966
17489TIP3   OH273957   3.077   1.319   2.076  0.5239  0.1724 -0.0438
17489TIP3    H173958   3.158   1.369   2.067  0.6466 -0.0350 -0.0912
17489TIP3    H273959   3.030   1.361   2.148  0.4523  0.5962 -0.3342
17490TIP3   OH273960   2.732   0.019   5.751  0.9311 -0.0680 -0.3123
17490TIP3    H173961   2.750   0.103   5.792 -0.6350  0.3805 -0.5091
17490TIP3    H273962   2.755   0.031   5.659  0.3599  0.2691 -0.4136
17491TIP3   OH273963   6.096   5.864   6.677 -0.5479  0.0180  0.3999
17491TIP3    H173964   6.140   5.935   6.725 -2.2261 -1.0389  3.6632
17491TIP3    H273965   6.151   5.788   6.691 -1.2730 -0.3938  1.0589
17492TIP3   OH273966   3.136   4.798   5.717 -0.0712 -0.0356  0.2112
17492TIP3    H173967   3.147   4.846   5.799  0.4559  0.9483 -0.4197
17492TIP3    H273968   3.134   4.866   5.650 -2.0230 -0.7211 -0.4638
17493TIP3   OH273969   2.750   3.560  11.519 -0.0300  0.2034 -0.1117
17493TIP3    H173970   2.721   3.490  11.578  0.5859  1.3305  1.5434
17493TIP3    H273971   2.820   3.520  11.468 -0.8630 -0.9083 -0.4178
17494TIP3   OH273972   6.122   1.798  12.807  0.3967  0.1238 -0.3464
17494TIP3    H173973   6.194   1.788  12.744  0.8902 -0.5133  0.3094
17494TIP3    H273974   6.144   1.878  12.855 -0.2596  0.9101 -1.3330
17495TIP3   OH273975   4.256   5.273   1.402 -0.6074  0.2855 -0.3494
17495TIP3    H173976   4.176   5.320   1.379  1.0941  2.2719 -2.3319
17495TIP3    H273977   4.321   5.302   1.339  2.5786  1.1335  3.1353
17496TIP3   OH273978   3.159   3.320  11.533  0.4348 -0.0204  0.0480
17496TIP3    H173979   3.124   3.405  11.561 -0.2149 -0.1786 -0.2718
17496TIP3    H273980   3.252   3.323  11.557 -0.0225 -0.0139  1.8554
17497TIP3   OH273981   3.422   5.004  15.492  0.3018  0.4046  0.5464
17497TIP3    H173982   3.391   5.093  15.476 -0.9050 -0.1102 -0.0733
17497TIP3    H273983   3.352   4.963  15.543  1.6103  0.3149  2.3379
17498TIP3   OH273984   4.454   4.152  11.434 -0.3489 -0.5657  0.1189
17498TIP3    H173985   4.542   4.185  11.452 -0.8930  0.5468  0.7604
17498TIP3    H273986   4.432   4.100  11.512 -0.5927 -0.1526  0.3246
17499TIP3   OH273987   6.328   2.738   3.853 -0.2367  0.0332  0.2628
17499TIP3    H173988   6.276   2.748   3.932 -0.9269  1.0640 -0.3121
17499TIP3    H273989   6.367   2.824   3.839  1.3535 -0.6398  0.4945
17500TIP3   OH273990   5.831   3.324   6.001  0.5317 -0.0059  0.0767
17500TIP3    H173991   5.801   3.397   6.055 -0.0441 -0.2464  0.0961
17500TIP3    H273992   5.923   3.341   5.985  0.6264  0.2382  0.8666
17501TIP3   OH273993   6.144   5.475  14.181  0.8102  0.1362 -0.4358
17501TIP3    H173994   6.202   5.437  14.115 -0.0478 -1.8213 -0.1252
17501TIP3    H273995   6.159   5.569  14.176  0.2140  0.0967 -3.9703
17502TIP3   OH273996   4.740   0.988   0.172 -0.8317  0.0673 -0.3626
17502TIP3    H173997   4.668   0.974   0.233 -0.3778  1.0772  0.4156
17502TIP3    H273998   4.791   1.058   0.211  0.3045 -0.3036 -1.1583
17503TIP3   OH273999   1.952   3.962  11.667  0.0518  0.1223  0.1037
17503TIP3    H174000   1.962   3.994  11.757  0.2171  1.7341 -0.4705
17503TIP3    H274001   1.866   3.994  11.639  0.8964  1.4707 -1.0283
17504TIP3   OH274002   4.992   5.041  14.366 -0.0683 -0.0220  0.4293
17504TIP3    H174003   5.021   5.101  14.435  1.0363  0.7383 -0.6639
17504TIP3    H274004   5.072   5.017  14.320 -0.7872 -0.5326 -0.5849
17505TIP3   OH274005   4.849   4.024   3.707  0.2153 -0.4617 -0.1197
17505TIP3    H174006   4.835   3.930   3.691  0.5765 -0.4748 -0.3687
17505TIP3    H274007   4.773   4.067   3.668 -1.2116 -0.8194  2.1524
17506TIP3   OH274008   4.673   1.381   3.463  0.5369 -0.6623 -0.3728
17506TIP3    H174009   4.652   1.462   3.417 -0.6703 -0.4193  0.5664
17506TIP3    H274010   4.621   1.386   3.544  0.9367 -2.0780 -0.0193
17507TIP3   OH274011   6.619   0.180  11.546  0.3422 -0.4823  0.3098
17507TIP3    H174012   6.657   0.111  11.493 -0.1716  0.1214 -0.8676
17507TIP3    H274013   6.606   0.253  11.485  1.1661  0.7593  1.5928
17508TIP3   OH274014   5.647   3.348   2.077  0.1221  0.0319  0.0128
17508TIP3    H174015   5.580   3.395   2.128  2.1603  2.8099  0.2451
17508TIP3    H274016   5.646   3.391   1.991  0.1962 -1.2827 -0.6460
17509TIP3   OH274017   5.046   0.224   3.681  0.0844 -0.3858  0.6657
17509TIP3    H174018   5.096   0.209   3.601  0.9199  2.1814  0.6578
17509TIP3    H274019   5.112   0.232   3.750 -0.2582  2.8723  0.6847
17510TIP3   OH274020   5.242   6.095  11.587 -0.3769  0.4915 -0.1773
17510TIP3    H174021   5.262   6.079  11.495 -2.3235  0.7056 -0.6412
17510TIP3    H274022   5.177   6.029  11.610  2.3627 -1.6070  1.9314
17511TIP3   OH274023   3.636   0.582  15.557  0.0546  0.0033 -0.0617
17511TIP3    H174024   3.637   0.664  15.507  0.3905 -0.5464 -0.9608
17511TIP3    H274025   3.683   0.603  15.638 -0.4697  0.8920  0.0133
17512TIP3   OH274026   5.973   2.892   4.191  0.6308  0.1640 -0.2288
17512TIP3    H174027   5.882   2.921   4.187  0.4667 -0.2601  0.2941
17512TIP3    H274028   6.024   2.972   4.192  0.2861  0.4006 -1.0467
17513TIP3   OH274029   6.704   2.028   2.414 -0.1192  0.4336  0.1297
17513TIP3    H174030   6.687   2.028   2.320  1.4981 -0.7178 -0.1899
17513TIP3    H274031   6.675   1.941   2.443 -1.2246  1.0199  0.8329
17514TIP3   OH274032   0.700   6.334   1.341 -0.5568  0.1287  0.0704
17514TIP3    H174033   0.626   6.307   1.396 -2.2859  2.9911 -0.7841
17514TIP3    H274034   0.686   6.427   1.326  1.4707  0.0047 -2.8586
17515TIP3   OH274035   1.356   0.047  14.504 -0.0605 -0.0698 -0.4358
17515TIP3    H174036   1.360  -0.024  14.568 -2.8979 -0.1795 -0.3026
17515TIP3    H274037   1.367   0.127  14.556  0.2760 -0.2726 -0.1912
17516TIP3   OH274038   1.151   3.350  13.625  0.3007  0.0548  0.7144
17516TIP3    H174039   1.115   3.298  13.697  1.5938  0.1455  1.4434
17516TIP3    H274040   1.097   3.328  13.549 -2.8318  2.0441  2.3134
17517TIP3   OH274041   3.011   2.431  13.381 -0.7683  0.6485  0.2102
17517TIP3    H174042   3.076   2.368  13.414  0.0649  0.7981 -1.1067
17517TIP3    H274043   3.017   2.505  13.442  1.4059  1.3111 -0.7493
17518TIP3   OH274044   0.660   4.092   6.594  0.4322  0.3608  0.6297
17518TIP3    H174045   0.731   4.155   6.610  0.8969 -0.2328  0.9371
17518TIP3    H274046   0.671   4.026   6.662 -2.0125  1.6004  2.3241
17519TIP3   OH274047   5.135   5.536   3.403 -0.1589 -0.8071  0.1641
17519TIP3    H174048   5.096   5.568   3.321 -0.5944 -1.6020  0.0627
17519TIP3    H274049   5.065   5.487   3.446  0.4258 -1.3841  0.4644
17520TIP3   OH274050   1.868   1.998   4.371  0.0501  0.2594 -0.1621
17520TIP3    H174051   1.930   2.059   4.413  0.0063  0.6911 -0.7192
17520TIP3    H274052   1.892   1.999   4.279  0.7827 -1.4618 -0.0099
17521TIP3   OH274053   6.731   5.600   3.029 -0.6860 -0.1914  0.0237
17521TIP3    H174054   6.684   5.672   3.070  0.1305  0.8414 -0.8249
17521TIP3    H274055   6.696   5.521   3.071 -2.7123  0.5891 -0.1693
17522TIP3   OH274056   2.513   0.448  13.829 -0.0277  0.0215  0.0431
17522TIP3    H174057   2.419   0.444  13.816 -0.1464 -1.8606  1.3182
17522TIP3    H274058   2.529   0.396  13.908  2.0153  0.7347  0.1312
17523TIP3   OH274059   6.381   6.012  12.918 -0.0715 -0.1320  0.0215
17523TIP3    H174060   6.470   5.984  12.938  0.4230  1.5258  0.2291
17523TIP3    H274061   6.357   6.071  12.990 -1.2951 -0.4527 -0.0979
17524TIP3   OH274062   6.211   2.242   6.502 -0.1821 -0.4164  0.2713
17524TIP3    H174063   6.208   2.331   6.467  0.1863 -0.3435  0.4221
17524TIP3    H274064   6.188   2.251   6.594  1.8628 -0.2009  0.7871
17525TIP3   OH274065   6.287   4.856  15.722  0.1508 -0.4352  0.2959
17525TIP3    H174066   6.198   4.826  15.739 -0.3708  0.7316 -0.3132
17525TIP3    H274067   6.292   4.863  15.626  1.3290 -1.7617  0.2324
17526TIP3   OH274068   0.517   6.775   2.658 -0.4553  0.6090 -0.0718
17526TIP3    H174069   0.461   6.716   2.707  0.9202 -0.7510 -0.0817
17526TIP3    H274070   0.472   6.859   2.660 -2.2549 -0.3452  0.2754
17527TIP3   OH274071   2.482   5.262  17.233 -0.7636 -0.3325 -1.0938
17527TIP3    H174072   2.512   5.352  17.250 -3.3458 -0.1661  3.1377
17527TIP3    H274073   2.539   5.207  17.286 -1.9202 -0.8220 -0.3479
17528TIP3   OH274074   3.466   1.017  11.683  0.6654 -0.1731 -0.4003
17528TIP3    H174075   3.493   0.926  11.668  2.7881  0.6041 -1.3666
17528TIP3    H274076   3.438   1.019  11.774  1.2521 -1.6501 -0.1751
17529TIP3   OH274077   2.609   1.534   5.884  0.3931  0.3769  0.1135
17529TIP3    H174078   2.682   1.491   5.840 -1.0670  0.2662 -2.3242
17529TIP3    H274079   2.607   1.622   5.845 -0.6821  0.4142  0.2502
17530TIP3   OH274080   1.402   5.367  12.862 -0.5425  0.0331  0.3897
17530TIP3    H174081   1.382   5.364  12.769  0.0154 -0.0007  0.2702
17530TIP3    H274082   1.458   5.444  12.873 -1.0932  0.3845  0.7935
17531TIP3   OH274083   1.386   3.459  11.141 -0.1692 -0.3117 -0.3030
17531TIP3    H174084   1.439   3.469  11.063  0.1296  0.3643 -0.0164
17531TIP3    H274085   1.296   3.471  11.111  0.0116  0.9831 -0.3784
17532TIP3   OH274086   6.675   5.565   3.366 -0.3750 -0.1148 -0.4768
17532TIP3    H174087   6.710   5.544   3.452 -1.4969 -1.0170 -0.2258
17532TIP3    H274088   6.743   5.617   3.324  0.8461 -1.0408  0.3458
17533TIP3   OH274089   1.101   1.167  13.123 -0.3876  0.4315  0.3063
17533TIP3    H174090   1.116   1.222  13.045  0.1126  0.7904  0.6516
17533TIP3    H274091   1.106   1.228  13.196 -2.1682  0.3176  0.5448
17534TIP3   OH274092   5.822   3.549  15.155 -1.1240 -0.1369 -0.3666
17534TIP3    H174093   5.745   3.526  15.103 -0.8066  0.1488 -0.9688
17534TIP3    H274094   5.792   3.546  15.246 -1.5124 -1.2932 -0.5237
17535TIP3   OH274095   4.786   4.043   4.834  0.1934 -0.4001 -0.4963
17535TIP3    H174096   4.779   4.111   4.766 -1.6556 -0.2823 -0.2415
17535TIP3    H274097   4.852   4.076   4.894 -0.8058  1.3168 -0.2805
17536TIP3   OH274098   4.246   1.506  15.003  0.3606 -0.4062  0.2589
17536TIP3    H174099   4.248   1.438  15.072 -1.4598 -0.0017  0.7593
17536TIP3    H274100   4.325   1.557  15.018  0.6542 -1.1149  1.2556
17537TIP3   OH274101   3.238   4.627  15.297  0.1677 -0.2462  0.0219
17537TIP3    H174102   3.236   4.531  15.302  1.7490 -0.3964 -1.6824
17537TIP3    H274103   3.146   4.653  15.305 -0.6275 -2.0995 -2.4639
17538TIP3   OH274104   4.897   2.368  14.690 -0.1656 -0.1389  0.2301
17538TIP3    H174105   4.886   2.415  14.773 -1.3107  0.6630 -0.3668
17538TIP3    H274106   4.841   2.291  14.699 -1.7328  0.8918 -0.4962
17539TIP3   OH274107   6.787   0.944  12.266  0.1661 -0.5975  0.0031
17539TIP3    H174108   6.855   0.937  12.333  0.8544 -0.0610 -0.6335
17539TIP3    H274109   6.719   0.883  12.295  0.7492 -0.8647  0.8399
17540TIP3   OH274110   0.404   4.900  14.540  0.2310 -0.3443 -0.1459
17540TIP3    H174111   0.316   4.926  14.566 -0.9589 -2.5484 -1.7596
17540TIP3    H274112   0.438   4.852  14.616 -0.2572 -0.1034  0.2246
17541TIP3   OH274113   2.282   4.368   0.961  0.0118 -0.4365 -0.1218
17541TIP3    H174114   2.272   4.453   0.917  1.0557  0.4315  1.2856
17541TIP3    H274115   2.250   4.383   1.049 -0.4277 -1.7073 -0.0598
17542TIP3   OH274116   1.825   6.357   5.820  0.0371  0.0057  0.9703
17542TIP3    H174117   1.833   6.264   5.841  0.3732 -0.3522 -0.6507
17542TIP3    H274118   1.902   6.376   5.766 -0.8379  0.8434 -0.0014
17543TIP3   OH274119   0.084   4.674   3.793 -0.9415  0.4618 -0.4875
17543TIP3    H174120   0.042   4.726   3.725 -0.2189 -0.6037 -1.7589
17543TIP3    H274121   0.013   4.655   3.855 -1.9175  0.2569 -1.6514
17544TIP3   OH274122   6.044   3.310   3.052  0.2400 -0.1061 -0.6263
17544TIP3    H174123   6.082   3.384   3.098  0.2784  0.1857 -1.1251
17544TIP3    H274124   6.103   3.295   2.978 -0.6549  0.3950 -1.4411
17545TIP3   OH274125   6.045   6.128  15.692 -0.1929 -0.3342 -0.3110
17545TIP3    H174126   6.127   6.177  15.701 -0.0994 -0.7497  1.2938
17545TIP3    H274127   6.063   6.044  15.735 -1.3723 -0.5288 -0.1871
17546TIP3   OH274128   3.129   6.607  14.418  0.3831  0.4335 -0.3268
17546TIP3    H174129   3.223   6.594  14.403  0.2468  1.2013 -1.9392
17546TIP3    H274130   3.088   6.587  14.333 -0.7068  2.1197 -0.2169
17547TIP3   OH274131   5.050   4.177   2.696 -0.3435 -0.2035  0.1704
17547TIP3    H174132   5.091   4.131   2.769 -0.1269  2.3611  1.7239
17547TIP3    H274133   4.957   4.163   2.707 -0.3723  0.8436  1.4652
17548TIP3   OH274134   5.471   4.560   0.368 -0.3765 -0.0556  0.1017
17548TIP3    H174135   5.476   4.546   0.273  0.6292  0.4779  0.0694
17548TIP3    H274136   5.512   4.645   0.382 -1.0593  0.1462  0.9569
17549TIP3   OH274137   2.173   3.629   2.940  0.1124 -0.6099 -0.0627
17549TIP3    H174138   2.223   3.552   2.966  2.7335  0.8504 -0.5276
17549TIP3    H274139   2.096   3.594   2.895  0.6201 -2.9474  0.8237
17550TIP3   OH274140   4.916   3.531  14.392 -0.1405 -0.1535  0.2298
17550TIP3    H174141   4.940   3.553  14.482  0.3400  2.2432 -0.4546
17550TIP3    H274142   4.828   3.493  14.400  0.4438 -1.2359  1.8364
17551TIP3   OH274143   2.983   6.201  11.222  0.6960  0.8081 -0.2316
17551TIP3    H174144   3.037   6.244  11.155  1.2214 -1.6697 -1.4741
17551TIP3    H274145   2.922   6.147  11.171  2.3384 -2.6002  1.2406
17552TIP3   OH274146   1.850   6.371   1.652  0.4645  0.2427  1.2744
17552TIP3    H174147   1.770   6.354   1.601  0.1037  2.2904  1.1172
17552TIP3    H274148   1.905   6.294   1.636  0.7494  1.1658 -2.9997
17553TIP3   OH274149   1.955   1.702  13.929  0.1160  0.4635  0.6884
17553TIP3    H174150   1.993   1.640  13.991  1.5790  1.3486  0.7209
17553TIP3    H274151   1.955   1.786  13.976 -3.2698  0.2136  1.2047
17554TIP3   OH274152   2.783   1.122   1.878 -0.2200 -0.5222 -0.0048
17554TIP3    H174153   2.767   1.145   1.786 -2.0068 -1.4653  0.0466
17554TIP3    H274154   2.876   1.104   1.882  0.1406  0.9557 -1.3202
17555TIP3   OH274155   4.231   4.262   4.636  0.3817 -0.0821  0.0740
17555TIP3    H174156   4.256   4.299   4.721  1.7732 -0.1077 -0.3251
17555TIP3    H274157   4.232   4.337   4.577  0.9954 -0.3481 -0.2577
17556TIP3   OH274158   1.048   3.196   3.431  0.1596  0.0957  0.4684
17556TIP3    H174159   1.035   3.213   3.525  1.2620  1.1504  0.4407
17556TIP3    H274160   0.998   3.116   3.415  0.3134 -0.3508  2.0546
17557TIP3   OH274161   4.876   5.247   4.036  0.1824  0.1404  0.3258
17557TIP3    H174162   4.969   5.231   4.052  0.6103  2.1991  0.1359
17557TIP3    H274163   4.853   5.190   3.963  1.6697  0.6223 -0.5351
17558TIP3   OH274164   5.355   5.240   6.455 -0.2243 -0.0469  0.3363
17558TIP3    H174165   5.301   5.231   6.533 -0.2750 -0.4347  0.2608
17558TIP3    H274166   5.337   5.328   6.422  1.1160  0.7652  1.7271
17559TIP3   OH274167   5.834   6.744  14.855 -0.3570 -0.4129  0.6320
17559TIP3    H174168   5.885   6.718  14.779 -0.8060  0.5461 -0.0008
17559TIP3    H274169   5.882   6.818  14.893 -1.3470  0.6176 -0.0758
17560TIP3   OH274170   1.400   6.265   2.369 -0.6378 -0.1374 -0.5412
17560TIP3    H174171   1.314   6.227   2.385 -0.0454 -2.1975 -1.9509
17560TIP3    H274172   1.452   6.243   2.446 -0.3011 -2.2809 -1.3440
17561TIP3   OH274173   4.434   5.747  16.632 -0.0392 -0.8234 -0.2029
17561TIP3    H174174   4.431   5.739  16.727 -1.8554  2.5414  0.1011
17561TIP3    H274175   4.382   5.672  16.601 -0.5071 -1.2370  1.5024
17562TIP3   OH274176   1.138   6.366   0.932  0.2059  0.5189  0.0300
17562TIP3    H174177   1.073   6.313   0.885  0.7180 -1.0910  1.1010
17562TIP3    H274178   1.114   6.457   0.912 -1.0521 -0.0991 -1.3429
17563TIP3   OH274179   4.167   6.084  17.186  0.5620 -0.1088 -0.3096
17563TIP3    H174180   4.100   6.149  17.208 -0.2019 -1.2615  0.8743
17563TIP3    H274181   4.250   6.126  17.209  0.1771  0.9747 -0.8852
17564TIP3   OH274182   3.519   3.803  14.972 -0.2448 -0.3214 -0.2737
17564TIP3    H174183   3.539   3.799  15.066  0.8408 -0.8671 -0.5191
17564TIP3    H274184   3.494   3.895  14.957 -1.4128 -0.4605  0.7300
17565TIP3   OH274185   5.348   3.668   3.355  0.2961  0.4388  0.4141
17565TIP3    H174186   5.359   3.763   3.364  0.8224  0.4697 -0.4362
17565TIP3    H274187   5.410   3.644   3.286  1.9799 -0.8971  2.3311
17566TIP3   OH274188   6.683   1.955   5.661 -0.0824 -0.1344 -0.2021
17566TIP3    H174189   6.651   1.882   5.609 -1.1256 -0.0890  0.3514
17566TIP3    H274190   6.771   1.929   5.689 -0.4796 -1.2056  0.0614
17567TIP3   OH274191   2.912   1.418   2.263 -0.0588 -0.2886  0.2580
17567TIP3    H174192   2.917   1.464   2.347 -0.4706  0.2790 -0.0294
17567TIP3    H274193   2.828   1.445   2.226  0.7156  0.4909 -0.9399
17568TIP3   OH274194   5.698   0.182   1.196 -0.4792  0.5954 -0.1790
17568TIP3    H174195   5.753   0.251   1.234 -0.3238 -1.2688  3.2735
17568TIP3    H274196   5.751   0.145   1.126  1.4820  0.8024  1.1513
17569TIP3   OH274197   1.299   1.248   5.356 -0.4424 -0.0291 -0.3302
17569TIP3    H174198   1.240   1.303   5.304 -1.4699 -0.1916  0.6285
17569TIP3    H274199   1.245   1.173   5.381  0.7668 -1.1799 -1.1289
17570TIP3   OH274200   0.523   5.993   5.610  0.1489  0.0095  0.0849
17570TIP3    H174201   0.574   5.915   5.634 -0.7191 -0.4565  0.4340
17570TIP3    H274202   0.433   5.961   5.602  0.0773  0.6073 -1.6261
17571TIP3   OH274203   5.529   4.178   5.091  0.4919  0.7641 -0.0240
17571TIP3    H174204   5.619   4.157   5.066  0.5677  0.6351  0.3531
17571TIP3    H274205   5.475   4.138   5.023  0.7730  1.8190 -0.8804
17572TIP3   OH274206   6.403   1.324  16.689 -0.0073  0.0206 -0.0410
17572TIP3    H174207   6.398   1.413  16.724 -0.7080  0.6064 -1.6170
17572TIP3    H274208   6.497   1.307  16.682  0.1273  1.1357 -1.0039
17573TIP3   OH274209   2.266   4.751   5.476  0.3773  1.0290 -0.2878
17573TIP3    H174210   2.285   4.789   5.561  0.9393 -0.5629  0.3170
17573TIP3    H274211   2.171   4.757   5.467  0.0643 -0.9309  1.4951
17574TIP3   OH274212   2.141   4.697  12.836 -0.1047  0.1214  0.5786
17574TIP3    H174213   2.222   4.717  12.789  0.0348  0.0773  0.7977
17574TIP3    H274214   2.106   4.620  12.791  0.7291 -0.7443  1.3790
17575TIP3   OH274215   3.027   5.071  15.684 -0.2327 -0.2104  0.1183
17575TIP3    H174216   3.085   5.113  15.748 -0.0149  0.4414 -0.4962
17575TIP3    H274217   2.954   5.132  15.675 -0.3331 -0.3732 -0.1481
17576TIP3   OH274218   1.802   4.445  16.128 -0.4156 -0.7490 -0.9160
17576TIP3    H174219   1.824   4.438  16.035  1.6588 -0.4077 -0.4818
17576TIP3    H274220   1.852   4.375  16.169 -1.1948 -0.7892 -0.0274
17577TIP3   OH274221   2.669   2.027  11.549  0.2678  0.2303  0.1159
17577TIP3    H174222   2.614   1.954  11.578 -0.1079  0.0605 -0.9696
17577TIP3    H274223   2.672   2.087  11.623 -1.6081  0.3618  0.1092
17578TIP3   OH274224   6.622   5.944  17.152  0.3636  0.2669 -0.1961
17578TIP3    H174225   6.665   5.977  17.073  1.7694  0.6125  0.6973
17578TIP3    H274226   6.692   5.902  17.202 -0.5531 -0.1328  0.7751
17579TIP3   OH274227   5.623   0.674   0.909  0.2919 -0.4035 -0.0692
17579TIP3    H174228   5.601   0.686   0.816 -1.0858  0.5633  0.3660
17579TIP3    H274229   5.638   0.762   0.942  2.2305 -0.8492  0.3077
17580TIP3   OH274230   0.134   4.887   0.875 -0.1930 -0.1079 -0.3798
17580TIP3    H174231   0.222   4.921   0.858 -0.8720  1.0409 -1.6234
17580TIP3    H274232   0.144   4.835   0.955  2.0979 -1.8564 -1.7389
17581TIP3   OH274233   2.810   1.138   3.311 -0.2081  0.4101 -0.9692
17581TIP3    H174234   2.821   1.067   3.374  1.2823  1.1827 -0.3532
17581TIP3    H274235   2.796   1.216   3.364  1.3354  1.1107 -1.5706
17582TIP3   OH274236   1.666   2.466  15.621  0.0994  0.0683 -0.1848
17582TIP3    H174237   1.720   2.413  15.679  0.8520  0.5614 -0.4124
17582TIP3    H274238   1.719   2.544  15.605  0.3756 -0.5295 -2.3640
17583TIP3   OH274239   3.009   0.120  15.319 -0.1840  0.3276 -0.6831
17583TIP3    H174240   3.050   0.109  15.234 -1.2314  0.5959 -1.2284
17583TIP3    H274241   2.992   0.214  15.327 -0.0482  0.3126 -0.1622
17584TIP3   OH274242   5.700   3.289   2.410 -0.0989  0.6496 -0.3984
17584TIP3    H174243   5.732   3.303   2.321  2.4376 -0.2010  0.3518
17584TIP3    H274244   5.684   3.377   2.444  0.2349  1.0262 -1.1976
17585TIP3   OH274245   3.658   3.936  11.504  0.4830  0.1495  0.3208
17585TIP3    H174246   3.597   3.989  11.555 -1.2785 -0.7447 -0.7770
17585TIP3    H274247   3.740   3.985  11.505  0.0801  0.8275  2.7827
17586TIP3   OH274248   0.963   1.040  16.202  0.5463 -0.0831  0.6651
17586TIP3    H174249   0.928   0.977  16.139  0.0631  0.2624  0.5780
17586TIP3    H274250   1.054   1.015  16.214  0.6628 -0.1157 -0.2267
17587TIP3   OH274251   0.639   6.465   1.982 -0.0291 -0.5395 -0.6297
17587TIP3    H174252   0.721   6.418   1.965  0.6060  0.7664 -1.2373
17587TIP3    H274253   0.652   6.506   2.067 -0.4427 -1.1508 -0.2676
17588TIP3   OH274254   0.811   5.206   3.693  0.2157 -0.9771 -0.3369
17588TIP3    H174255   0.900   5.171   3.693  0.8861  0.6977 -1.4005
17588TIP3    H274256   0.795   5.232   3.602  1.1008  4.8713  1.0158
17589TIP3   OH274257   1.740   2.808   0.564 -0.1401 -0.3577  0.1118
17589TIP3    H174258   1.810   2.792   0.627 -1.2265 -1.0364  1.1757
17589TIP3    H274259   1.785   2.839   0.485  1.0867  2.7319  1.9406
17590TIP3   OH274260   5.444   1.888   4.781 -0.1244 -0.3988 -0.8531
17590TIP3    H174261   5.445   1.795   4.758  0.9039 -0.8711  0.9884
17590TIP3    H274262   5.519   1.925   4.734  0.7509 -0.9449  0.0914
17591TIP3   OH274263   1.753   3.968   4.880  0.6917 -0.4775  0.3942
17591TIP3    H174264   1.834   4.016   4.861  1.0193 -0.0080  2.9078
17591TIP3    H274265   1.716   4.011   4.957 -2.1556 -0.4878 -0.8919
17592TIP3   OH274266   0.105   5.356  13.109 -0.0529 -0.3570 -0.1168
17592TIP3    H174267   0.087   5.284  13.169 -0.9325 -0.8391 -0.9402
17592TIP3    H274268   0.106   5.315  13.022 -0.8472  0.6614 -0.6220
17593TIP3   OH274269   2.120   4.289   3.860 -0.1825  0.0409 -0.4946
17593TIP3    H174270   2.149   4.270   3.949 -2.0089  0.9447  0.3116
17593TIP3    H274271   2.125   4.205   3.815  1.0280 -0.3686  0.3659
17594TIP3   OH274272   6.255   3.190   1.168 -0.3505 -0.3794 -0.4793
17594TIP3    H174273   6.304   3.256   1.216 -0.3166 -0.5627 -0.2594
17594TIP3    H274274   6.214   3.238   1.097 -0.8052 -0.0163  0.0221
17595TIP3   OH274275   2.511   5.872  16.388 -0.3385 -0.3337  0.6627
17595TIP3    H174276   2.492   5.964  16.407 -1.2596 -0.2303 -0.6470
17595TIP3    H274277   2.437   5.844  16.334  2.2712 -0.4765 -3.0406
17596TIP3   OH274278   6.261   5.145  14.098 -0.3013  0.3457  0.5345
17596TIP3    H174279   6.246   5.133  14.005  2.4440 -1.0663  0.2261
17596TIP3    H274280   6.182   5.109  14.140 -1.2125  0.2831 -1.1891
17597TIP3   OH274281   5.962   4.031   4.776 -0.0919 -0.0739 -0.0535
17597TIP3    H174282   5.996   3.988   4.854 -0.6439  0.4705  0.4889
17597TIP3    H274283   5.910   4.104   4.809 -0.6479 -0.0742 -0.9153
17598TIP3   OH274284   4.373   0.828   5.445 -0.1204 -0.4315 -0.1200
17598TIP3    H174285   4.445   0.874   5.489  0.5226 -0.1708 -1.4161
17598TIP3    H274286   4.296   0.847   5.498 -0.0293  2.7705 -1.0262
17599TIP3   OH274287   6.461   0.004  15.471  0.1356 -0.3122 -0.4847
17599TIP3    H174288   6.492   0.076  15.524  0.0569 -1.0193  0.5328
17599TIP3    H274289   6.535  -0.017  15.413  0.8104 -0.6147  0.4770
17600TIP3   OH274290   3.007   4.194   4.566 -0.2684 -0.0309  0.8761
17600TIP3    H174291   2.927   4.241   4.543 -0.7012 -0.0693  2.2086
17600TIP3    H274292   2.986   4.152   4.649  1.6243  1.2196  2.0429
17601TIP3   OH274293   3.889   5.123   0.513 -0.7951  0.5455  0.1703
17601TIP3    H174294   3.908   5.079   0.597 -1.7042 -0.8697 -0.3527
17601TIP3    H274295   3.931   5.067   0.447 -0.4931  1.4013 -0.3677
17602TIP3   OH274296   4.990   6.021  12.405  0.1943 -0.3425 -0.3265
17602TIP3    H174297   5.047   6.049  12.477 -1.1212 -0.8069  0.9334
17602TIP3    H274298   4.955   5.937  12.435  0.9084 -1.3703 -2.2553
17603TIP3   OH274299   0.410   3.014   5.615 -0.1719 -0.0952 -0.0284
17603TIP3    H174300   0.481   3.020   5.678  0.5085  0.1722 -0.8066
17603TIP3    H274301   0.412   2.924   5.584  0.9782  0.3619 -1.3471
17604TIP3   OH274302   0.626   3.440   3.466 -0.2152  0.0247 -0.0547
17604TIP3    H174303   0.594   3.381   3.398 -1.5767 -0.0678  0.6399
17604TIP3    H274304   0.551   3.497   3.486  0.1556  0.0593  1.3436
17605TIP3   OH274305   4.583   0.958  16.366  0.0366 -0.3999  0.8300
17605TIP3    H174306   4.567   1.047  16.335 -0.3837 -0.3865  1.0650
17605TIP3    H274307   4.498   0.931  16.403 -0.6004 -1.8718 -1.6142
17606TIP3   OH274308   4.224   5.760  10.938  0.1111  0.2573  0.2996
17606TIP3    H174309   4.216   5.677  10.891  0.3593  0.9523 -1.0077
17606TIP3    H274310   4.303   5.750  10.991 -0.4080 -0.6963  0.9065
17607TIP3   OH274311   0.403   4.938   1.966 -0.5669 -0.6946 -0.0691
17607TIP3    H174312   0.462   4.863   1.969 -0.7385 -0.8294 -0.0791
17607TIP3    H274313   0.321   4.906   2.003 -1.0166 -0.8503 -1.2094
17608TIP3   OH274314   0.371   2.303   2.506  0.2893 -0.4961  0.2431
17608TIP3    H174315   0.306   2.235   2.490  1.6787 -1.4502 -1.5721
17608TIP3    H274316   0.450   2.255   2.530  0.3244  0.6551  2.5828
17609TIP3   OH274317   0.496   2.778   2.182  0.0592 -0.0382  0.0610
17609TIP3    H174318   0.510   2.683   2.181 -2.1402 -0.3832 -1.0003
17609TIP3    H274319   0.437   2.794   2.109  1.4986  2.3606 -0.6081
17610TIP3   OH274320   1.942   2.792  12.579  0.5505 -0.0538  0.0643
17610TIP3    H174321   2.009   2.813  12.644  1.6219 -0.5369 -0.8643
17610TIP3    H274322   1.859   2.816  12.621  1.4210  2.3741  0.4947
17611TIP3   OH274323   5.500   6.752   5.774  0.3029  0.3503  0.1868
17611TIP3    H174324   5.566   6.762   5.842 -0.3189  1.0021  0.7010
17611TIP3    H274325   5.542   6.786   5.695  0.3578  1.3858  0.6485
17612TIP3   OH274326   4.480   0.392   4.466  0.0818 -0.4639  0.3250
17612TIP3    H174327   4.385   0.401   4.462  0.1013 -1.0008 -1.6085
17612TIP3    H274328   4.513   0.460   4.407  0.8383 -1.1292 -0.0250
17613TIP3   OH274329   1.918   2.914  15.112 -0.6562  0.5264 -0.5600
17613TIP3    H174330   1.939   2.998  15.152 -3.1637  0.4835  0.9198
17613TIP3    H274331   1.982   2.853  15.148 -0.4647  1.2871  0.3918
17614TIP3   OH274332   2.829   6.459  11.571  0.1100  0.1840  0.7811
17614TIP3    H174333   2.870   6.541  11.600  0.0600  0.2822  0.5767
17614TIP3    H274334   2.895   6.417  11.516 -0.0445  0.3160  0.4967
17615TIP3   OH274335   2.049   0.127  12.025 -0.1093  0.1335  0.2654
17615TIP3    H174336   2.095   0.189  11.968 -0.2529 -0.3787 -0.4134
17615TIP3    H274337   2.117   0.089  12.079  0.1987 -0.2310 -0.3686
17616TIP3   OH274338   6.260   1.590  14.041  0.4254  0.4617 -0.4178
17616TIP3    H174339   6.282   1.548  13.958 -0.5109 -1.5182  0.3228
17616TIP3    H274340   6.164   1.585  14.046  0.4656  0.7504  0.7042
17617TIP3   OH274341   5.941   5.193  16.214  0.0129  0.5394 -0.4509
17617TIP3    H174342   6.014   5.138  16.184 -0.3891  0.2040 -0.8369
17617TIP3    H274343   5.949   5.273  16.163  1.2778  1.3276  0.9323
17618TIP3   OH274344   2.265   1.707   0.423  0.0718  0.6369  0.1403
17618TIP3    H174345   2.200   1.777   0.419 -0.8607 -0.2053  0.2294
17618TIP3    H274346   2.330   1.731   0.358  0.2065  2.0157  0.7622
17619TIP3   OH274347   2.129   2.379  14.275  0.0058  0.5792 -0.1090
17619TIP3    H174348   2.203   2.331  14.313 -0.4021  1.5705  1.9769
17619TIP3    H274349   2.080   2.313  14.226  2.2506 -0.0938 -1.5456
17620TIP3   OH274350   5.453   6.771  16.179 -0.3991  0.0289  0.3524
17620TIP3    H174351   5.464   6.687  16.224  0.5194 -0.9336 -1.5855
17620TIP3    H274352   5.455   6.748  16.086  0.8599  2.3071 -0.2158
17621TIP3   OH274353   1.344   2.326  12.461  0.0340 -0.1100 -0.2376
17621TIP3    H174354   1.298   2.407  12.438 -0.6375 -0.3664  0.1673
17621TIP3    H274355   1.286   2.284  12.525  2.3652  1.0899  2.7427
17622TIP3   OH274356   4.416   4.495   2.183 -0.2026  0.1552 -0.3090
17622TIP3    H174357   4.454   4.538   2.260 -0.4774  2.3347 -1.3360
17622TIP3    H274358   4.321   4.503   2.196 -0.2665  2.1967 -1.7016
17623TIP3   OH274359   4.283   4.529  17.123  0.0425 -0.0660 -0.1647
17623TIP3    H174360   4.200   4.567  17.150 -1.8842 -3.3716 -1.1885
17623TIP3    H274361   4.338   4.532  17.202 -2.5175 -1.7146  1.7577
17624TIP3   OH274362   4.475   1.439   2.460  0.8717  0.0418 -0.1739
17624TIP3    H174363   4.514   1.432   2.373  0.9511 -0.8654 -0.0676
17624TIP3    H274364   4.413   1.367   2.464  0.5625  0.3387  0.3721
17625TIP3   OH274365   5.155   5.621  15.093 -0.0393 -0.2666 -0.2040
17625TIP3    H174366   5.172   5.710  15.063  0.1346 -1.1303 -2.8538
17625TIP3    H274367   5.194   5.616  15.180 -1.3910  2.6761  0.6262
17626TIP3   OH274368   1.729   0.140  11.630 -0.2606 -0.0083 -0.0346
17626TIP3    H174369   1.723   0.045  11.620 -1.6882  0.0377  0.2280
17626TIP3    H274370   1.768   0.152  11.717  2.6781 -0.3423 -1.2376
17627TIP3   OH274371   0.007   2.287  11.240 -0.5408  0.6675 -0.1368
17627TIP3    H174372  -0.001   2.231  11.163  0.5324 -0.9643  0.9307
17627TIP3    H274373  -0.084   2.311  11.261 -1.2611 -2.7447  0.9051
17628TIP3   OH274374   0.079   3.492  12.464 -0.3062  0.6156 -0.5081
17628TIP3    H174375   0.091   3.565  12.525  0.6728  0.6994 -0.8052
17628TIP3    H274376   0.063   3.534  12.379  0.5495  0.4880 -0.7353
17629TIP3   OH274377   0.280   4.521  15.126  0.3998  0.1717  0.0140
17629TIP3    H174378   0.366   4.557  15.103  0.1300  0.4556 -0.5818
17629TIP3    H274379   0.248   4.578  15.196  1.0499 -0.4377  0.8077
17630TIP3   OH274380   3.412   3.723  15.872  0.3563 -0.4774  0.1975
17630TIP3    H174381   3.417   3.728  15.967 -0.1164 -0.7365  0.2430
17630TIP3    H274382   3.405   3.629  15.854  2.6037 -0.5740 -0.2222
17631TIP3   OH274383   4.338   0.117   3.751  0.4086  0.1236 -0.1688
17631TIP3    H174384   4.296   0.046   3.704 -2.1726  1.7819 -0.4886
17631TIP3    H274385   4.333   0.092   3.844 -1.7111  0.4574 -0.1650
17632TIP3   OH274386   2.669   3.782   3.656  0.7906  0.7291  0.2702
17632TIP3    H174387   2.662   3.782   3.751  2.0632 -1.6010  0.4028
17632TIP3    H274388   2.714   3.700   3.635 -1.8732 -0.1188 -2.5184
17633TIP3   OH274389   0.002   3.205   3.285  0.3870 -0.1885 -0.4815
17633TIP3    H174390  -0.055   3.279   3.307  0.9285  0.4814 -1.2869
17633TIP3    H274391  -0.015   3.189   3.192  1.2352 -0.2220 -0.6345
17634TIP3   OH274392   5.278   1.762   2.236 -0.2563 -0.2956 -0.4429
17634TIP3    H174393   5.332   1.757   2.314  0.3779  0.9554 -0.7876
17634TIP3    H274394   5.193   1.794   2.267 -0.4372 -1.1229 -0.0735
17635TIP3   OH274395   2.822   3.164  12.066 -0.4822 -0.0735  0.8641
17635TIP3    H174396   2.895   3.195  12.012 -0.8268  0.9193  0.9489
17635TIP3    H274397   2.863   3.114  12.137 -0.0995 -2.6964 -1.1205
17636TIP3   OH274398   5.570   3.031  13.198 -0.1454  0.0937 -0.2156
17636TIP3    H174399   5.563   2.939  13.170  2.0965  0.5727 -2.4807
17636TIP3    H274400   5.633   3.070  13.137  1.2192  2.4094  2.5892
17637TIP3   OH274401   4.222   6.546   1.776 -0.0218  0.0464  0.0637
17637TIP3    H174402   4.154   6.511   1.718  0.8336 -1.8530  0.1647
17637TIP3    H274403   4.248   6.471   1.830  0.2265  1.4358  1.9060
17638TIP3   OH274404   6.345   6.469  14.993  0.0015 -0.6669  0.0638
17638TIP3    H174405   6.396   6.389  14.979  1.9562  0.5567  0.0237
17638TIP3    H274406   6.370   6.499  15.081  0.0757  0.4638 -0.3350
17639TIP3   OH274407   5.957   1.090   2.408 -0.3924 -0.0892 -0.6532
17639TIP3    H174408   5.870   1.053   2.420 -1.1297  1.3967 -1.2839
17639TIP3    H274409   5.973   1.142   2.486  1.3893 -3.0826  1.0723
17640TIP3   OH274410   5.891   4.489   1.930  0.1850  0.2864  0.5245
17640TIP3    H174411   5.984   4.508   1.947  0.2444 -0.0875  0.6187
17640TIP3    H274412   5.845   4.523   2.007  0.2707  0.2589  0.5886
17641TIP3   OH274413   1.144   1.423   4.007  0.1142  0.2588  0.4062
17641TIP3    H174414   1.188   1.443   4.090  0.4172  0.6272  0.1595
17641TIP3    H274415   1.165   1.331   3.990  0.3690  0.2912  0.5430
17642TIP3   OH274416   0.966   3.475  11.541 -0.0682 -0.8036  0.2503
17642TIP3    H174417   1.023   3.418  11.592 -0.1224  0.5154  1.8277
17642TIP3    H274418   0.880   3.433  11.545  0.3950 -1.8215 -0.5625
17643TIP3   OH274419   6.561   4.350   2.065  0.4381 -0.1480 -0.2563
17643TIP3    H174420   6.539   4.280   2.126  0.6942 -0.3804 -0.4290
17643TIP3    H274421   6.509   4.331   1.987 -0.2589  0.4237  0.0715
17644TIP3   OH274422   0.122   1.826  12.731  0.2036  0.2871 -0.2953
17644TIP3    H174423   0.105   1.877  12.652  2.0639  0.0654 -0.8569
17644TIP3    H274424   0.118   1.890  12.802  1.6272  1.0638 -0.9059
17645TIP3   OH274425   5.454   5.987  16.515 -0.0374 -0.2937  0.3166
17645TIP3    H174426   5.390   5.961  16.581 -1.6202 -2.1490 -1.8729
17645TIP3    H274427   5.413   5.964  16.431  3.3313 -1.1565 -1.1633
17646TIP3   OH274428   3.329   4.173  12.968  0.2722 -0.4282 -0.3550
17646TIP3    H174429   3.321   4.161  12.874  0.9068  0.9852 -0.5985
17646TIP3    H274430   3.373   4.257  12.978  1.1654 -1.0510  1.1822
17647TIP3   OH274431   6.633   2.184  13.310  0.2163 -0.3215  0.6234
17647TIP3    H174432   6.656   2.249  13.377 -0.3669  1.4327 -0.8370
17647TIP3    H274433   6.538   2.189  13.304  0.2073 -0.9907  0.1815
17648TIP3   OH274434   4.751   2.021  13.219 -0.5349  0.2472  0.2130
17648TIP3    H174435   4.764   1.948  13.279 -0.1466  2.1964  2.5720
17648TIP3    H274436   4.699   2.084  13.270 -0.0765  1.9969 -1.4530
17649TIP3   OH274437   4.298   1.021   2.245  0.3036  0.4569 -0.2802
17649TIP3    H174438   4.264   0.972   2.320 -1.2256  0.9976 -0.5939
17649TIP3    H274439   4.353   1.089   2.285  1.3675 -0.6904  0.2188
17650TIP3   OH274440   2.257   3.716  11.225 -0.3545  0.0476  0.0048
17650TIP3    H174441   2.203   3.787  11.189 -0.2171  0.0142 -0.2661
17650TIP3    H274442   2.222   3.702  11.312  2.1025  3.0774  1.5783
17651TIP3   OH274443   0.256   4.981   3.863  0.3074  0.3845  0.1959
17651TIP3    H174444   0.186   4.966   3.927  0.0200  0.1956 -0.1573
17651TIP3    H274445   0.295   5.064   3.890  1.5463 -0.7060  1.8338
17652TIP3   OH274446   5.272   5.120   5.942  0.1476  0.0260 -0.7339
17652TIP3    H174447   5.304   5.189   5.883 -0.3059  2.4410  1.7392
17652TIP3    H274448   5.351   5.083   5.981  0.3567 -0.4413 -1.5779
17653TIP3   OH274449   3.316   0.020  14.673  0.1735  0.5625  0.1825
17653TIP3    H174450   3.353   0.040  14.587 -0.1798 -0.3127 -0.1800
17653TIP3    H274451   3.225  -0.002  14.656 -0.1834  1.4356  0.9187
17654TIP3   OH274452   5.110   0.292   2.502 -0.3422  0.3873  0.4483
17654TIP3    H174453   5.079   0.369   2.454  1.2545  0.6236 -0.2222
17654TIP3    H274454   5.142   0.327   2.585  0.2363  0.4241  0.2092
17655TIP3   OH274455   1.692   5.888   3.708 -0.2269 -0.2775 -0.0960
17655TIP3    H174456   1.676   5.932   3.791 -0.8920 -0.8827  0.1010
17655TIP3    H274457   1.616   5.912   3.653 -1.2804 -2.2294  0.4581
17656TIP3   OH274458   0.242   6.287   1.645 -0.7967  0.5384 -0.2027
17656TIP3    H174459   0.273   6.298   1.555  0.3412  0.8874  0.2334
17656TIP3    H274460   0.191   6.366   1.663 -1.7394  0.0854 -0.8235
17657TIP3   OH274461   3.712   0.862  14.964 -0.7083  0.0901 -0.5555
17657TIP3    H174462   3.634   0.852  15.018  0.7847 -2.1174  1.2758
17657TIP3    H274463   3.771   0.915  15.017  0.8917 -2.3629  0.1719
17658TIP3   OH274464   0.616   0.589  15.650 -0.2558 -0.1525  0.0620
17658TIP3    H174465   0.635   0.644  15.726 -1.8197  0.2183  0.1948
17658TIP3    H274466   0.556   0.522  15.683 -0.8393 -0.0673 -0.8173
17659TIP3   OH274467   3.719   0.136  14.753  0.5055  0.2041 -0.1564
17659TIP3    H174468   3.735   0.087  14.834 -1.1812 -0.7555 -0.3896
17659TIP3    H274469   3.644   0.191  14.773  0.7507  0.7617 -0.7470
17660TIP3   OH274470   5.976   5.387   2.948  0.2805 -0.7927 -0.0170
17660TIP3    H174471   5.947   5.342   2.869 -3.6221  2.1740 -0.4414
17660TIP3    H274472   6.052   5.438   2.920 -0.1354 -0.9531 -1.4848
17661TIP3   OH274473   3.816   5.746  11.172  0.9603 -0.5532 -0.0951
17661TIP3    H174474   3.814   5.685  11.099  1.1312  0.3197 -0.8448
17661TIP3    H274475   3.731   5.735  11.216  0.3019 -0.1286 -1.2360
17662TIP3   OH274476   3.871   5.164  12.362 -0.2518  0.1962  0.2616
17662TIP3    H174477   3.863   5.229  12.432 -0.7320  1.0505 -0.5726
17662TIP3    H274478   3.894   5.083  12.407  2.3915  1.3724  1.1507
17663TIP3   OH274479   1.787   1.988   2.620 -0.0809  0.0307  0.4086
17663TIP3    H174480   1.735   2.062   2.589 -1.7755 -1.2899  0.0341
17663TIP3    H274481   1.878   2.020   2.618 -0.6597  1.6648 -0.9672
17664TIP3   OH274482   4.141   3.381   6.561 -0.7650  0.2898 -0.2461
17664TIP3    H174483   4.059   3.346   6.596 -0.9847 -0.2399 -1.2738
17664TIP3    H274484   4.208   3.353   6.624 -1.2787  0.1834  0.2574
17665TIP3   OH274485   1.084   0.420   3.895  0.1348  0.2710  0.3491
17665TIP3    H174486   1.004   0.461   3.860  1.0301  0.7305 -1.1698
17665TIP3    H274487   1.114   0.482   3.962 -0.9546 -0.0648  1.1726
17666TIP3   OH274488   1.926   1.923   4.717 -0.4883  0.4606 -0.3556
17666TIP3    H174489   1.965   1.947   4.633 -2.2526  0.4481 -1.1888
17666TIP3    H274490   1.947   1.995   4.776  1.9368 -0.1544 -0.4101
17667TIP3   OH274491   4.654   2.889   2.713  0.0624  0.4407 -0.0083
17667TIP3    H174492   4.581   2.889   2.775  0.1457  0.1294  0.0896
17667TIP3    H274493   4.615   2.916   2.629  0.1013  1.6786  0.3551
17668TIP3   OH274494   6.618   5.861   5.959 -0.1063 -0.3002  0.0103
17668TIP3    H174495   6.549   5.896   6.016  1.2431  1.0957  0.8012
17668TIP3    H274496   6.660   5.793   6.012 -2.2277 -2.6894 -1.2481
17669TIP3   OH274497   3.271   0.831  13.517 -0.0400  0.0814  0.7673
17669TIP3    H174498   3.197   0.790  13.473 -0.0103  0.2483  0.5576
17669TIP3    H274499   3.348   0.783  13.486  0.0080  0.3895  0.4089
17670TIP3   OH274500   6.650   4.251   2.736 -0.3177 -0.4392 -0.1132
17670TIP3    H174501   6.562   4.242   2.772 -0.6300 -2.4446 -1.3361
17670TIP3    H274502   6.655   4.186   2.667  1.0129  1.8955 -2.3208
17671TIP3   OH274503   5.970   6.410   0.488  0.0055  0.3021  0.4612
17671TIP3    H174504   5.972   6.349   0.562 -0.3163 -1.6341 -1.0923
17671TIP3    H274505   5.886   6.455   0.497 -0.7611 -1.0905  0.3654
17672TIP3   OH274506   5.040   4.375   2.287  0.2619 -0.1382 -0.2774
17672TIP3    H174507   5.106   4.316   2.323 -0.2603 -1.3304 -1.2386
17672TIP3    H274508   4.957   4.330   2.304 -0.1682  0.5184 -0.6567
17673TIP3   OH274509   0.596   4.604   5.178  0.0671  0.4845 -0.5602
17673TIP3    H174510   0.527   4.578   5.117  1.5744  0.6188 -2.3479
17673TIP3    H274511   0.640   4.522   5.200 -0.9954  0.3146  1.0453
17674TIP3   OH274512   2.544   3.822  11.590 -0.4715  0.3878 -0.3511
17674TIP3    H174513   2.549   3.730  11.617  1.9251  1.3732  2.7124
17674TIP3    H274514   2.523   3.817  11.496  0.6141 -3.3038 -0.4958
17675TIP3   OH274515   4.738   1.027   5.765  0.4421  0.0490 -0.1523
17675TIP3    H174516   4.786   0.963   5.818 -0.5325 -0.8872 -0.3714
17675TIP3    H274517   4.675   0.974   5.716 -0.8109  1.2650  0.1387
17676TIP3   OH274518   4.946   6.355   3.261  0.5484 -0.2567  0.0465
17676TIP3    H174519   4.934   6.310   3.344 -2.3045 -0.0832 -0.1960
17676TIP3    H274520   4.873   6.324   3.206  0.2514  2.3736 -1.1235
17677TIP3   OH274521   2.258   5.136   5.596  0.4966  0.8054 -0.2804
17677TIP3    H174522   2.296   5.223   5.607 -1.6573  1.7435 -0.1704
17677TIP3    H274523   2.164   5.150   5.593  0.1978 -1.1830 -3.2674
17678TIP3   OH274524   1.315   1.648  12.173  0.0965 -0.1423  0.3192
17678TIP3    H174525   1.293   1.561  12.141  0.6969 -0.1523 -0.0779
17678TIP3    H274526   1.231   1.693  12.179 -0.3999 -1.2521  2.1031
17679TIP3   OH274527   0.129   4.175   3.932  0.1649 -0.5137 -0.2568
17679TIP3    H174528   0.119   4.247   3.993 -0.9534 -2.2348  1.6350
17679TIP3    H274529   0.041   4.159   3.898  0.4264 -0.9202 -0.7587
17680TIP3   OH274530   0.672   6.348   5.421  0.0429  0.7544 -0.3250
17680TIP3    H174531   0.642   6.343   5.330 -1.1207  1.9732 -0.0319
17680TIP3    H274532   0.630   6.426   5.455 -0.1285 -0.1065  1.4832
17681TIP3   OH274533   4.123   4.432   1.870  0.0578  0.1351 -0.2135
17681TIP3    H174534   4.169   4.361   1.826 -0.3765  0.2538 -0.8753
17681TIP3    H274535   4.163   4.512   1.834 -0.8043  0.2400 -0.9585
17682TIP3   OH274536   6.439   4.475   2.654 -0.5333 -0.1287  0.1266
17682TIP3    H174537   6.524   4.509   2.683 -0.1574 -0.2164 -0.8792
17682TIP3    H274538   6.426   4.397   2.707  0.8364 -1.1082 -0.9514
17683TIP3   OH274539   0.467   3.717   1.826  0.0923 -0.1480  0.3719
17683TIP3    H174540   0.509   3.725   1.912  1.1331 -0.8819 -0.0491
17683TIP3    H274541   0.408   3.642   1.836 -1.3453  1.0589  1.0477
17684TIP3   OH274542   5.699   1.370   3.808  0.1084  0.1555 -0.9213
17684TIP3    H174543   5.699   1.343   3.900 -0.7326 -0.2335 -1.0301
17684TIP3    H274544   5.656   1.455   3.809  0.3645  0.2860 -0.9213
17685TIP3   OH274545   3.247   3.271   4.904  0.3910  0.2202  0.1268
17685TIP3    H174546   3.180   3.335   4.927 -2.4435 -2.5019 -0.1665
17685TIP3    H274547   3.292   3.251   4.986 -0.5804  0.4995  0.7276
17686TIP3   OH274548   3.561   0.057   5.331  0.0226 -0.1930 -0.2580
17686TIP3    H174549   3.508   0.058   5.411  1.9146  0.0063  1.0255
17686TIP3    H274550   3.571   0.149   5.309  1.7467 -0.0961  0.8294
17687TIP3   OH274551   2.674   6.600  16.510  0.1414 -0.2579 -0.3164
17687TIP3    H174552   2.612   6.651  16.457 -0.0203 -0.0327  0.0836
17687TIP3    H274553   2.654   6.509  16.489 -0.5532 -0.1969  0.0627
17688TIP3   OH274554   1.747   2.881   5.684 -0.1258 -0.3042 -0.5331
17688TIP3    H174555   1.679   2.929   5.731  1.4031  0.4557  0.9624
17688TIP3    H274556   1.741   2.913   5.594 -1.6721 -0.1807 -0.4038
17689TIP3   OH274557   0.983   1.290  12.471  0.0418  0.0908 -0.3184
17689TIP3    H174558   1.066   1.333  12.452  0.2389 -0.1564 -0.0237
17689TIP3    H274559   0.931   1.299  12.391  0.3457  0.2613 -0.4927
17690TIP3   OH274560   4.214   3.888   0.065 -0.3323 -0.7833  0.0150
17690TIP3    H174561   4.309   3.886   0.067 -0.3478 -0.8200  2.4597
17690TIP3    H274562   4.188   3.807   0.021  0.7383 -1.8178  1.2759
17691TIP3   OH274563   5.304   0.101   1.904  0.1487 -0.4200  0.0053
17691TIP3    H174564   5.332   0.038   1.837 -0.3726 -0.1062 -0.5098
17691TIP3    H274565   5.360   0.082   1.979 -0.8453 -2.3137  0.2774
17692TIP3   OH274566   6.621   0.333   0.160  0.3017 -0.3330  0.4040
17692TIP3    H174567   6.646   0.268   0.094  0.2600  0.0769 -0.0216
17692TIP3    H274568   6.627   0.287   0.243 -2.2093 -1.6376 -0.0856
17693TIP3   OH274569   2.446   2.538   4.971 -0.3892 -0.7904  0.5031
17693TIP3    H174570   2.430   2.555   5.064  2.7388 -0.3425  1.0120
17693TIP3    H274571   2.459   2.625   4.933  0.0188 -1.0629  0.0110
17694TIP3   OH274572   2.146   2.734  13.293  0.8411  0.2747 -0.2016
17694TIP3    H174573   2.133   2.829  13.292  2.8576  0.5595 -1.3493
17694TIP3    H274574   2.240   2.722  13.283  1.0213 -1.8116  3.2532
17695TIP3   OH274575   0.078   1.565   6.615  0.0220  0.8505 -0.0033
17695TIP3    H174576   0.164   1.584   6.652 -0.2527  0.4396  0.8400
17695TIP3    H274577   0.097   1.513   6.537  0.4490 -1.0498  1.3306
17696TIP3   OH274578   5.489   4.187  16.646 -0.1524 -0.1088  0.0670
17696TIP3    H174579   5.532   4.123  16.703 -1.2863 -0.2119  0.8301
17696TIP3    H274580   5.555   4.210  16.581  1.1195 -0.1082  1.3310
17697TIP3   OH274581   4.743   5.099  14.236 -0.1327  0.8415  0.0239
17697TIP3    H174582   4.824   5.111  14.286  0.4572 -0.4523 -0.5963
17697TIP3    H274583   4.685   5.169  14.266  1.7483  2.7297 -0.6162
17698TIP3   OH274584   1.156   4.969  14.862  0.2036 -0.6578  0.2929
17698TIP3    H174585   1.129   5.039  14.921  0.5555 -0.4460  0.2064
17698TIP3    H274586   1.089   4.902  14.872 -1.1744  0.4702 -1.0072
17699TIP3   OH274587   5.910   5.090   3.063 -0.2575  0.3917 -0.1655
17699TIP3    H174588   5.929   5.086   2.970 -1.6580  0.5641 -0.4690
17699TIP3    H274589   5.991   5.061   3.106  0.4640  0.5449 -1.4181
17700TIP3   OH274590   0.857   3.863  13.734  0.3522  0.0024 -0.8003
17700TIP3    H174591   0.855   3.943  13.786 -0.0107  0.6518 -1.7944
17700TIP3    H274592   0.868   3.792  13.798 -0.1790  0.7744  0.1468
17701TIP3   OH274593   2.109   6.701  14.398  0.3961  0.2913 -0.0351
17701TIP3    H174594   2.197   6.737  14.411 -0.2914  1.6426  0.9486
17701TIP3    H274595   2.068   6.759  14.334 -0.0478  0.1118  0.0825
17702TIP3   OH274596   3.580   1.028  11.106 -0.0497  0.9838  0.7764
17702TIP3    H174597   3.631   1.019  11.025  1.2680  1.0118  1.5772
17702TIP3    H274598   3.575   1.122  11.120  1.3233  0.9465  1.6808
17703TIP3   OH274599   6.058   3.598  12.925  0.7198  0.2445 -0.0985
17703TIP3    H174600   5.981   3.640  12.887 -0.8449  0.3369  3.0051
17703TIP3    H274601   6.123   3.667  12.932 -0.2458  1.0837  0.7298
17704TIP3   OH274602   2.219   5.266   3.351 -0.4037  0.4686  0.6165
17704TIP3    H174603   2.259   5.351   3.336 -1.8092  0.8400 -1.1135
17704TIP3    H274604   2.186   5.270   3.441  1.5794  0.8932  1.3446
17705TIP3   OH274605   4.450   4.892  13.097  0.2213  0.0871  0.4014
17705TIP3    H174606   4.530   4.945  13.102 -0.0027  0.7950 -2.4819
17705TIP3    H274607   4.482   4.802  13.091  0.8100  0.3373 -0.3927
17706TIP3   OH274608   1.580   1.473  10.759 -0.6560 -0.1494  0.4220
17706TIP3    H174609   1.540   1.553  10.725  0.6225  0.4133  0.2196
17706TIP3    H274610   1.627   1.436  10.684 -0.9248 -0.8927  0.6134
17707TIP3   OH274611   3.556   3.722   2.068 -0.3361 -0.3104 -0.2101
17707TIP3    H174612   3.587   3.758   2.151  1.3045  0.2830 -1.0551
17707TIP3    H274613   3.500   3.648   2.094  0.7970 -0.6357  1.4061
17708TIP3   OH274614   4.658   2.781  12.298  0.8776 -0.9332 -0.8403
17708TIP3    H174615   4.634   2.760  12.388  1.8646  1.4995  0.0194
17708TIP3    H274616   4.579   2.819  12.260  0.7883 -0.9365 -0.6580
17709TIP3   OH274617   4.490   0.442   2.013  0.1598  0.3623  0.7506
17709TIP3    H174618   4.583   0.437   2.034  0.3178 -0.5884 -0.1099
17709TIP3    H274619   4.452   0.365   2.056 -0.4134  1.3387  2.0014
17710TIP3   OH274620   1.176   1.764   3.052 -0.6212  0.2217 -0.5030
17710TIP3    H174621   1.152   1.848   3.014 -1.7136 -0.1400 -0.6193
17710TIP3    H274622   1.177   1.779   3.147  1.1337  0.8652 -0.5953
17711TIP3   OH274623   1.797   5.581   1.407 -0.6078  0.0171 -0.4010
17711TIP3    H174624   1.801   5.530   1.326  1.1331  1.6791 -1.4073
17711TIP3    H274625   1.789   5.516   1.477  1.1297 -1.6090 -1.6796
17712TIP3   OH274626   2.336   1.855   3.204  0.0468 -0.2825  0.0224
17712TIP3    H174627   2.384   1.817   3.130 -0.9739  0.6943 -1.1615
17712TIP3    H274628   2.259   1.799   3.214  0.2709 -0.5141  0.4600
17713TIP3   OH274629   1.285   6.447   2.082  0.1064  0.4274 -0.1615
17713TIP3    H174630   1.230   6.369   2.092 -0.3632  0.6394 -1.0243
17713TIP3    H274631   1.256   6.506   2.151 -0.1161  0.1738 -0.0366
17714TIP3   OH274632   1.996   3.505   4.572  0.4487  0.2524 -0.1730
17714TIP3    H174633   2.030   3.446   4.639  0.0170  1.0291  0.7314
17714TIP3    H274634   2.004   3.592   4.610 -0.5229  0.6330 -0.8172
17715TIP3   OH274635   2.117   3.794  12.308 -0.0581 -0.5247  0.4562
17715TIP3    H174636   2.194   3.786  12.364  0.9291 -1.0181 -0.9429
17715TIP3    H274637   2.071   3.710  12.318  1.7273 -1.8313 -1.7653
17716TIP3   OH274638   4.386   0.955  14.985 -0.4382  0.1559  0.6397
17716TIP3    H174639   4.293   0.933  14.980 -0.3220 -0.1856  0.0043
17716TIP3    H274640   4.397   0.993  15.072 -1.5089  1.7511  0.0961
17717TIP3   OH274641   1.467   5.327  16.471  0.0122 -0.2777 -0.4728
17717TIP3    H174642   1.494   5.236  16.465  0.1782 -0.2385 -0.3285
17717TIP3    H274643   1.374   5.326  16.449  0.0978 -0.4310 -0.8281
17718TIP3   OH274644   5.870   0.373   1.310  0.4939 -0.3933 -0.0521
17718TIP3    H174645   5.862   0.466   1.288  2.0836 -0.4896 -1.1376
17718TIP3    H274646   5.956   0.365   1.351 -0.4878 -1.0446  1.9171
17719TIP3   OH274647   6.433   4.405  15.271  0.5268 -0.6794  0.0222
17719TIP3    H174648   6.492   4.334  15.249  0.5276 -1.5859  2.7937
17719TIP3    H274649   6.399   4.435  15.187  1.0392 -3.4839 -1.2191
17720TIP3   OH274650   4.163   0.316   5.709 -0.1077  0.1242  0.2674
17720TIP3    H174651   4.188   0.289   5.797  0.6905  0.1240  0.0444
17720TIP3    H274652   4.175   0.411   5.709  0.6282  0.0355 -0.0686
17721TIP3   OH274653   5.425   4.718   1.380 -0.6466 -0.6295 -0.2449
17721TIP3    H174654   5.457   4.709   1.290 -1.7865  2.7146 -1.0895
17721TIP3    H274655   5.359   4.650   1.389  0.9897 -2.3842 -1.1914
17722TIP3   OH274656   0.323   1.983  13.285  0.7663  0.0494  0.4330
17722TIP3    H174657   0.258   1.979  13.216  1.6333  2.0835 -0.5275
17722TIP3    H274658   0.274   1.968  13.366 -0.4183 -1.2326 -0.4985
17723TIP3   OH274659   1.642   3.422  11.930  0.4889  0.3797 -0.1941
17723TIP3    H174660   1.614   3.371  12.006 -0.3285  1.5640  0.3169
17723TIP3    H274661   1.686   3.498  11.967 -0.8930  1.5310 -0.8664
17724TIP3   OH274662   4.977   2.610  13.388 -0.7548 -0.1122 -0.3355
17724TIP3    H174663   5.071   2.594  13.394 -0.9084 -0.5165  1.1381
17724TIP3    H274664   4.957   2.662  13.466 -1.8186 -0.3651 -0.4351
17725TIP3   OH274665   3.187   3.111   6.048 -0.7848 -0.8284 -0.0574
17725TIP3    H174666   3.263   3.162   6.078 -1.0019 -0.6775  0.2345
17725TIP3    H274667   3.196   3.027   6.092 -1.2276 -0.5274  0.6072
17726TIP3   OH274668   2.314   2.983  16.107  0.5087  0.4920 -0.5189
17726TIP3    H174669   2.395   3.017  16.144  0.0791 -0.5548  1.4258
17726TIP3    H274670   2.342   2.924  16.038  1.5247 -1.8120  1.7753
17727TIP3   OH274671   5.287   1.731  12.545  0.4438  0.1572  0.0240
17727TIP3    H174672   5.341   1.656  12.520  0.7967  1.0623 -2.0450
17727TIP3    H274673   5.346   1.788  12.594  0.7872  0.1188 -0.3432
17728TIP3   OH274674   0.243   5.759  13.503 -0.3661  0.3088 -0.1107
17728TIP3    H174675   0.223   5.810  13.425 -1.1845 -0.5881 -0.5022
17728TIP3    H274676   0.323   5.798  13.538 -0.8186  1.6595 -0.5624
17729TIP3   OH274677   5.052   4.127   4.979 -0.1497  0.5673  0.1784
17729TIP3    H174678   5.100   4.048   5.004  0.5091  1.2508  1.1039
17729TIP3    H274679   5.074   4.139   4.886  0.9230  0.4886  0.4094
17730TIP3   OH274680   6.218   5.683   3.747  0.0013  0.2645  0.0183
17730TIP3    H174681   6.280   5.674   3.675 -0.8625  1.5816 -0.8974
17730TIP3    H274682   6.273   5.705   3.823  0.8578 -0.6416 -0.3312
17731TIP3   OH274683   3.251   3.546  12.461 -0.2617 -0.2707  0.0231
17731TIP3    H174684   3.195   3.558  12.537  0.5821  0.9863  0.4630
17731TIP3    H274685   3.307   3.472  12.484  1.6019  1.5925  1.6205
17732TIP3   OH274686   2.113   5.492   1.160  0.2877 -0.8184  0.4516
17732TIP3    H174687   2.187   5.437   1.136  1.5148  0.5570  1.0486
17732TIP3    H274688   2.132   5.577   1.122 -0.3791 -0.1062  1.6532
17733TIP3   OH274689   5.589   1.579  11.696 -0.2638 -0.0169  0.1724
17733TIP3    H174690   5.582   1.620  11.609 -1.6975 -0.1435  0.2150
17733TIP3    H274691   5.650   1.507  11.683 -1.9956 -1.2709 -1.2193
17734TIP3   OH274692   0.372   4.040  14.076 -0.3573  0.2017 -0.1483
17734TIP3    H174693   0.333   4.028  13.990 -0.1828 -0.0995 -0.1873
17734TIP3    H274694   0.298   4.037  14.136 -0.2924 -1.5424 -0.1165
17735TIP3   OH274695   4.441   1.687  16.540 -0.2598 -0.4210 -0.1813
17735TIP3    H174696   4.393   1.607  16.518  1.5721 -2.0984  1.7687
17735TIP3    H274697   4.417   1.705  16.631 -2.0748  2.3288 -1.1429
17736TIP3   OH274698   5.780   3.611  12.045 -0.5825  0.5404 -0.2345
17736TIP3    H174699   5.812   3.699  12.025 -0.0829  0.3870 -0.1019
17736TIP3    H274700   5.818   3.590  12.130 -2.1535  0.9200  0.5864
17737TIP3   OH274701   5.665   0.233   4.341  0.2334  0.2729  0.2921
17737TIP3    H174702   5.717   0.214   4.262 -0.8309  0.2947 -0.4279
17737TIP3    H274703   5.701   0.175   4.408  1.4183  0.5353 -0.0966
17738TIP3   OH274704   1.619   5.887   0.158  0.7523  0.0721  0.0322
17738TIP3    H174705   1.545   5.827   0.151  0.3598  0.3451  1.5510
17738TIP3    H274706   1.691   5.832   0.189  0.6549  0.1814  0.4603
17739TIP3   OH274707   0.439   3.237  14.109 -0.1013  0.0075  0.0112
17739TIP3    H174708   0.391   3.315  14.080 -1.0067 -0.5988 -0.1482
17739TIP3    H274709   0.391   3.206  14.186 -0.1329 -0.7470 -0.3004
17740TIP3   OH274710   1.722   3.864   0.404 -0.5570 -0.2301  0.6221
17740TIP3    H174711   1.659   3.836   0.338 -0.5418  2.8484 -0.7789
17740TIP3    H274712   1.670   3.875   0.484 -1.1788 -0.8036  0.2960
17741TIP3   OH274713   5.539   2.410   5.529 -0.1603  0.0895  0.5893
17741TIP3    H174714   5.523   2.443   5.618 -0.6194 -1.4114  1.0799
17741TIP3    H274715   5.633   2.420   5.517  0.1491 -1.1430  1.8509
17742TIP3   OH274716   1.195   5.275  15.377 -0.0368  0.5491 -0.1838
17742TIP3    H174717   1.249   5.335  15.428  2.6960 -0.0735 -2.2680
17742TIP3    H274718   1.165   5.210  15.441  2.3907  0.4117  0.8508
17743TIP3   OH274719   1.963   0.174   6.182  0.5634  0.6340  0.2388
17743TIP3    H174720   1.988   0.185   6.274  0.0243 -0.5338  0.5359
17743TIP3    H274721   1.874   0.208   6.177  0.2588 -0.1302  0.3543
17744TIP3   OH274722   6.403   6.760  12.509 -0.6454  0.1302  0.1431
17744TIP3    H174723   6.429   6.828  12.447 -1.6611 -0.3014 -0.7837
17744TIP3    H274724   6.326   6.719  12.468 -1.1353 -0.3696  1.5365
17745TIP3   OH274725   1.255   4.832   3.329 -0.0299  0.1241  0.5095
17745TIP3    H174726   1.351   4.833   3.330  0.0176 -1.8564  0.7076
17745TIP3    H274727   1.231   4.822   3.421 -0.4128  0.3329  0.4300
17746TIP3   OH274728   0.766   0.056  12.919 -0.1894 -0.0822 -0.1825
17746TIP3    H174729   0.833   0.055  12.987  1.0032  1.1179 -1.3147
17746TIP3    H274730   0.739   0.147  12.913 -0.0999 -0.1326 -1.4857
17747TIP3   OH274731   1.148   1.891  14.211 -0.0498  0.0800  0.0344
17747TIP3    H174732   1.107   1.805  14.220 -0.4161  0.0424 -1.7387
17747TIP3    H274733   1.218   1.877  14.148 -1.5122  1.5279 -1.9753
17748TIP3   OH274734   5.971   5.620   2.648  0.1582  0.2762 -0.4140
17748TIP3    H174735   5.913   5.650   2.719  1.6329 -2.4255  2.0281
17748TIP3    H274736   5.925   5.545   2.610  1.1116 -0.6352  0.2149
17749TIP3   OH274737   4.426   5.748   0.604 -0.4835 -0.5104  0.1796
17749TIP3    H174738   4.395   5.795   0.526  0.3708 -1.5013 -0.7755
17749TIP3    H274739   4.462   5.666   0.570  1.0045 -0.4336  1.4933
17750TIP3   OH274740   0.253   6.696   5.114  0.2995 -0.3805  0.3039
17750TIP3    H174741   0.285   6.752   5.186  2.8421 -0.7555 -0.4837
17750TIP3    H274742   0.332   6.665   5.071 -1.1750 -0.3940 -2.5224
17751TIP3   OH274743   0.455   6.540   0.960 -0.0388  0.1885  0.1000
17751TIP3    H174744   0.524   6.553   1.026 -1.8972 -0.1412  2.1412
17751TIP3    H274745   0.430   6.448   0.969 -0.5359  0.2287 -0.8507
17752TIP3   OH274746   0.140   2.042   6.362 -0.8630  0.0736  0.4576
17752TIP3    H174747   0.207   2.045   6.431  1.2195 -0.4327 -1.4864
17752TIP3    H274748   0.166   2.110   6.301 -1.2802 -1.1123 -1.0684
17753TIP3   OH274749   5.679   4.601   2.105  0.0179  0.1391 -0.3484
17753TIP3    H174750   5.681   4.695   2.085 -0.2607  0.2255  0.0131
17753TIP3    H274751   5.625   4.563   2.036 -1.0643  0.4563  0.2975
17754TIP3   OH274752   2.409   3.725   2.392  0.0282  0.0666  0.1086
17754TIP3    H174753   2.443   3.807   2.428  0.0599  0.8540 -1.6541
17754TIP3    H274754   2.321   3.747   2.364 -0.6196 -0.9999  1.2656
17755TIP3   OH274755   6.049   4.492  13.840  0.2664 -0.1491  0.1182
17755TIP3    H174756   5.971   4.441  13.860  1.3841 -1.7163  0.5293
17755TIP3    H274757   6.053   4.557  13.910 -0.5273 -0.2073  0.2303
17756TIP3   OH274758   1.182   0.163   1.684  0.5114  0.0198  0.0552
17756TIP3    H174759   1.222   0.169   1.597  1.9830  0.1705  0.7247
17756TIP3    H274760   1.222   0.233   1.734  0.3435 -0.6328  1.1179
17757TIP3   OH274761   3.520   1.143  13.846  0.3950  0.5877  0.3647
17757TIP3    H174762   3.594   1.140  13.907  0.4463 -0.3398  0.2538
17757TIP3    H274763   3.554   1.188  13.769  0.4213  1.4817  0.8837
17758TIP3   OH274764   3.451   4.325   0.441 -0.7048 -0.5867  0.0522
17758TIP3    H174765   3.514   4.263   0.476  0.0527  0.4537  0.5816
17758TIP3    H274766   3.505   4.398   0.408 -1.5972  0.0488 -0.0317
17759TIP3   OH274767   1.359   3.705   3.158 -0.1099  0.1307  0.1821
17759TIP3    H174768   1.405   3.789   3.161  0.8788 -0.4245  0.7006
17759TIP3    H274769   1.357   3.683   3.065 -0.9990  1.0633 -0.0337
17760TIP3   OH274770   6.291   2.595   0.315  0.2398  0.3385 -0.2457
17760TIP3    H174771   6.208   2.548   0.316  0.1710  0.4726  0.4387
17760TIP3    H274772   6.267   2.687   0.316  0.3757  0.3932 -1.5431
17761TIP3   OH274773   5.903   3.851   2.831  0.3387  0.1650  0.2156
17761TIP3    H174774   5.929   3.760   2.844  1.9817  0.9560  2.9143
17761TIP3    H274775   5.979   3.902   2.860 -0.8640  2.4096 -0.4659
17762TIP3   OH274776   3.945   2.751   4.396 -0.7336 -0.1420  0.2167
17762TIP3    H174777   3.858   2.711   4.397 -0.8540  0.1172  0.3346
17762TIP3    H274778   3.994   2.701   4.331 -1.0679 -0.0870 -0.0795
17763TIP3   OH274779   6.429   6.131  16.872  0.7465 -0.3323  0.4935
17763TIP3    H174780   6.464   6.218  16.851 -1.5129  0.0708 -1.8576
17763TIP3    H274781   6.478   6.071  16.816  0.7510 -0.3151  0.4781
17764TIP3   OH274782   4.147   3.916   0.458  1.1109  0.1802  0.3001
17764TIP3    H174783   4.147   3.986   0.523 -1.4569  0.8662 -0.3937
17764TIP3    H274784   4.162   3.836   0.508  1.1132  0.9049  1.4722
17765TIP3   OH274785   0.341   5.277   3.905 -0.2115  0.2178  0.3055
17765TIP3    H174786   0.419   5.329   3.885 -0.6267  0.8984  0.4183
17765TIP3    H274787   0.350   5.254   3.997  1.1067 -1.8843 -0.3230
17766TIP3   OH274788   5.667   4.245  16.454 -0.1595  0.5652  0.5487
17766TIP3    H174789   5.643   4.332  16.422  1.4051  0.9544  0.3999
17766TIP3    H274790   5.650   4.187  16.380  0.7410  1.0413 -0.0320
17767TIP3   OH274791   5.415   6.696   3.796  0.1277 -0.2279  0.0952
17767TIP3    H174792   5.434   6.655   3.712 -0.0976 -0.8221  0.3344
17767TIP3    H274793   5.487   6.757   3.810 -0.5277  0.8620 -1.1696
17768TIP3   OH274794   6.281   1.268  12.858  0.0447 -0.4179  0.1678
17768TIP3    H174795   6.228   1.297  12.932 -0.2968  0.0719 -0.2615
17768TIP3    H274796   6.309   1.180  12.881  0.7090  0.0751  1.2907
17769TIP3   OH274797   0.557   6.188  14.606  0.2732 -0.3640 -1.0261
17769TIP3    H174798   0.550   6.132  14.529  1.2053  0.5875 -1.8303
17769TIP3    H274799   0.535   6.276  14.574 -0.8046 -0.2074  0.1280
17770TIP3   OH274800   0.506   0.265   5.900  0.1040 -0.3755 -0.3087
17770TIP3    H174801   0.415   0.265   5.871  0.0935  1.1307 -0.3227
17770TIP3    H274802   0.514   0.186   5.954 -1.1821 -0.5549 -0.3648
17771TIP3   OH274803   4.210   6.377  11.049  0.6186 -0.0772 -0.1231
17771TIP3    H174804   4.275   6.308  11.037  2.0249  0.9627  1.4574
17771TIP3    H274805   4.136   6.349  10.994  1.3845 -2.5336  0.0195
17772TIP3   OH274806   2.336   1.945   4.761 -0.2506  0.5206 -0.5514
17772TIP3    H174807   2.293   1.878   4.709 -0.4267  0.8146 -0.7836
17772TIP3    H274808   2.275   1.964   4.833 -0.0092  0.1175 -0.2351
17773TIP3   OH274809   1.994   2.203   2.805  0.3487  0.2399 -0.4879
17773TIP3    H174810   1.993   2.234   2.895  1.4483 -0.2259 -0.3095
17773TIP3    H274811   1.918   2.245   2.764 -0.6032 -0.1491  0.8492
17774TIP3   OH274812   6.169   0.691  13.861 -0.2355 -0.4653 -0.5303
17774TIP3    H174813   6.156   0.638  13.940  1.5539  0.6820  0.5894
17774TIP3    H274814   6.198   0.629  13.794  2.5592 -0.8492  0.9644
17775TIP3   OH274815   1.459   0.375  11.089 -0.0782 -0.2147 -0.2642
17775TIP3    H174816   1.478   0.460  11.049 -0.5732 -0.2964 -0.6689
17775TIP3    H274817   1.427   0.321  11.017 -1.2352 -0.2758  0.2899
17776TIP3   OH274818   5.817   5.288  15.742 -0.0321  0.4387 -0.0152
17776TIP3    H174819   5.863   5.267  15.660 -0.6435  2.5376 -0.9196
17776TIP3    H274820   5.734   5.242  15.735  0.1763  0.0943 -0.2680
17777TIP3   OH274821   3.047   0.796  11.886 -0.0613 -0.5562  0.5953
17777TIP3    H174822   3.071   0.789  11.979  0.6028 -0.0141  0.4751
17777TIP3    H274823   3.121   0.758  11.839 -0.2018 -0.4393  0.2775
17778TIP3   OH274824   2.985   6.090  10.707  0.0853 -0.3768  0.0079
17778TIP3    H174825   3.079   6.078  10.689 -0.4198 -0.6441 -2.6132
17778TIP3    H274826   2.982   6.166  10.765  1.9552 -0.5332  0.3391
17779TIP3   OH274827   6.807   1.497   1.464 -0.1907 -0.2511 -0.4541
17779TIP3    H174828   6.712   1.497   1.477 -0.1802 -1.3272 -0.3109
17779TIP3    H274829   6.832   1.405   1.472  1.1092  0.2342  1.1767
17780TIP3   OH274830   5.380   3.448   6.291 -0.0242  0.3786 -0.4571
17780TIP3    H174831   5.458   3.446   6.347 -1.6262  0.0814  1.8497
17780TIP3    H274832   5.308   3.423   6.350 -1.5317 -1.7939 -3.1062
17781TIP3   OH274833   5.883   4.402  11.198 -0.0036  0.1141 -0.2030
17781TIP3    H174834   5.971   4.368  11.178 -0.6983 -0.1321 -3.0736
17781TIP3    H274835   5.835   4.326  11.230  0.4798 -0.0067  0.2528
17782TIP3   OH274836   1.874   5.162   0.555  0.2024  0.4807  0.8830
17782TIP3    H174837   1.870   5.078   0.600 -1.5471 -0.1486 -0.3959
17782TIP3    H274838   1.794   5.165   0.502  1.5666  1.7200 -1.1991
17783TIP3   OH274839   6.049   2.244  16.467 -0.3303  0.6408 -0.2535
17783TIP3    H174840   6.125   2.242  16.408  0.2419  2.5979  0.3835
17783TIP3    H274841   6.007   2.328  16.449 -2.7130 -0.6551 -0.9910
17784TIP3   OH274842   1.437   1.672   3.803  0.3228 -0.2732  0.2025
17784TIP3    H174843   1.512   1.668   3.862  0.8059  0.8967 -0.3216
17784TIP3    H274844   1.432   1.584   3.765  1.5849 -0.2860  0.0484
17785TIP3   OH274845   3.743   0.263   2.338  0.3441 -0.2084  0.1994
17785TIP3    H174846   3.806   0.276   2.268 -0.2577  1.5664 -0.0410
17785TIP3    H274847   3.658   0.257   2.294 -0.0596  1.1260  0.7531
17786TIP3   OH274848   6.804   0.174  14.092  0.0545  0.2092 -0.1771
17786TIP3    H174849   6.825   0.134  14.177  1.5695 -0.2361 -0.7471
17786TIP3    H274850   6.712   0.197  14.099 -0.0369 -0.5302  1.3194
17787TIP3   OH274851   0.210   5.570  10.477 -0.3816 -0.1785  0.3109
17787TIP3    H174852   0.286   5.534  10.522 -0.2397  0.9203  0.9897
17787TIP3    H274853   0.174   5.497  10.427  0.7919 -0.8508  0.4226
17788TIP3   OH274854   4.153   6.456   2.474 -0.3460  0.4026  0.2510
17788TIP3    H174855   4.095   6.505   2.415 -0.0026  3.1433  2.1271
17788TIP3    H274856   4.103   6.449   2.556 -0.1514 -1.9371  0.2089
17789TIP3   OH274857   1.551   5.169  13.489  0.0909 -0.0565  0.5836
17789TIP3    H174858   1.590   5.255  13.505  1.0592 -0.6560  1.5066
17789TIP3    H274859   1.556   5.159  13.394 -0.4833  1.1142  0.4161
17790TIP3   OH274860   5.759   6.049  12.944 -0.3346 -0.4968 -0.5253
17790TIP3    H174861   5.692   6.095  12.995 -0.9224  0.5309 -2.1618
17790TIP3    H274862   5.841   6.091  12.969 -0.5668 -0.3213 -0.0590
17791TIP3   OH274863   1.109   6.140   0.295 -0.0651 -0.1667 -0.1141
17791TIP3    H174864   1.168   6.184   0.234  1.3727 -0.4259  1.0318
17791TIP3    H274865   1.093   6.205   0.364 -0.9695 -0.1662 -0.3228
17792TIP3   OH274866   4.466   2.090  12.107  0.0933  0.2785 -0.1859
17792TIP3    H174867   4.410   2.091  12.185 -0.2779 -0.2415 -0.4387
17792TIP3    H274868   4.462   1.999  12.077 -0.0945  0.5740 -1.0504
17793TIP3   OH274869   4.427   2.890  14.394 -0.3913  0.5613  0.1052
17793TIP3    H174870   4.395   2.799  14.398 -0.2497  0.5245  0.4386
17793TIP3    H274871   4.391   2.924  14.312  0.8323 -0.2804 -0.8198
17794TIP3   OH274872   3.758   0.998  15.808 -0.0032 -0.6631  0.8829
17794TIP3    H174873   3.794   0.948  15.881  0.7746 -1.5461 -0.0986
17794TIP3    H274874   3.824   0.992  15.739 -0.7138  0.1843  0.1030
17795TIP3   OH274875   3.001   2.056   5.835 -0.1285  0.7727 -0.0516
17795TIP3    H174876   3.067   2.033   5.901 -1.5995  0.4894  1.3435
17795TIP3    H274877   2.958   1.973   5.814  0.0718  0.9261 -1.0914
17796TIP3   OH274878   6.284   5.635  13.080  0.0290 -0.8794  0.2519
17796TIP3    H174879   6.367   5.592  13.058 -0.1472 -1.4685  0.7047
17796TIP3    H274880   6.222   5.563  13.088 -0.3512 -0.5071  0.6887
17797TIP3   OH274881   2.555   6.299  14.276  0.1872  0.1026  0.5285
17797TIP3    H174882   2.623   6.294  14.343  1.4642  1.5706 -0.6275
17797TIP3    H274883   2.478   6.257  14.316  2.0812 -2.6365  1.4371
17798TIP3   OH274884   0.328   6.334  13.472 -0.0886  0.7325  0.1053
17798TIP3    H174885   0.371   6.414  13.441  1.5943 -0.0836  0.2527
17798TIP3    H274886   0.347   6.332  13.566 -0.9086  0.6362  0.2680
17799TIP3   OH274887   4.248   2.492   1.202  0.8883 -0.4619 -0.3689
17799TIP3    H174888   4.195   2.518   1.127  1.0344 -0.6968 -0.5514
17799TIP3    H274889   4.276   2.403   1.183 -0.5456 -1.1720  0.7757
17800TIP3   OH274890   3.385   5.518   1.505  0.6361  0.0972 -0.1861
17800TIP3    H174891   3.396   5.607   1.538  1.2182 -0.2204  0.4943
17800TIP3    H274892   3.440   5.464   1.563 -0.4002 -0.8196 -0.0426
17801TIP3   OH274893   3.134   3.166   2.146 -0.0342 -0.2925 -0.0836
17801TIP3    H174894   3.144   3.128   2.059 -1.7279  1.5827 -1.1253
17801TIP3    H274895   3.088   3.098   2.197 -0.7839 -0.6388 -1.2094
17802TIP3   OH274896   4.752   1.688  15.506  0.3440  0.0634  0.0360
17802TIP3    H174897   4.755   1.613  15.447 -0.3330  1.4725 -1.8148
17802TIP3    H274898   4.772   1.764  15.452  0.7034  1.2826  1.8109
17803TIP3   OH274899   3.167   6.033   1.340  0.4102 -0.1239 -0.1557
17803TIP3    H174900   3.094   5.970   1.339  0.4900 -0.2061 -0.9231
17803TIP3    H274901   3.140   6.101   1.278  1.2198 -0.4293 -0.8545
17804TIP3   OH274902   2.698   3.331   5.353  0.7419 -0.1902 -0.1813
17804TIP3    H174903   2.751   3.301   5.427  0.3512  2.9082  1.4619
17804TIP3    H274904   2.751   3.399   5.312 -1.0508  1.5339  0.2667
17805TIP3   OH274905   5.173   3.909  12.159 -0.4779  0.0000 -0.0148
17805TIP3    H174906   5.193   3.893  12.251 -2.0331 -0.6507  0.2317
17805TIP3    H274907   5.171   3.822  12.119  1.1168  0.3436 -0.8781
17806TIP3   OH274908   3.864   2.102   4.236 -0.3152 -0.4402 -0.0127
17806TIP3    H174909   3.955   2.123   4.256 -0.6910  1.5197 -0.2375
17806TIP3    H274910   3.866   2.070   4.146 -0.1233  1.8344 -0.8512
17807TIP3   OH274911   6.616   2.126   3.869  0.0680  0.0134  0.1208
17807TIP3    H174912   6.604   2.044   3.821 -1.2601  0.5532 -0.4635
17807TIP3    H274913   6.612   2.194   3.802 -1.0738  0.7164  0.8979
17808TIP3   OH274914   3.051   2.422   0.762 -0.0866  0.0547 -0.3173
17808TIP3    H174915   2.981   2.357   0.763 -1.5479  1.5996  1.6583
17808TIP3    H274916   3.028   2.483   0.832  1.5936  2.3294 -1.6774
17809TIP3   OH274917   1.314   1.931   0.467 -0.4845 -0.5897 -0.0252
17809TIP3    H174918   1.393   1.930   0.412  0.6419 -1.6551  1.5764
17809TIP3    H274919   1.242   1.919   0.405  0.7452 -1.3804 -1.3332
17810TIP3   OH274920   1.438   1.587  15.789 -0.0509 -0.0643  0.7562
17810TIP3    H174921   1.530   1.610  15.776 -0.6247  2.0680  0.3137
17810TIP3    H274922   1.409   1.555  15.703 -0.1110  0.6478  0.5116
17811TIP3   OH274923   6.164   2.995   2.134  0.3711  0.0814  0.2358
17811TIP3    H174924   6.250   2.953   2.124 -0.3862 -1.0607 -1.9761
17811TIP3    H274925   6.184   3.088   2.145  1.9350 -0.3110  0.8736
17812TIP3   OH274926   0.889   3.795   1.562  0.5043 -0.3739 -0.2502
17812TIP3    H174927   0.921   3.748   1.485 -1.5875 -3.6170  0.7506
17812TIP3    H274928   0.842   3.871   1.526  1.8233 -0.3797 -2.0283
17813TIP3   OH274929   4.061   6.133  13.026  0.2149  0.0585  0.1453
17813TIP3    H174930   4.050   6.043  12.994  0.2775  0.3180 -0.6275
17813TIP3    H274931   3.975   6.174  13.012  0.5758  0.5083 -0.7777
17814TIP3   OH274932   3.206   4.523  12.989  0.6216  0.0418 -0.0008
17814TIP3    H174933   3.130   4.569  13.024 -0.3186 -1.9063  0.6045
17814TIP3    H274934   3.168   4.459  12.928  1.9463  0.5152 -1.3644
17815TIP3   OH274935   2.978   2.131   0.464 -0.3749  0.2463  0.2443
17815TIP3    H174936   2.995   2.042   0.494 -0.2845 -0.3455 -1.5155
17815TIP3    H274937   3.050   2.150   0.403 -0.9686  1.1444 -0.1816
17816TIP3   OH274938   3.083   3.951  17.140  0.0276  0.7012 -0.0912
17816TIP3    H174939   3.023   3.941  17.214 -0.2617 -1.5579 -0.6001
17816TIP3    H274940   3.038   3.910  17.067  2.0743 -0.8171 -0.5375
17817TIP3   OH274941   4.854   1.508   5.637  0.2332 -0.1525 -0.1016
17817TIP3    H174942   4.899   1.484   5.719  1.1317  0.2524 -0.4698
17817TIP3    H274943   4.761   1.499   5.658  0.4842 -2.9728  0.0934
17818TIP3   OH274944   1.494   1.296  13.287  0.8232 -0.6704  0.0865
17818TIP3    H174945   1.422   1.337  13.238  0.0333 -0.5257  1.3657
17818TIP3    H274946   1.572   1.314  13.234 -0.0105 -0.4237 -1.0709
17819TIP3   OH274947   3.941   1.102   2.896 -0.2215  0.3566 -0.8158
17819TIP3    H174948   3.894   1.147   2.966  0.8110  0.8267 -0.4247
17819TIP3    H274949   3.998   1.039   2.941  1.6239  1.7635 -1.1321
17820TIP3   OH274950   4.613   3.750   4.724  0.1607  0.5114 -0.1610
17820TIP3    H174951   4.543   3.788   4.778  1.2869  0.7624  1.1582
17820TIP3    H274952   4.675   3.714   4.787 -0.8179 -3.5699 -1.3744
17821TIP3   OH274953   4.215   0.209  11.933  0.0677  0.1020 -0.3680
17821TIP3    H174954   4.139   0.268  11.925  1.0591  1.2826 -1.3503
17821TIP3    H274955   4.179   0.128  11.968 -1.5675  0.8385 -0.2978
17822TIP3   OH274956   2.650   2.445  15.707 -0.2076  0.4338 -0.0450
17822TIP3    H174957   2.658   2.358  15.669 -0.7516 -0.4721  1.8487
17822TIP3    H274958   2.726   2.452  15.765 -0.4517  1.0122  0.2036
17823TIP3   OH274959   3.983   6.552  10.657  0.3667 -0.1696 -0.4162
17823TIP3    H174960   3.954   6.643  10.666 -0.8756 -0.7167  1.5897
17823TIP3    H274961   3.970   6.532  10.565  0.0760  1.4917 -0.7664
17824TIP3   OH274962   2.983   4.721   2.009  0.0507 -0.4562 -0.3510
17824TIP3    H174963   2.889   4.739   2.007  0.1198 -0.0836 -0.3081
17824TIP3    H274964   2.993   4.655   2.078 -0.0252  0.4902  0.5874
17825TIP3   OH274965   1.445   6.221  15.515  0.4611 -0.0285 -0.1364
17825TIP3    H174966   1.467   6.128  15.515 -0.2740 -0.2089 -0.8796
17825TIP3    H274967   1.493   6.257  15.589 -0.0317 -1.1871  0.7713
17826TIP3   OH274968   5.535   2.717  14.545 -0.1164 -0.1796  0.3830
17826TIP3    H174969   5.553   2.807  14.570  2.1294 -0.5576  0.2364
17826TIP3    H274970   5.492   2.679  14.621  3.2571 -0.2845  2.3592
17827TIP3   OH274971   0.465   4.613  16.672 -0.4432  0.6701  0.5359
17827TIP3    H174972   0.436   4.543  16.730 -1.7175  0.8452  0.1270
17827TIP3    H274973   0.502   4.567  16.596  1.2957  0.4408  1.4866
17828TIP3   OH274974   0.434   6.312   4.549  0.1084  0.8334  0.3653
17828TIP3    H174975   0.377   6.349   4.482  1.7191 -2.0345 -2.7069
17828TIP3    H274976   0.383   6.240   4.587 -0.1597  1.3835  1.0558
17829TIP3   OH274977   3.566   4.370  13.423 -0.2139  0.1361 -0.2176
17829TIP3    H174978   3.660   4.357  13.413 -0.1854  0.2833 -0.1376
17829TIP3    H274979   3.532   4.282  13.441 -0.1786 -0.0264 -0.9109
17830TIP3   OH274980   3.663   4.571   2.275  0.5786  0.0127  0.4788
17830TIP3    H174981   3.745   4.537   2.238  0.3674 -0.2668  0.2664
17830TIP3    H274982   3.627   4.627   2.205  0.5638  0.0961  0.5532
17831TIP3   OH274983   5.604   1.467  16.293  0.0543 -0.7756  0.3323
17831TIP3    H174984   5.654   1.474  16.211 -0.7326  0.0394 -0.0907
17831TIP3    H274985   5.579   1.557  16.313  0.7590 -0.9041  1.8126
17832TIP3   OH274986   4.420   3.816   4.938  0.0213 -0.1990  0.6811
17832TIP3    H174987   4.328   3.834   4.921  0.2339 -0.1417 -0.4588
17832TIP3    H274988   4.419   3.754   5.011 -0.8617  0.8699  1.5941
17833TIP3   OH274989   3.672   2.376   1.332 -0.2466  0.2627 -0.5960
17833TIP3    H174990   3.616   2.433   1.280  0.3579  0.5562 -0.9326
17833TIP3    H274991   3.758   2.384   1.291  0.7318  2.1238  1.7054
17834TIP3   OH274992   2.792   2.328  17.184  0.3675  0.1282 -0.1641
17834TIP3    H174993   2.710   2.330  17.233  0.6253  0.0074  0.2754
17834TIP3    H274994   2.779   2.391  17.112  0.5950  1.5795  1.0418
17835TIP3   OH274995   0.926   4.628   0.661  0.2837  0.3797  0.0260
17835TIP3    H174996   0.921   4.572   0.583  1.3056  0.8161 -0.3641
17835TIP3    H274997   0.888   4.712   0.632 -2.7708 -0.5819  1.0806
17836TIP3   OH274998   6.010   2.019  14.048  0.0946 -0.3441 -0.0640
17836TIP3    H174999   6.037   2.107  14.075  0.1147 -0.4612  0.3035
17836TIP3    H275000   6.091   1.975  14.023  0.0190 -0.0697 -0.8190
17837TIP3   OH275001   5.799   5.463   4.072  0.3145  0.0915  0.3143
17837TIP3    H175002   5.810   5.532   4.007  2.1831 -0.7080 -0.2577
17837TIP3    H275003   5.774   5.509   4.152 -1.3064  1.1501 -0.7476
17838TIP3   OH275004   6.075   0.193   5.585  0.2050  0.3075 -0.2617
17838TIP3    H175005   6.013   0.251   5.540  0.2783  0.3132 -0.3569
17838TIP3    H275006   6.127   0.155   5.514  0.3401  0.3374 -0.1791
17839TIP3   OH275007   1.925   3.755   3.892 -0.8647 -0.3323 -0.6562
17839TIP3    H175008   1.905   3.688   3.827  1.0680 -1.5968  0.0411
17839TIP3    H275009   1.963   3.827   3.841 -0.3114 -0.8995 -1.0335
17840TIP3   OH275010   5.299   3.145  14.607 -0.4937  0.8636  0.0846
17840TIP3    H175011   5.346   3.085  14.549  2.9245  0.2077  3.2915
17840TIP3    H275012   5.272   3.217  14.551  0.4622 -0.9392 -2.7673
17841TIP3   OH275013   5.988   1.390   0.495  0.7131  0.7005 -0.0272
17841TIP3    H175014   5.939   1.330   0.551 -1.5706  2.1183 -0.4365
17841TIP3    H275015   6.017   1.337   0.421  0.6928 -0.3916  0.7489
17842TIP3   OH275016   1.673   2.754   2.698  0.5245 -0.4865 -0.1627
17842TIP3    H175017   1.665   2.846   2.721  2.3006 -0.1328 -0.8227
17842TIP3    H275018   1.601   2.711   2.743 -1.9204  1.5887 -1.9396
17843TIP3   OH275019   2.038   4.742  13.089 -0.9000 -0.0919 -0.1923
17843TIP3    H175020   2.079   4.736  13.003 -0.7869  0.3004 -0.1662
17843TIP3    H275021   1.972   4.673  13.089 -1.3631  0.3436 -0.8432
17844TIP3   OH275022   6.721   6.034  16.778  0.3199 -0.1090 -0.0570
17844TIP3    H175023   6.744   6.127  16.770  0.1277  0.2366  2.8911
17844TIP3    H275024   6.724   6.001  16.688  1.4416  2.4921 -1.0293
17845TIP3   OH275025   1.368   4.961   6.526 -0.1424  0.2087  0.5349
17845TIP3    H175026   1.279   4.987   6.549  0.4181  0.6071  2.3450
17845TIP3    H275027   1.360   4.921   6.439 -1.8919  1.2800  0.1815
17846TIP3   OH275028   1.359   5.397  17.073  0.2033  0.3785 -0.3187
17846TIP3    H175029   1.302   5.474  17.061  0.5739  0.8091  0.6310
17846TIP3    H275030   1.391   5.405  17.163  1.7990  0.1667 -0.8543
17847TIP3   OH275031   6.206   2.567  16.159  0.3221 -0.0456  0.1371
17847TIP3    H175032   6.158   2.513  16.096  0.5036 -0.3468  0.2568
17847TIP3    H275033   6.156   2.558  16.241  0.7269 -0.5736  0.3301
17848TIP3   OH275034   5.697   4.841   0.464 -0.1881 -0.5206  0.1588
17848TIP3    H175035   5.755   4.774   0.429  0.4566 -0.2525  0.7100
17848TIP3    H275036   5.750   4.887   0.530 -0.8413  0.0810  0.2682
17849TIP3   OH275037   2.522   1.897   4.951  0.2277  0.6258  0.7759
17849TIP3    H175038   2.597   1.892   4.893  0.0547 -1.9073  0.7311
17849TIP3    H275039   2.446   1.888   4.893  0.0235 -0.9426  1.2807
17850TIP3   OH275040   4.657   2.900  17.040  0.0607 -0.1657  0.2812
17850TIP3    H175041   4.731   2.932  17.092 -1.3152  3.8816 -0.0781
17850TIP3    H275042   4.666   2.943  16.955 -2.2894 -0.1483 -0.0036
17851TIP3   OH275043   3.154   5.545   1.102 -0.1194  0.3564 -0.0820
17851TIP3    H175044   3.197   5.592   1.030 -0.7880 -2.5318 -2.4904
17851TIP3    H275045   3.224   5.527   1.164  1.1066  0.3260 -1.4447
17852TIP3   OH275046   2.369   1.728  13.611  0.5465  0.1171  0.5130
17852TIP3    H175047   2.396   1.679  13.688  0.0118  1.3445  1.5018
17852TIP3    H275048   2.297   1.784  13.642  0.5898  0.9071 -0.7710
17853TIP3   OH275049   1.959   1.360  11.737  0.1450  0.1738  0.0887
17853TIP3    H175050   1.866   1.338  11.737 -0.1500  1.3357  1.3065
17853TIP3    H275051   1.967   1.431  11.802  1.8947 -0.0365  0.1356
17854TIP3   OH275052   2.959   2.909  16.932  0.0462 -0.0230 -0.2289
17854TIP3    H175053   2.893   2.913  17.002  1.2146  0.0476  0.8912
17854TIP3    H275054   2.910   2.928  16.852 -1.0750  1.2546  0.7296
17855TIP3   OH275055   4.419   4.961  17.074  0.4190 -0.7583 -0.4256
17855TIP3    H175056   4.367   4.961  17.155 -0.6539  0.0225 -1.1151
17855TIP3    H275057   4.510   4.969  17.105 -0.0818  1.0683  0.6437
17856TIP3   OH275058   5.475   4.954  12.640 -0.1575  0.3807  0.3452
17856TIP3    H175059   5.516   4.885  12.589  0.1981 -0.7172  2.0890
17856TIP3    H275060   5.535   4.970  12.713 -1.0154  1.3914  0.8517
17857TIP3   OH275061   4.880   3.920  12.251 -0.1680  0.3231 -0.9133
17857TIP3    H175062   4.913   3.838  12.288  1.4700  0.3443 -2.2679
17857TIP3    H275063   4.947   3.946  12.187 -1.5298  1.7925 -1.7667
17858TIP3   OH275064   5.120   6.501  11.419 -0.4732  0.2213 -0.2864
17858TIP3    H175065   5.161   6.581  11.386 -0.0575  0.4868  0.8665
17858TIP3    H275066   5.131   6.438  11.347  0.2965  0.8325 -0.7204
17859TIP3   OH275067   3.639   3.391   2.670 -0.1883  0.0954 -0.0722
17859TIP3    H175068   3.689   3.319   2.632  1.3159  0.2990  1.4334
17859TIP3    H275069   3.551   3.382   2.634  0.6025 -1.0754 -1.7366
17860TIP3   OH275070   6.581   3.117  12.957 -1.1832 -0.1699 -0.5413
17860TIP3    H175071   6.513   3.184  12.969 -0.3254  0.6011  0.1088
17860TIP3    H275072   6.538   3.048  12.907 -2.4262  0.3443 -0.2103
17861TIP3   OH275073   3.557   4.634  16.286 -0.3565 -0.7411  0.6619
17861TIP3    H175074   3.520   4.643  16.373  0.0999  1.1332  0.6925
17861TIP3    H275075   3.635   4.580  16.299  0.9080  1.2889  1.8030
17862TIP3   OH275076   5.768   4.164   4.929 -0.0257  0.2813  0.2931
17862TIP3    H175077   5.768   4.243   4.875  1.1314 -1.4636 -2.3848
17862TIP3    H275078   5.832   4.181   4.998  0.1648  1.6890 -0.2271
17863TIP3   OH275079   4.837   2.402  12.277 -0.2337  0.5907  0.0616
17863TIP3    H175080   4.770   2.373  12.215  0.0036 -0.6380  0.3638
17863TIP3    H275081   4.790   2.410  12.360 -0.1195  0.2722  0.1548
17864TIP3   OH275082   6.227   6.294   5.317 -0.3701 -0.5232 -0.1664
17864TIP3    H175083   6.266   6.382   5.314 -0.0277 -0.7001 -0.9024
17864TIP3    H275084   6.192   6.287   5.406  2.8336 -1.0164  1.1295
17865TIP3   OH275085   1.536   5.991   5.527 -0.1444  0.0236 -0.0910
17865TIP3    H175086   1.613   6.047   5.519  1.3438 -1.6849  1.6988
17865TIP3    H275087   1.484   6.009   5.449  1.8158  1.5990 -1.0552
17866TIP3   OH275088   5.959   5.805   5.112  0.4381  0.2242  0.1566
17866TIP3    H175089   5.939   5.899   5.117  0.4326  0.1914  0.8700
17866TIP3    H275090   5.925   5.769   5.194  0.5134 -0.3903 -0.0778
17867TIP3   OH275091   4.483   6.170  14.451 -0.2915 -0.1079  0.3982
17867TIP3    H175092   4.546   6.102  14.475  2.5565  1.9747 -0.8957
17867TIP3    H275093   4.411   6.122  14.410  0.8997 -2.4781  0.9666
17868TIP3   OH275094   4.274   3.818  11.870 -0.6747  0.1580  0.1518
17868TIP3    H175095   4.199   3.829  11.812 -1.6889  0.7639  1.5403
17868TIP3    H275096   4.257   3.736  11.917 -0.1384 -0.0415  0.0066
17869TIP3   OH275097   5.964   5.037  15.862  0.0440  0.0111 -0.2312
17869TIP3    H175098   6.022   5.103  15.824  0.1263  0.3072  0.4039
17869TIP3    H275099   5.876   5.069  15.844  0.0825  0.4690  0.3552
17870TIP3   OH275100   0.647   3.341  11.334  0.3512  0.3760  0.0196
17870TIP3    H175101   0.670   3.350  11.426 -0.6913  1.3819  0.1913
17870TIP3    H275102   0.696   3.264  11.304 -1.2320 -1.5136  2.0614
17871TIP3   OH275103   6.652   6.816   1.574  0.0283 -0.5869 -0.2932
17871TIP3    H175104   6.726   6.806   1.634 -1.0139  1.4516  1.4052
17871TIP3    H275105   6.677   6.889   1.517 -0.4573 -0.2046 -0.0205
17872TIP3   OH275106   5.485   3.963   6.487  0.5054 -0.0147 -0.0026
17872TIP3    H175107   5.546   4.028   6.523 -0.2317  1.3588 -1.1702
17872TIP3    H275108   5.448   4.005   6.409 -1.6076 -0.9964  0.4327
17873TIP3   OH275109   2.447   3.765   5.280  0.1560  0.1915  0.5206
17873TIP3    H175110   2.485   3.783   5.194 -1.5896  1.8034  0.0731
17873TIP3    H275111   2.479   3.835   5.336  0.9947 -0.6544  1.1295
17874TIP3   OH275112   0.784   4.973  16.932 -0.2275  0.6564  0.3922
17874TIP3    H175113   0.877   4.960  16.949 -0.5865  0.2980  2.1636
17874TIP3    H275114   0.748   4.884  16.924 -0.7547  0.7597  1.6118
17875TIP3   OH275115   6.241   6.689  16.077 -0.3807  0.5133  0.2712
17875TIP3    H175116   6.221   6.733  15.994  0.7655  1.0417  0.2731
17875TIP3    H275117   6.274   6.603  16.051  0.8123  1.0067  0.1492
17876TIP3   OH275118   4.741   3.911   4.529  0.5209 -0.2315 -0.5591
17876TIP3    H175119   4.713   3.887   4.618  2.6023  1.4860  0.6231
17876TIP3    H275120   4.690   3.989   4.508  0.3492 -0.3801 -0.6927
17877TIP3   OH275121   6.514   6.539   2.955  0.3595 -0.0923  0.2897
17877TIP3    H175122   6.588   6.548   3.014  0.0264 -0.4725  0.7665
17877TIP3    H275123   6.521   6.613   2.895  1.1568 -0.1662  0.2948
17878TIP3   OH275124   3.688   2.773  15.355  0.6018 -0.5728  0.1864
17878TIP3    H175125   3.653   2.706  15.414 -0.3555  1.2234  1.7039
17878TIP3    H275126   3.706   2.848  15.412 -2.0121  1.8365 -2.0563
17879TIP3   OH275127   6.627   6.775  15.947  0.1379 -0.1101  0.4296
17879TIP3    H175128   6.677   6.813  15.875 -1.2670 -1.0782 -1.0798
17879TIP3    H275129   6.694   6.746  16.009  1.4242 -0.3737 -1.0421
17880TIP3   OH275130   1.777   5.933   4.605  0.4070  0.2531 -0.2817
17880TIP3    H175131   1.848   5.949   4.543 -1.6768  1.4517 -2.4568
17880TIP3    H275132   1.745   6.021   4.628 -0.8437 -0.2908  0.0969
17881TIP3   OH275133   5.429   2.065   1.473 -1.3453  0.2166 -0.2789
17881TIP3    H175134   5.367   1.992   1.485 -0.9442  0.0521  0.8406
17881TIP3    H275135   5.457   2.057   1.382 -1.4139 -0.9597 -0.2095
17882TIP3   OH275136   2.086   3.136  10.598 -0.5922  0.0810 -0.3308
17882TIP3    H175137   2.105   3.221  10.636  1.6733 -0.7851  0.5772
17882TIP3    H275138   2.030   3.092  10.662 -1.5537  0.7659 -0.6868
17883TIP3   OH275139   1.503   3.020  15.270  0.3387  0.0359 -0.2971
17883TIP3    H175140   1.571   2.954  15.257  1.3898  1.0736 -0.1110
17883TIP3    H275141   1.544   3.087  15.325 -0.7849  0.7437 -0.3031
17884TIP3   OH275142   0.460   2.411   5.213 -0.1704  0.5514 -0.3755
17884TIP3    H175143   0.420   2.456   5.287  0.0175  1.2944 -0.7222
17884TIP3    H275144   0.489   2.481   5.154  0.8292  0.0007 -0.5488
17885TIP3   OH275145   3.084   2.610   2.175 -0.4474 -0.3470 -0.1248
17885TIP3    H175146   2.994   2.619   2.143 -1.1388 -2.2693  1.1832
17885TIP3    H275147   3.081   2.642   2.265 -0.0815 -1.4826  0.2991
17886TIP3   OH275148   3.297   6.136   5.576  0.1459  0.5270 -0.6988
17886TIP3    H175149   3.221   6.189   5.600 -0.5820 -0.6116 -0.4442
17886TIP3    H275150   3.318   6.164   5.487  0.4077  1.9669 -0.1958
17887TIP3   OH275151   2.667   4.724   1.945 -0.4902  0.3708 -0.3557
17887TIP3    H175152   2.689   4.741   1.853  0.5133  1.0593 -0.0110
17887TIP3    H275153   2.590   4.779   1.962 -0.3585  0.6499 -0.6481
17888TIP3   OH275154   2.272   4.061  16.272 -0.2149  0.1118 -0.4880
17888TIP3    H175155   2.255   3.992  16.337  0.4178 -0.9035 -1.3934
17888TIP3    H275156   2.339   4.116  16.312 -0.2261 -0.1904 -0.0558
17889TIP3   OH275157   1.489   0.562  12.253 -0.0599  0.5575  0.0386
17889TIP3    H175158   1.579   0.527  12.254 -0.5525 -0.7808 -0.5648
17889TIP3    H275159   1.495   0.641  12.200  0.8242  0.6514  0.2610
17890TIP3   OH275160   2.041   0.381   2.772  0.1868 -0.1960 -0.5915
17890TIP3    H175161   1.988   0.417   2.843  1.8556 -0.3516  0.7693
17890TIP3    H275162   2.119   0.436   2.769  1.4863 -1.9747 -0.3306
17891TIP3   OH275163   3.197   2.427  14.522 -0.4192  0.2205  0.3085
17891TIP3    H175164   3.268   2.425  14.457  0.0731  3.6293  0.6787
17891TIP3    H275165   3.122   2.458  14.473 -0.5152  1.0224  0.9679
17892TIP3   OH275166   0.719   5.022   5.944  0.2479  0.1209  0.1063
17892TIP3    H175167   0.627   4.998   5.949  0.2271 -0.0798 -1.0918
17892TIP3    H275168   0.745   5.002   5.854  1.6663 -0.5494  0.6362
17893TIP3   OH275169   3.438   3.894  12.518 -0.6113 -0.2315  0.3430
17893TIP3    H175170   3.353   3.881  12.560 -1.1783  1.4162 -0.2521
17893TIP3    H275171   3.456   3.811  12.474 -1.3558 -0.9842  1.4414
17894TIP3   OH275172   2.568   4.997   5.568  0.1257  0.0926  0.0688
17894TIP3    H175173   2.486   4.958   5.596 -0.6726  3.3061  2.5947
17894TIP3    H275174   2.629   4.923   5.560 -2.6009 -2.1621 -0.4818
17895TIP3   OH275175   4.125   6.294   2.010 -0.3013  0.2171  0.3266
17895TIP3    H175176   4.111   6.243   1.930 -1.7381  0.9341  0.1091
17895TIP3    H275177   4.220   6.299   2.018 -0.1321 -1.5240 -0.2694
17896TIP3   OH275178   3.479   4.002  14.432  0.6201  0.4019 -0.0599
17896TIP3    H175179   3.421   3.941  14.478  1.2598 -0.5332 -0.4742
17896TIP3    H275180   3.472   4.084  14.482 -0.8166  0.2244  0.0656
17897TIP3   OH275181   1.933   3.426   1.555  0.2038  0.2529 -0.2720
17897TIP3    H175182   1.948   3.419   1.649  0.7352  0.9022 -0.3071
17897TIP3    H275183   1.839   3.441   1.547 -0.3533 -2.7699 -0.0040
17898TIP3   OH275184   0.578   3.073   0.304  0.1645  0.1701 -0.0144
17898TIP3    H175185   0.526   3.134   0.356 -0.2031  0.6229 -0.8902
17898TIP3    H275186   0.539   2.988   0.320 -1.4157  0.6210 -1.3190
17899TIP3   OH275187   3.682   6.192   4.929 -0.8105 -0.0213 -0.2030
17899TIP3    H175188   3.660   6.257   4.996 -0.2772  0.2763 -0.3167
17899TIP3    H275189   3.602   6.184   4.877 -2.1698 -2.3232  2.1432
17900TIP3   OH275190   0.333   4.212   7.208 -0.3817 -0.0878 -0.1639
17900TIP3    H175191   0.274   4.146   7.243  0.7683 -0.6212  0.8323
17900TIP3    H275192   0.322   4.207   7.113 -1.8847 -0.1981  0.0071
17901TIP3   OH275193   0.733   0.637   1.108 -0.2091 -0.8938  0.2944
17901TIP3    H175194   0.740   0.572   1.177  3.6349 -3.8160 -2.6409
17901TIP3    H275195   0.808   0.695   1.121 -1.1471  0.3693  0.2732
17902TIP3   OH275196   4.089   6.130   1.766  0.0760  0.5786 -0.6600
17902TIP3    H175197   3.998   6.135   1.736 -0.0191  1.9168 -0.2190
17902TIP3    H275198   4.134   6.197   1.714  0.8465 -0.1876 -0.9831
17903TIP3   OH275199   3.906   6.466  13.242  0.2646 -0.1468 -0.6547
17903TIP3    H175200   3.999   6.465  13.262  0.1963  0.0974 -0.3135
17903TIP3    H275201   3.864   6.484  13.326 -0.1099 -0.6921 -0.7156
17904TIP3   OH275202   0.333   5.011   2.495  0.0549  0.1199 -0.1732
17904TIP3    H175203   0.346   5.103   2.471  0.4965 -0.2853 -1.5519
17904TIP3    H275204   0.252   4.986   2.450  0.3619 -0.3764 -0.4578
17905TIP3   OH275205   2.093   1.608   2.682 -0.1038 -0.9160  0.1479
17905TIP3    H175206   2.144   1.654   2.749 -3.1785 -1.0258  2.6573
17905TIP3    H275207   2.116   1.516   2.693  1.1836 -0.6816 -0.5440
17906TIP3   OH275208   2.050   3.558   0.024  0.7285 -0.2305 -0.0027
17906TIP3    H175209   2.085   3.526   0.107  1.9846  0.5803 -0.1945
17906TIP3    H275210   2.030   3.479  -0.026  0.9429 -0.7171  0.6726
17907TIP3   OH275211   0.285   5.726  14.054 -0.2455 -0.2541  0.5343
17907TIP3    H175212   0.218   5.749  13.990 -0.5270  0.6632  1.1551
17907TIP3    H275213   0.274   5.632  14.067 -0.1732 -0.4458 -0.7664
17908TIP3   OH275214   1.611   0.149  12.076  0.2231 -0.0163 -0.2848
17908TIP3    H175215   1.644   0.132  12.164 -1.7112 -1.2996  0.2138
17908TIP3    H275216   1.687   0.136  12.019  0.8765 -1.8374  0.9471
17909TIP3   OH275217   6.695   4.002   1.172  0.3940  0.4133 -0.0978
17909TIP3    H175218   6.633   3.929   1.172 -0.3192  1.0055 -0.3904
17909TIP3    H275219   6.641   4.079   1.153  0.9975  1.1390  1.0855
17910TIP3   OH275220   1.358   0.536   4.283 -0.0864 -0.1181 -0.1697
17910TIP3    H175221   1.320   0.452   4.311  0.4024 -0.6371 -1.0258
17910TIP3    H275222   1.397   0.516   4.198  2.5501  0.2827  0.9129
17911TIP3   OH275223   3.891   3.278   4.194  0.2673  0.0306  0.2008
17911TIP3    H175224   3.905   3.336   4.119 -0.8344  1.5232  1.1125
17911TIP3    H275225   3.858   3.197   4.155  2.4777 -0.2676 -1.1557
17912TIP3   OH275226   4.433   5.598   5.754  0.7097 -0.3626 -0.6057
17912TIP3    H175227   4.396   5.648   5.827  0.8754 -0.7193 -0.2805
17912TIP3    H275228   4.357   5.565   5.706  0.5915  0.5051 -1.0343
17913TIP3   OH275229   3.094   5.504  16.041  0.5966 -0.2310  0.2056
17913TIP3    H175230   3.130   5.426  16.083 -0.5017 -0.5765  0.5136
17913TIP3    H275231   3.035   5.470  15.974 -0.1392  0.3311  0.5546
17914TIP3   OH275232   3.449   3.621   0.028  0.4356 -0.5011  0.4425
17914TIP3    H175233   3.367   3.626  -0.019 -0.2595 -2.6947  1.3365
17914TIP3    H275234   3.502   3.693  -0.006 -0.9443 -0.5626 -1.8879
17915TIP3   OH275235   4.380   1.355   4.979 -0.1132  0.3946 -0.1160
17915TIP3    H175236   4.402   1.350   5.071  2.1926 -0.2390 -0.6780
17915TIP3    H275237   4.333   1.273   4.961  0.5031 -0.0443  0.2370
17916TIP3   OH275238   5.138   2.257   1.773 -0.2172  0.1275  0.0246
17916TIP3    H175239   5.147   2.271   1.868  0.2371 -0.9633  0.1505
17916TIP3    H275240   5.179   2.334   1.734  1.3500 -0.3398  0.7053
17917TIP3   OH275241   4.093   6.072  12.379  0.1389 -0.2444 -0.3679
17917TIP3    H175242   4.111   6.046  12.469 -0.8074 -0.4861 -0.2403
17917TIP3    H275243   4.099   6.168  12.380 -1.1170 -0.1586  0.2521
17918TIP3   OH275244   4.251   5.985  12.129  0.1191 -0.1194  0.7253
17918TIP3    H175245   4.345   5.973  12.140  0.8155  4.3423  0.6711
17918TIP3    H275246   4.216   5.990  12.218  0.4911  1.6016  0.7912
17919TIP3   OH275247   1.488   4.903   3.031 -0.0329  0.2295 -0.5241
17919TIP3    H175248   1.492   4.966   2.960  0.9930  2.6394  1.5881
17919TIP3    H275249   1.570   4.916   3.079  0.1101 -2.6016  0.0637
17920TIP3   OH275250   5.311   4.789  13.058 -0.0747 -0.4310  0.3838
17920TIP3    H175251   5.404   4.808  13.055 -0.2052  0.1885  0.3130
17920TIP3    H275252   5.303   4.703  13.016  0.5795 -0.9468  1.3147
17921TIP3   OH275253   3.666   4.700  13.194 -0.6072 -0.4753  0.2858
17921TIP3    H175254   3.704   4.740  13.116 -3.8012  2.5478  0.1616
17921TIP3    H275255   3.735   4.704  13.260  1.2724 -0.7270 -1.6233
17922TIP3   OH275256   4.840   3.167  13.352  0.7803 -0.1199 -0.3601
17922TIP3    H175257   4.747   3.167  13.377  1.3704 -0.8085  1.9388
17922TIP3    H275258   4.855   3.080  13.316  0.7207 -0.2821  0.0042
17923TIP3   OH275259   5.266   3.894  14.656  0.6481  0.2461 -0.8297
17923TIP3    H175260   5.244   3.850  14.574  1.3818 -1.1037 -0.3259
17923TIP3    H275261   5.359   3.875  14.669  0.8319  1.4679 -0.3008
17924TIP3   OH275262   5.480   4.680   1.101  0.1249  0.1404 -0.1060
17924TIP3    H175263   5.533   4.610   1.063  1.6465  0.9512  0.4420
17924TIP3    H275264   5.489   4.753   1.040  0.0551  0.4394  0.2349
17925TIP3   OH275265   5.481   4.701   1.691 -0.0232  0.0634 -0.3273
17925TIP3    H175266   5.416   4.640   1.727 -0.2874  0.6367  0.1933
17925TIP3    H275267   5.491   4.675   1.600 -0.3765 -0.5489 -0.1944
17926TIP3   OH275268   1.600   2.495  11.136  0.5384  0.6887 -0.0521
17926TIP3    H175269   1.604   2.410  11.092 -0.0773  0.0935  1.0266
17926TIP3    H275270   1.663   2.549  11.088 -0.2680  0.1235 -1.7918
17927TIP3   OH275271   2.984   4.219   1.674 -0.1779 -0.5032  0.1665
17927TIP3    H175272   2.985   4.137   1.626 -1.5076  0.3364 -1.3053
17927TIP3    H275273   3.004   4.286   1.609  0.5160  0.4035  1.2783
17928TIP3   OH275274   1.896   6.423   4.277 -0.0928 -0.1265  0.2437
17928TIP3    H175275   1.901   6.337   4.319  0.4309 -0.1420  0.1576
17928TIP3    H275276   1.985   6.458   4.283  0.1626 -0.4287 -1.4636
17929TIP3   OH275277   1.070   5.781   0.925  0.4323 -0.9690 -0.2189
17929TIP3    H175278   1.025   5.739   0.999 -0.0431  1.9960  1.2879
17929TIP3    H275279   1.001   5.794   0.860 -0.2248  0.6168  0.7600
17930TIP3   OH275280   4.926   1.857  13.691 -0.1918 -0.2245 -0.2519
17930TIP3    H175281   4.843   1.853  13.645  0.0585 -0.7782 -0.6656
17930TIP3    H275282   4.988   1.893  13.628  0.0655 -0.6224 -0.2319
17931TIP3   OH275283   2.081   1.010  15.808  0.4727  0.1616 -0.3515
17931TIP3    H175284   2.030   1.074  15.758 -0.2297  0.8242  1.1829
17931TIP3    H275285   2.037   1.005  15.892  3.2050  1.1127  1.1955
17932TIP3   OH275286   6.766   4.421  13.899 -0.4372 -0.4895  0.6911
17932TIP3    H175287   6.816   4.359  13.847 -2.1510 -0.4140 -1.1034
17932TIP3    H275288   6.680   4.381  13.907 -0.8405  0.5456  1.5668
17933TIP3   OH275289   3.422   3.054  15.193 -0.5628 -0.3696  0.3303
17933TIP3    H175290   3.384   3.135  15.158 -1.8127 -1.0055  0.1674
17933TIP3    H275291   3.512   3.077  15.214 -0.2003  0.4142 -1.9397
17934TIP3   OH275292   1.608   3.048   3.375  0.3054  0.1185 -0.1038
17934TIP3    H175293   1.659   3.116   3.417  0.6362 -0.8093  1.0250
17934TIP3    H275294   1.583   3.085   3.290  2.2754  0.8431 -0.4000
17935TIP3   OH275295   2.166   4.155   2.284  0.1787 -0.2676 -0.4750
17935TIP3    H175296   2.192   4.138   2.193  0.6813  0.6338 -0.5067
17935TIP3    H275297   2.235   4.115   2.336  0.5253  0.2711 -0.5172
17936TIP3   OH275298   2.898   1.222   5.658  0.5396  0.1204  0.0895
17936TIP3    H175299   2.839   1.173   5.715  0.8516 -0.1047  0.2223
17936TIP3    H275300   2.848   1.234   5.577  0.5823 -0.7241 -0.0718
17937TIP3   OH275301   0.052   6.463   6.163 -0.2213  0.3969  0.0056
17937TIP3    H175302   0.019   6.445   6.251  0.2328  2.8659  0.7280
17937TIP3    H275303  -0.024   6.453   6.106 -0.7554 -0.1832  0.8087
17938TIP3   OH275304   2.333   4.749   2.441  0.3196  0.6244  0.4838
17938TIP3    H175305   2.264   4.757   2.375  2.5274 -0.7288 -2.0752
17938TIP3    H275306   2.340   4.655   2.457  0.3212  0.8826  2.1658
17939TIP3   OH275307   3.897   6.133   3.067  0.3178 -0.0041  0.1012
17939TIP3    H175308   3.933   6.196   3.128 -2.5303  1.4249  0.4058
17939TIP3    H275309   3.832   6.183   3.016 -2.4075 -2.7309  0.7243
17940TIP3   OH275310   5.306   2.605  13.135 -0.1638 -0.1703 -0.3469
17940TIP3    H175311   5.391   2.648  13.144  0.2392 -1.2958  1.8444
17940TIP3    H275312   5.327   2.511  13.138 -1.5550 -0.4502  1.4140
17941TIP3   OH275313   2.072   0.643  11.519  0.7818  1.1927  0.2412
17941TIP3    H175314   2.068   0.571  11.456  1.6617  0.4386  1.0267
17941TIP3    H275315   2.092   0.721  11.466 -0.5754  0.9360 -0.6553
17942TIP3   OH275316   6.528   5.901   4.304 -0.6125  0.2826  0.1004
17942TIP3    H175317   6.559   5.927   4.391 -1.3670  0.6558  0.2660
17942TIP3    H275318   6.606   5.873   4.258 -0.0901  0.8190  0.6490
17943TIP3   OH275319   6.236   4.241  14.955 -0.2861 -0.0995  0.4103
17943TIP3    H175320   6.154   4.286  14.934 -1.4147 -1.1076  2.5468
17943TIP3    H275321   6.276   4.225  14.870 -2.6122 -0.1630 -0.7106
17944TIP3   OH275322   2.257   3.175  15.687  0.3263 -0.3708  0.3046
17944TIP3    H175323   2.227   3.161  15.777  0.8316 -0.5679  0.4423
17944TIP3    H275324   2.178   3.168  15.634  0.0765 -0.5592  0.7012
17945TIP3   OH275325   5.987   5.524   3.446  0.2144  1.2772  0.2351
17945TIP3    H175326   5.940   5.578   3.382  2.1006  2.2497 -0.3635
17945TIP3    H275327   6.063   5.491   3.398 -0.5151 -1.3184  0.8228
17946TIP3   OH275328   4.570   2.842  13.568  0.3851 -0.7263  0.5375
17946TIP3    H175329   4.589   2.796  13.650 -0.4103 -1.2154  0.4599
17946TIP3    H275330   4.476   2.829  13.556  0.2539  0.4970  0.2416
17947TIP3   OH275331   5.490   4.059  12.535  0.0754  0.1942 -0.0493
17947TIP3    H175332   5.483   4.003  12.612  1.3960  2.1123  1.5421
17947TIP3    H275333   5.402   4.092  12.521 -0.1582 -0.1017  0.7099
17948TIP3   OH275334   2.772   3.836   2.675  0.5555 -0.0877 -0.4975
17948TIP3    H175335   2.812   3.898   2.614 -0.1403 -0.4074 -1.2836
17948TIP3    H275336   2.745   3.890   2.750 -1.6301  0.8554 -1.9272
17949TIP3   OH275337   3.625   2.040   3.727 -0.2225 -0.0723 -0.4085
17949TIP3    H175338   3.574   2.028   3.647 -0.5199 -0.0807 -0.2231
17949TIP3    H275339   3.565   2.087   3.786 -0.9582 -2.3166  0.7218
17950TIP3   OH275340   5.859   5.095   5.527 -0.6672  0.2818  0.0261
17950TIP3    H175341   5.859   5.010   5.572  1.1430  0.6954  0.8743
17950TIP3    H275342   5.827   5.156   5.593  1.4707  0.8047  0.6136
17951TIP3   OH275343   2.098   6.495   3.656 -0.4062  0.7557 -0.2472
17951TIP3    H175344   2.030   6.562   3.667  0.9991  1.8949  1.6985
17951TIP3    H275345   2.067   6.443   3.581 -2.2079  2.7124 -0.9380
17952TIP3   OH275346   0.471   3.053   1.709 -0.0509  0.3048 -0.2208
17952TIP3    H175347   0.538   3.044   1.777  0.1457 -0.4601 -0.5043
17952TIP3    H275348   0.517   3.030   1.628 -0.5060  0.3568 -0.4914
17953TIP3   OH275349   2.207   5.538  14.091 -0.4139 -0.0266 -0.1694
17953TIP3    H175350   2.135   5.479  14.069 -0.6403  0.7454 -1.6137
17953TIP3    H275351   2.190   5.566  14.180 -1.4520 -0.5020 -0.2141
17954TIP3   OH275352   1.577   1.236   1.585 -0.0541  0.1228 -1.2044
17954TIP3    H175353   1.600   1.309   1.526 -0.1373 -0.1941 -1.6318
17954TIP3    H275354   1.483   1.245   1.598  0.1339  0.8343 -0.2448
17955TIP3   OH275355   4.121   5.579  14.113 -0.8357  0.0660  0.0010
17955TIP3    H175356   4.080   5.599  14.197  0.8800 -1.6739  1.3190
17955TIP3    H275357   4.194   5.641  14.106  2.1214 -3.0136  2.2594
17956TIP3   OH275358   1.160   5.199   4.334  0.0308 -0.0341 -0.0303
17956TIP3    H175359   1.145   5.105   4.320  2.4429 -0.2666 -1.4699
17956TIP3    H275360   1.085   5.228   4.386 -0.0684 -3.0342  1.6336
17957TIP3   OH275361   5.622   5.919  11.068  0.1688  0.3009 -0.2645
17957TIP3    H175362   5.599   5.957  11.153 -0.4477 -1.9169  0.5741
17957TIP3    H275363   5.610   5.825  11.079  0.2831 -0.0377 -2.7500
17958TIP3   OH275364   0.712   4.871  15.635 -0.5504 -0.2905  0.9596
17958TIP3    H175365   0.629   4.868  15.681 -0.8549  1.6491  0.6117
17958TIP3    H275366   0.769   4.923  15.692 -0.4881  0.8629 -0.1228
17959TIP3   OH275367   0.570   6.240   0.129 -0.5358  0.5180 -0.3547
17959TIP3    H175368   0.514   6.180   0.177  0.6594  0.8648  1.5165
17959TIP3    H275369   0.582   6.199   0.043 -3.2832  0.2385 -0.6398
17960TIP3   OH275370   0.998   5.259  11.627  0.1864  0.1527 -0.1250
17960TIP3    H175371   1.071   5.302  11.582 -0.8852  1.7422 -0.3751
17960TIP3    H275372   0.941   5.229  11.557 -0.1790  0.3153  0.1001
17961TIP3   OH275373   3.388   6.067   1.145 -0.0321 -0.1305 -0.5683
17961TIP3    H175374   3.305   6.089   1.188 -0.3219 -0.7866 -0.7757
17961TIP3    H275375   3.389   6.123   1.067 -1.1911 -1.4543 -1.5703
17962TIP3   OH275376   4.259   2.792   0.344 -0.4486 -0.1825  0.2671
17962TIP3    H175377   4.340   2.823   0.384  0.3336  1.5753 -2.5899
17962TIP3    H275378   4.278   2.701   0.320  0.0724 -0.3166  1.1543
17963TIP3   OH275379   2.914   4.352  16.537 -0.4855  0.2184 -0.7197
17963TIP3    H175380   2.994   4.350  16.588 -0.4215 -1.2869 -0.8339
17963TIP3    H275381   2.868   4.430  16.566 -0.6903 -0.8806  2.0219
17964TIP3   OH275382   4.351   4.478   5.388 -0.3818 -0.1294 -0.0263
17964TIP3    H175383   4.405   4.479   5.309  0.8160 -4.0080  0.6683
17964TIP3    H275384   4.402   4.527   5.452 -0.8721  2.1227 -1.3023
17965TIP3   OH275385   3.916   6.546   2.948 -0.5141  0.1421  0.0522
17965TIP3    H175386   3.973   6.580   3.016  0.7042  0.8345 -1.2884
17965TIP3    H275387   3.929   6.605   2.874 -0.2720 -1.7585 -1.4596
17966TIP3   OH275388   5.378   2.305   2.373 -0.5399  0.4285  0.0842
17966TIP3    H175389   5.437   2.321   2.300 -0.4027  0.8613  0.2899
17966TIP3    H275390   5.434   2.300   2.450 -0.5813 -1.1043  0.0130
17967TIP3   OH275391   6.369   0.768  13.612  0.2345  0.3784 -0.0109
17967TIP3    H175392   6.312   0.709  13.563  2.4643 -1.4327 -0.5107
17967TIP3    H275393   6.451   0.770  13.562  1.1668  1.6816  1.5082
17968TIP3   OH275394   6.441   1.442  15.818 -0.1121  0.2134  0.3685
17968TIP3    H175395   6.436   1.367  15.877 -0.3223 -1.5016 -1.7514
17968TIP3    H275396   6.510   1.418  15.755 -1.7177  0.7872 -1.6531
17969TIP3   OH275397   5.773   0.490   5.235  0.5907  0.2179 -0.2509
17969TIP3    H175398   5.780   0.449   5.149  1.5222  1.3014 -0.6991
17969TIP3    H275399   5.801   0.580   5.221  0.3008  0.5298  1.0985
17970TIP3   OH275400   0.578   6.233   1.735  0.5995  0.2035  0.0384
17970TIP3    H175401   0.507   6.171   1.748  1.0644 -0.1554  0.8571
17970TIP3    H275402   0.536   6.310   1.696 -0.2575  0.0564  0.6719
17971TIP3   OH275403   5.593   2.988  15.619 -0.1909  0.3504 -0.1674
17971TIP3    H175404   5.591   3.018  15.710  0.7225 -1.7042  0.5748
17971TIP3    H275405   5.684   2.961  15.605 -0.6575 -0.7391 -1.2007
17972TIP3   OH275406   5.127   0.547  12.454  0.3730  0.1227  0.4559
17972TIP3    H175407   5.185   0.472  12.450  1.3557  0.8530  0.8750
17972TIP3    H275408   5.057   0.527  12.392  0.3375 -1.3677  0.9477
17973TIP3   OH275409   2.093   2.896   6.291 -0.5097  0.0215 -0.3701
17973TIP3    H175410   2.059   2.984   6.304  1.8525  0.7001  1.5374
17973TIP3    H275411   2.184   2.900   6.320 -0.4703 -3.1345  0.2026
17974TIP3   OH275412   0.611   2.603   5.032  0.0090 -0.4117 -0.4278
17974TIP3    H175413   0.662   2.633   4.957  1.9294 -0.3987  0.8425
17974TIP3    H275414   0.661   2.631   5.108 -2.5052  0.6319  0.9087
17975TIP3   OH275415   2.066   3.284   2.551  0.1704  0.1776  0.2925
17975TIP3    H175416   2.123   3.341   2.602 -0.7907  2.0852 -0.7334
17975TIP3    H275417   2.126   3.222   2.508  1.3061  1.0479  0.5964
17976TIP3   OH275418   4.913   0.992   3.479  0.0263  0.2811  0.2932
17976TIP3    H175419   4.982   0.954   3.425  2.0628  1.2201  2.1404
17976TIP3    H275420   4.925   1.087   3.470 -0.8908  0.4519  0.8015
17977TIP3   OH275421   0.206   3.375  14.870  0.3441  0.5973 -0.3496
17977TIP3    H175422   0.254   3.292  14.870  1.2476  1.0751  1.6816
17977TIP3    H275423   0.144   3.368  14.798  1.2193 -1.3751 -0.9241
17978TIP3   OH275424   2.655   1.084  15.336 -0.2051  0.2943 -0.3236
17978TIP3    H175425   2.572   1.040  15.355 -1.4234  2.4926 -0.4987
17978TIP3    H275426   2.646   1.115  15.246  1.2591 -0.4080 -0.7338
17979TIP3   OH275427   4.269   5.710  10.526  0.3971 -0.0004 -0.5255
17979TIP3    H175428   4.304   5.638  10.577 -0.7981 -0.5079 -0.4100
17979TIP3    H275429   4.287   5.687  10.435 -0.7296 -0.8551 -0.5385
17980TIP3   OH275430   2.894   1.006  14.910 -0.1896  0.5539  0.5438
17980TIP3    H175431   2.948   0.973  14.839 -0.3750  1.0726  0.1563
17980TIP3    H275432   2.949   0.997  14.988  0.1030  0.2078  0.2960
17981TIP3   OH275433   1.661   5.960   4.120 -0.1933  0.4346  0.4654
17981TIP3    H175434   1.748   5.924   4.138 -1.5701 -2.8163  0.8028
17981TIP3    H275435   1.634   5.999   4.203  1.6571  3.1767 -0.1340
17982TIP3   OH275436   0.843   2.872   3.249 -0.0006 -0.0891 -0.3835
17982TIP3    H175437   0.861   2.803   3.185  1.1864  0.9748 -1.2112
17982TIP3    H275438   0.748   2.882   3.247 -0.3317 -2.4917  0.5951
17983TIP3   OH275439   4.466   6.181  11.934  0.0341 -0.1706  0.4260
17983TIP3    H175440   4.560   6.200  11.934 -0.2047  1.0783 -1.7096
17983TIP3    H275441   4.424   6.264  11.956 -0.6619 -0.1607 -0.8872
17984TIP3   OH275442   4.616   5.982  13.521  0.5689 -0.2742  0.2054
17984TIP3    H175443   4.622   5.904  13.467  1.7212 -0.0124 -0.0493
17984TIP3    H275444   4.639   6.054  13.463 -0.2641  0.2400  0.4970
17985TIP3   OH275445   3.093   5.855  15.975 -0.2110  0.1869  0.4844
17985TIP3    H175446   3.087   5.811  16.060 -0.2651  0.6973  0.7520
17985TIP3    H275447   3.004   5.885  15.958  0.1784  1.8598  1.2217
17986TIP3   OH275448   5.809   4.100  12.104 -0.1477 -0.1569 -0.6585
17986TIP3    H175449   5.801   4.066  12.193  1.4850 -0.2267 -0.5249
17986TIP3    H275450   5.721   4.131  12.082 -0.8757 -1.3898  0.4662
17987TIP3   OH275451   0.552   4.455   0.045 -0.4021 -0.2646  0.1537
17987TIP3    H175452   0.551   4.540   0.002 -2.0776 -0.2978  0.1000
17987TIP3    H275453   0.547   4.392  -0.027  0.7488 -0.4097  0.1966
17988TIP3   OH275454   4.968   6.324   3.764 -0.4615 -0.0974 -0.2422
17988TIP3    H175455   4.905   6.396   3.763 -2.1460 -1.5168  1.2569
17988TIP3    H275456   5.044   6.359   3.811 -1.8867  0.2239  1.8735
17989TIP3   OH275457   4.576   2.205  12.942 -0.5547 -0.1118 -0.1611
17989TIP3    H175458   4.587   2.281  12.999 -1.1317 -0.0324 -0.1591
17989TIP3    H275459   4.549   2.135  13.001 -0.4359 -0.2110 -0.2275
17990TIP3   OH275460   3.567   4.005   1.099 -0.0464  0.0535 -0.5479
17990TIP3    H175461   3.584   3.946   1.026  0.1623 -0.4867 -0.0755
17990TIP3    H275462   3.639   4.068   1.097  0.6032 -0.6605 -0.1135
17991TIP3   OH275463   1.084   4.772   5.453 -0.1959 -0.0480 -0.1528
17991TIP3    H175464   1.056   4.688   5.489  0.0872  0.6509  1.7356
17991TIP3    H275465   1.010   4.802   5.401 -0.9056 -0.7247  0.4676
17992TIP3   OH275466   4.654   0.202   2.310  1.1758  0.0634  0.2401
17992TIP3    H175467   4.667   0.110   2.285  0.9427  0.0229  0.2669
17992TIP3    H275468   4.682   0.206   2.401  1.8174  0.1634  0.0457
17993TIP3   OH275469   2.788   2.831   1.924 -0.3586  0.4366 -0.7235
17993TIP3    H175470   2.814   2.840   1.833  0.2662 -0.2678 -0.6185
17993TIP3    H275471   2.741   2.748   1.928 -1.9288  1.2916 -0.7403
17994TIP3   OH275472   3.253   6.440   2.738 -0.0520  0.3965  0.0852
17994TIP3    H175473   3.286   6.351   2.751  0.4747  0.2540 -2.0965
17994TIP3    H275474   3.308   6.494   2.795  0.7650 -0.4586  0.1235
17995TIP3   OH275475   0.744   1.915  13.744  0.0225 -0.5264  0.2208
17995TIP3    H175476   0.690   1.979  13.789  0.7409 -0.3695  0.8734
17995TIP3    H275477   0.731   1.934  13.651 -0.9361 -0.4165  0.3740
17996TIP3   OH275478   0.566   4.432  16.484  0.8163 -0.4762  0.0776
17996TIP3    H175479   0.631   4.501  16.466 -0.1869 -0.1407 -2.5493
17996TIP3    H275480   0.525   4.416  16.399 -1.2645 -1.9958  1.3314
17997TIP3   OH275481   4.114   4.119  15.860 -0.1349  0.3829 -0.2656
17997TIP3    H175482   4.029   4.159  15.843 -0.9039 -1.0971  0.0275
17997TIP3    H275483   4.095   4.048  15.921  1.3120  0.0530 -0.1896
17998TIP3   OH275484   0.856   2.247   5.554  0.0192 -0.5148 -0.8084
17998TIP3    H175485   0.923   2.312   5.573 -1.1411  0.2225  0.9929
17998TIP3    H275486   0.792   2.293   5.500 -0.5907 -0.2531  0.1159
17999TIP3   OH275487   4.016   4.920  13.435 -0.3636 -0.0747  0.2839
17999TIP3    H175488   3.995   4.828  13.453  1.3533 -0.2499  1.5278
17999TIP3    H275489   4.040   4.956  13.520 -1.0737  1.5555 -0.1858
18000TIP3   OH275490   2.852   2.195  14.518 -0.1250  0.1054  0.1632
18000TIP3    H175491   2.930   2.174  14.570  0.8750 -0.3396 -1.4997
18000TIP3    H275492   2.805   2.260  14.571  1.8601  1.1172  0.7424
18001TIP3   OH275493   5.238   6.653  11.904 -0.7134  0.3418  0.0588
18001TIP3    H175494   5.281   6.728  11.862 -0.3153 -0.8050 -1.6781
18001TIP3    H275495   5.308   6.612  11.956 -0.5211  0.3025 -0.2259
18002TIP3   OH275496   1.125   2.312   0.411 -0.1932  0.4627  0.0579
18002TIP3    H175497   1.164   2.289   0.495  0.7634 -0.8204 -0.7278
18002TIP3    H275498   1.108   2.228   0.368 -2.0000  1.0580 -0.4378
18003TIP3   OH275499   1.833   2.001  14.620 -0.5087  0.1881  0.1309
18003TIP3    H175500   1.780   2.054  14.680 -0.1469 -2.4966  2.9648
18003TIP3    H275501   1.909   1.976  14.672  0.2635 -1.4573 -1.7580
18004TIP3   OH275502   5.157   3.199  12.720  0.4832 -0.4190  0.4025
18004TIP3    H175503   5.167   3.171  12.811  2.8197  0.3977  0.4115
18004TIP3    H275504   5.105   3.129  12.680  0.6540 -1.4970  2.0092
18005TIP3   OH275505   3.281   1.515  11.824 -0.3511  0.2799  0.4137
18005TIP3    H175506   3.356   1.560  11.864  1.3530 -0.3972 -1.9105
18005TIP3    H275507   3.282   1.427  11.862  0.1424  0.2162  0.2558
18006TIP3   OH275508   5.250   6.024   5.679  0.6656  0.2594 -0.1052
18006TIP3    H175509   5.172   6.026   5.735  0.5011 -1.9307 -0.2178
18006TIP3    H275510   5.296   5.944   5.705  1.3207 -0.0513 -2.1182
18007TIP3   OH275511   6.621   5.802  12.717  0.3367  0.1725 -0.2032
18007TIP3    H175512   6.711   5.773  12.734  0.7639  0.8334 -1.2897
18007TIP3    H275513   6.623   5.896  12.732 -0.1436  0.2104 -0.3835
18008TIP3   OH275514   1.799   5.709   5.575 -0.2126 -0.0734 -0.5170
18008TIP3    H175515   1.894   5.712   5.563 -0.1944 -0.5272 -0.4856
18008TIP3    H275516   1.769   5.642   5.514 -0.6007  0.5852 -1.0546
18009TIP3   OH275517   6.709   6.421   6.410  0.2936  0.5845 -0.1437
18009TIP3    H175518   6.636   6.417   6.348  1.3676  0.1071 -1.4013
18009TIP3    H275519   6.679   6.370   6.485 -1.5635  2.3268  0.3436
18010TIP3   OH275520   1.498   1.402  12.503  0.0136  0.1123 -0.0035
18010TIP3    H175521   1.517   1.451  12.423  2.6922 -1.1866 -0.2040
18010TIP3    H275522   1.499   1.310  12.476 -0.5928 -0.2655  1.2287
18011TIP3   OH275523   1.102   0.143   3.833  0.2824  0.2525 -0.4500
18011TIP3    H175524   1.105   0.239   3.831 -2.6914  0.3861 -0.2478
18011TIP3    H275525   1.154   0.120   3.911 -0.2282  1.7816  0.3706
18012TIP3   OH275526   6.477   2.566   3.637 -0.6105 -0.1737  0.4985
18012TIP3    H175527   6.402   2.523   3.595 -0.1460 -0.4782 -0.0326
18012TIP3    H275528   6.439   2.615   3.710 -1.4807  0.6385 -0.4866
18013TIP3   OH275529   4.841   5.492   3.729 -0.3719  0.0443 -0.2170
18013TIP3    H175530   4.865   5.516   3.639 -1.2206  0.4073 -0.3551
18013TIP3    H275531   4.873   5.402   3.739  3.3790  1.3489  0.5016
18014TIP3   OH275532   2.846   6.656   5.912  0.2785 -0.2837  0.3036
18014TIP3    H175533   2.937   6.677   5.890  0.1530 -0.1826 -0.1214
18014TIP3    H275534   2.797   6.732   5.882  0.0608 -0.3185  0.5778
18015TIP3   OH275535   2.082   2.431  15.405 -0.0755 -0.2385 -0.6938
18015TIP3    H175536   1.990   2.459  15.407 -0.1397 -0.4732 -0.3762
18015TIP3    H275537   2.083   2.349  15.455 -0.1240 -1.4944 -2.6956
18016TIP3   OH275538   6.605   0.311  13.634 -0.2274  0.1892  0.0674
18016TIP3    H175539   6.699   0.325  13.626 -0.4287  1.3204 -0.5209
18016TIP3    H275540   6.590   0.224  13.598  0.3008  0.9640 -2.1131
18017TIP3   OH275541   0.224   0.625  15.456  0.1523 -0.0064  0.2813
18017TIP3    H175542   0.236   0.542  15.409  1.7554  1.4822 -2.1082
18017TIP3    H275543   0.134   0.651  15.436  0.0860 -0.5120 -0.0997
18018TIP3   OH275544   2.429   1.382  14.635 -0.1100  0.2615  0.0797
18018TIP3    H175545   2.476   1.303  14.608 -1.6511  0.1409 -2.4625
18018TIP3    H275546   2.337   1.362  14.619 -0.4823  2.7338 -1.1183
18019TIP3   OH275547   5.160   4.986  13.546 -0.0223 -0.0299  0.1202
18019TIP3    H175548   5.078   4.939  13.530 -0.7028  0.6966  1.4122
18019TIP3    H275549   5.196   4.947  13.625  0.2480  0.5062  0.2624
18020TIP3   OH275550   4.069   5.598   1.692 -0.5260 -0.0078 -0.1093
18020TIP3    H175551   4.148   5.547   1.709 -0.1968  0.7832  0.7722
18020TIP3    H275552   4.101   5.685   1.669 -1.1466  0.3943  0.5400
18021TIP3   OH275553   3.855   5.730  10.668 -0.4390 -0.3231 -0.0433
18021TIP3    H175554   3.886   5.816  10.698  0.4620 -0.1719 -1.3694
18021TIP3    H275555   3.775   5.750  10.619  0.4082 -0.0891 -1.3628
18022TIP3   OH275556   0.153   5.019  15.131  0.1996 -0.2784  0.2099
18022TIP3    H175557   0.092   5.089  15.109 -0.1600 -1.1237 -1.5884
18022TIP3    H275558   0.101   4.959  15.185 -0.0148 -0.0598  0.2483
18023TIP3   OH275559   6.064   6.610  16.270 -0.5131 -0.4948  0.0646
18023TIP3    H175560   6.048   6.516  16.272 -0.8346 -0.5094 -2.1760
18023TIP3    H275561   6.117   6.624  16.191 -1.9638  1.4082 -0.6137
18024TIP3   OH275562   3.232   1.636  14.096  0.4835 -0.2222  0.2862
18024TIP3    H175563   3.286   1.562  14.067  0.0812 -0.4472  0.1065
18024TIP3    H275564   3.286   1.681  14.161  1.9353  1.0501 -1.7598
18025TIP3   OH275565   4.994   2.809   0.096 -0.2989 -0.5738 -0.0411
18025TIP3    H175566   4.924   2.747   0.117 -2.5497  1.3733 -1.4320
18025TIP3    H275567   5.041   2.821   0.178 -0.5968 -3.1407  0.5376
18026TIP3   OH275568   4.759   3.020  15.744 -0.3903 -0.4933 -0.3042
18026TIP3    H175569   4.729   3.036  15.833  0.4497 -0.6685  0.0178
18026TIP3    H275570   4.850   3.050  15.743 -0.4759 -0.2420 -1.1751
18027TIP3   OH275571   4.297   0.374   6.364 -0.0128 -0.5174  0.2171
18027TIP3    H175572   4.243   0.322   6.424 -3.1899  2.1801 -0.1298
18027TIP3    H275573   4.250   0.371   6.281  1.3237  0.4319 -0.5994
18028TIP3   OH275574   1.638   1.925   1.125  0.1893 -0.6447  0.3499
18028TIP3    H175575   1.567   1.989   1.124  1.5014  0.8639  1.1990
18028TIP3    H275576   1.622   1.871   1.203 -0.1314 -0.4338  0.4271
18029TIP3   OH275577   3.067   2.927   3.906  0.1672  0.2239  0.2973
18029TIP3    H175578   3.069   2.999   3.969 -1.7660  1.3081 -0.8333
18029TIP3    H275579   3.136   2.949   3.843 -1.0389  1.6097 -0.5652
18030TIP3   OH275580   2.801   4.843   5.532 -0.1830  0.5706 -0.2708
18030TIP3    H175581   2.838   4.826   5.446 -0.7263 -0.1547 -0.3660
18030TIP3    H275582   2.852   4.916   5.567  2.1380 -1.1833  0.0942
18031TIP3   OH275583   3.239   2.849   3.639 -0.4831 -0.0344  0.8682
18031TIP3    H175584   3.286   2.932   3.641  1.4188 -1.0597  0.1423
18031TIP3    H275585   3.299   2.786   3.677 -1.6276 -1.2181  0.7771
18032TIP3   OH275586   6.124   3.747  11.110 -0.2444  0.0218  0.5326
18032TIP3    H175587   6.086   3.706  11.032 -0.1929 -1.3826  1.2346
18032TIP3    H275588   6.191   3.807  11.076 -0.3096 -0.4858 -0.5002
18033TIP3   OH275589   0.385   5.993   2.070 -0.0785  0.6284  0.3716
18033TIP3    H175590   0.402   6.087   2.077  1.2152  0.2200  3.0406
18033TIP3    H275591   0.353   5.967   2.156 -2.5845 -1.0041 -0.9699
18034TIP3   OH275592   6.187   5.946  14.521  0.3921 -0.5852 -0.2479
18034TIP3    H175593   6.191   6.020  14.460  0.4974 -0.7472 -0.4428
18034TIP3    H275594   6.277   5.914  14.525  1.3770  2.4287  3.7775
18035TIP3   OH275595   1.872   5.639  15.132 -0.0330  0.2535  0.0287
18035TIP3    H175596   1.961   5.617  15.161 -0.2398  0.5600  0.8941
18035TIP3    H275597   1.854   5.725  15.170 -1.6640 -0.9267  2.0069
18036TIP3   OH275598   1.233   3.580  16.572  0.1935  0.2712  0.3721
18036TIP3    H175599   1.307   3.622  16.527 -1.0285  0.0070 -1.9293
18036TIP3    H275600   1.173   3.652  16.591 -0.3204  0.0510 -0.4371
18037TIP3   OH275601   6.068   4.449   2.290 -0.4349 -0.1000 -0.3513
18037TIP3    H175602   6.088   4.407   2.374 -0.7984  0.0814 -0.1709
18037TIP3    H275603   6.073   4.379   2.226  0.8429 -0.0439 -0.3168
18038TIP3   OH275604   4.736   4.010   6.378  0.4651 -0.1214  0.8173
18038TIP3    H175605   4.704   4.026   6.466 -1.4601 -0.3876  0.1924
18038TIP3    H275606   4.730   3.915   6.368 -2.2820  0.1428 -0.6384
18039TIP3   OH275607   4.800   2.242  15.298  0.1372 -0.1939 -0.5915
18039TIP3    H175608   4.852   2.194  15.234  0.4812  0.5274 -0.8542
18039TIP3    H275609   4.862   2.268  15.365 -0.4176 -1.9196  0.6208
18040TIP3   OH275610   6.179   2.780   3.006 -0.2979 -0.0519 -0.8395
18040TIP3    H175611   6.233   2.704   3.026  1.1054  1.4922  1.4487
18040TIP3    H275612   6.241   2.845   2.972 -0.9536  1.1618  0.2569
18041TIP3   OH275613   6.195   6.704  14.434  0.2374  0.2241  0.3216
18041TIP3    H175614   6.175   6.611  14.445 -1.6773  0.6933  0.8693
18041TIP3    H275615   6.146   6.730  14.356 -0.4349  1.1235  1.0356
18042TIP3   OH275616   0.702   3.057   5.492 -0.1081 -0.1826  0.2743
18042TIP3    H175617   0.732   3.057   5.401  1.1210 -0.4431  0.6650
18042TIP3    H275618   0.683   3.149   5.511  1.0970  0.0942  0.2117
18043TIP3   OH275619   1.058   6.143  14.337  0.1548  0.1295  0.4166
18043TIP3    H175620   0.999   6.076  14.372  0.6008  0.2709  1.4525
18043TIP3    H275621   1.000   6.208  14.297 -0.3898  0.1711  1.2581
18044TIP3   OH275622   4.769   0.484   2.440  1.2960  0.3876  0.2414
18044TIP3    H175623   4.861   0.476   2.416  1.4072 -0.0458  0.7948
18044TIP3    H275624   4.747   0.398   2.478  0.1982 -0.0974 -1.4720
18045TIP3   OH275625   1.403   3.313  11.851  0.0254  0.4652 -0.2065
18045TIP3    H175626   1.383   3.344  11.763  0.9310 -0.8790 -0.9049
18045TIP3    H275627   1.491   3.346  11.868  0.3949 -0.4185 -0.3621
18046TIP3   OH275628   6.356   3.445   2.353  0.1413 -0.3634 -0.3109
18046TIP3    H175629   6.363   3.400   2.437  1.0363  0.2974 -0.0165
18046TIP3    H275630   6.441   3.431   2.310 -0.2989 -0.6741 -1.0929
18047TIP3   OH275631   6.006   2.222   2.083  0.2096 -0.6152 -0.3252
18047TIP3    H175632   5.935   2.286   2.072  0.7261  0.2867  1.5322
18047TIP3    H275633   6.086   2.271   2.063  0.4049 -1.4180 -1.5963
18048TIP3   OH275634   3.811   0.433  13.668 -0.0361 -0.0714 -0.8243
18048TIP3    H175635   3.818   0.485  13.748  0.0353 -1.7037  0.2490
18048TIP3    H275636   3.725   0.454  13.633  0.5615  1.8714 -1.2065
18049TIP3   OH275637   4.399   3.292  14.797 -0.1924  0.3533 -0.3334
18049TIP3    H175638   4.358   3.226  14.741 -0.4792 -0.1784  0.4876
18049TIP3    H275639   4.434   3.242  14.871 -0.3737  1.1164  0.2749
18050TIP3   OH275640   4.169   0.741   1.607 -0.8016  0.0157 -0.3270
18050TIP3    H175641   4.126   0.675   1.662 -0.3198  0.2624  0.3576
18050TIP3    H275642   4.249   0.764   1.655 -0.4095  0.2926 -1.0967
18051TIP3   OH275643   5.505   2.331   4.138 -0.3388  0.2512  0.1590
18051TIP3    H175644   5.488   2.363   4.227 -1.9607 -0.8258  0.2579
18051TIP3    H275645   5.492   2.408   4.083  0.7908  0.9568  0.8468
18052TIP3   OH275646   5.840   2.217  14.816  0.0465 -0.2426  0.2215
18052TIP3    H175647   5.911   2.168  14.857 -0.3625 -0.7006  0.4058
18052TIP3    H275648   5.883   2.282  14.761  0.6179  1.1463  2.2586
18053TIP3   OH275649   3.760   3.111   0.295 -0.1506 -0.7391  0.1107
18053TIP3    H175650   3.785   3.203   0.290  0.5828 -0.9372  0.0332
18053TIP3    H275651   3.837   3.064   0.263  0.0333 -1.4494  1.5510
18054TIP3   OH275652   3.561   4.540   3.659 -0.2110 -0.4640  0.0863
18054TIP3    H175653   3.642   4.592   3.655 -0.2107 -0.4772 -0.1030
18054TIP3    H275654   3.581   4.469   3.720 -0.0790 -0.4642  0.0425
18055TIP3   OH275655   1.783   4.932   1.585 -0.1036  0.0880  0.3440
18055TIP3    H175656   1.736   5.008   1.552 -1.5619 -1.1442 -0.4388
18055TIP3    H275657   1.875   4.951   1.565 -0.6142  0.9012 -1.3435
18056TIP3   OH275658   1.520   1.762   0.606  0.7117 -0.1933 -0.3958
18056TIP3    H175659   1.469   1.817   0.546  0.6730  0.3999  0.1803
18056TIP3    H275660   1.566   1.702   0.549 -0.0666 -0.2557 -0.9753
18057TIP3   OH275661   4.314   2.547  11.560 -0.2841 -0.6516  0.3397
18057TIP3    H175662   4.406   2.573  11.552 -0.3783  0.1865  1.7740
18057TIP3    H275663   4.300   2.485  11.489  1.1748 -0.1688 -0.3782
18058TIP3   OH275664   1.229   3.861   0.086  0.1569 -0.0849 -0.5871
18058TIP3    H175665   1.280   3.829   0.161 -0.1936 -1.7722 -1.0523
18058TIP3    H275666   1.183   3.784   0.054 -2.1501  1.2783 -0.6171
18059TIP3   OH275667   3.735   6.087  11.377 -0.4311 -0.3273 -0.1346
18059TIP3    H175668   3.766   6.076  11.287 -0.6873  0.6809 -0.3504
18059TIP3    H275669   3.801   6.143  11.418 -0.2153 -0.9465  0.3581
18060TIP3   OH275670   0.266   4.892  10.386 -0.3836 -0.2815 -0.3218
18060TIP3    H175671   0.251   4.799  10.400 -0.1201 -0.2638  0.0826
18060TIP3    H275672   0.327   4.896  10.313  0.8257 -0.4702  0.6707
18061TIP3   OH275673   5.933   0.903   4.222  0.9327  0.3450  0.1549
18061TIP3    H175674   5.928   0.868   4.133 -2.1610 -0.2425  0.5165
18061TIP3    H275675   5.897   0.991   4.216  3.1772  1.3261  0.3812
18062TIP3   OH275676   4.976   3.710  15.557 -0.0811  0.4090 -0.1135
18062TIP3    H175677   5.044   3.766  15.519  0.1817 -0.2308 -0.5930
18062TIP3    H275678   4.930   3.767  15.619  0.1980  1.1502 -0.5795
18063TIP3   OH275679   2.110   3.793  15.257 -0.0692 -0.6905  0.0551
18063TIP3    H175680   2.133   3.726  15.321  0.0884  0.2425  1.0026
18063TIP3    H275681   2.086   3.869  15.310 -0.2366  0.0060 -0.9988
18064TIP3   OH275682   4.151   4.304  11.716 -0.3943 -0.5295 -0.2145
18064TIP3    H175683   4.110   4.319  11.631 -1.7376 -0.6302  0.4029
18064TIP3    H275684   4.243   4.326  11.703 -0.8919  0.9373 -1.2881
18065TIP3   OH275685   5.417   4.280   1.698 -0.0187 -0.0563 -0.3069
18065TIP3    H175686   5.375   4.351   1.748 -1.2924  0.4326 -2.0100
18065TIP3    H275687   5.423   4.208   1.760  2.4990  1.9311  1.8600
18066TIP3   OH275688   2.063   6.480  11.442  0.1115 -0.2925 -0.4395
18066TIP3    H175689   1.982   6.513  11.403  0.9254  0.4307 -1.5567
18066TIP3    H275690   2.130   6.543  11.416  0.5919  0.6291  2.7347
18067TIP3   OH275691   2.548   3.290  12.174  0.1751  0.2900  0.5784
18067TIP3    H175692   2.626   3.330  12.213 -0.1244  0.0497  1.4388
18067TIP3    H275693   2.577   3.203  12.147  0.6693  0.8535 -0.7432
18068TIP3   OH275694   0.358   1.057  12.464  0.1080 -0.0204 -0.3923
18068TIP3    H175695   0.271   1.018  12.467  0.2913 -0.4193 -0.2298
18068TIP3    H275696   0.403   1.012  12.393  0.4281 -0.3305  0.0096
18069TIP3   OH275697   6.703   2.366   3.690 -0.1678 -0.3423 -0.3223
18069TIP3    H175698   6.631   2.429   3.694 -0.2730 -0.5625  1.6968
18069TIP3    H275699   6.713   2.347   3.597 -2.4893 -0.0505 -0.6520
18070TIP3   OH275700   4.685   2.676  13.766 -0.2883  0.6959 -0.2255
18070TIP3    H175701   4.713   2.589  13.737  0.2310  1.1159 -1.0031
18070TIP3    H275702   4.754   2.704  13.827  0.0619  0.9857 -0.7570
18071TIP3   OH275703   3.692   2.024  15.420 -0.2991  0.3645 -0.1183
18071TIP3    H175704   3.766   1.982  15.375  0.3886  0.9187  0.4881
18071TIP3    H275705   3.616   1.975  15.390  0.2444  0.1695 -1.2244
18072TIP3   OH275706   2.425   3.353   6.111  0.3850  0.0296 -0.7207
18072TIP3    H175707   2.400   3.440   6.141  2.3120  0.3342  0.0678
18072TIP3    H275708   2.438   3.364   6.016 -0.3587  0.3602 -0.7876
18073TIP3   OH275709   4.970   3.195   6.587  0.0415 -0.0488  0.1095
18073TIP3    H175710   4.977   3.263   6.654 -3.5991  1.5723 -1.0271
18073TIP3    H275711   4.957   3.114   6.636  0.1910  0.7023  1.4061
18074TIP3   OH275712   0.750   3.841  16.688 -0.1123 -0.1458 -0.4082
18074TIP3    H175713   0.789   3.877  16.608  0.0160 -0.5504 -0.5313
18074TIP3    H275714   0.798   3.760  16.704 -1.1931 -0.8720 -0.7927
18075TIP3   OH275715   2.150   4.854  14.647  0.0387 -0.1343  0.0522
18075TIP3    H175716   2.132   4.944  14.622  1.8980  0.7218  1.7187
18075TIP3    H275717   2.078   4.831  14.706 -0.4336  0.2425 -0.3682
18076TIP3   OH275718   6.710   5.543  17.237 -0.0728 -0.0247 -0.5231
18076TIP3    H175719   6.614   5.533  17.234 -0.1269  0.2398  0.3889
18076TIP3    H275720   6.723   5.633  17.267  0.4631  0.4128 -2.0110
18077TIP3   OH275721   4.002   5.311   5.212  0.3032 -0.2486 -0.4388
18077TIP3    H175722   3.940   5.242   5.191 -1.4570  1.2643 -0.2651
18077TIP3    H275723   4.042   5.283   5.294 -0.3209 -1.1035 -0.4232
18078TIP3   OH275724   6.778   3.617  16.851 -0.2725  0.0742 -0.3467
18078TIP3    H175725   6.858   3.600  16.900  0.2986  1.9696 -0.5674
18078TIP3    H275726   6.808   3.661  16.771 -1.6470  2.2994  0.3286
18079TIP3   OH275727   0.849   0.991  12.864  1.0106  0.2389 -0.5087
18079TIP3    H175728   0.896   1.027  12.789  1.3092  1.2275  0.1458
18079TIP3    H275729   0.918   0.956  12.921  0.9017  0.9047  0.0388
18080TIP3   OH275730   4.503   1.441  13.641 -0.6122  0.3533 -0.3277
18080TIP3    H175731   4.538   1.372  13.698 -1.4362 -0.4612 -0.7914
18080TIP3    H275732   4.570   1.453  13.574 -0.5986 -0.2427 -0.4292
18081TIP3   OH275733   1.050   1.540   5.561  0.1029 -0.1655  0.4675
18081TIP3    H175734   0.989   1.466   5.570 -1.1792  0.4769 -2.5272
18081TIP3    H275735   1.076   1.560   5.651 -1.0953 -2.9579  1.4986
18082TIP3   OH275736   2.392   2.591   5.245 -0.2819  0.1528 -0.0721
18082TIP3    H175737   2.473   2.642   5.252  0.1806 -0.7108  1.0588
18082TIP3    H275738   2.360   2.585   5.335 -1.0832 -0.3415 -0.3882
18083TIP3   OH275739   0.522   4.608  15.078  0.2031  0.4040 -0.2122
18083TIP3    H175740   0.533   4.645  15.166  2.0811 -0.8291  0.1089
18083TIP3    H275741   0.607   4.570  15.057 -0.7431 -0.9145 -1.8238
18084TIP3   OH275742   3.165   4.183  16.569 -0.3646  0.0155 -0.3236
18084TIP3    H175743   3.211   4.255  16.526  0.0838  0.2029  0.4584
18084TIP3    H275744   3.139   4.219  16.654  0.8848 -1.1150  0.5515
18085TIP3   OH275745   1.863   1.193  17.110 -0.0738 -0.1222 -0.0031
18085TIP3    H175746   1.906   1.277  17.123 -0.1299 -0.1325  0.2561
18085TIP3    H275747   1.856   1.156  17.198 -1.3887  0.2678  0.0759
18086TIP3   OH275748   4.266   6.754   0.339 -0.3072 -0.4776 -0.1428
18086TIP3    H175749   4.290   6.665   0.310  0.9568 -0.7501  1.6598
18086TIP3    H275750   4.300   6.811   0.270  0.4442 -1.2725 -0.4486
18087TIP3   OH275751   1.538   5.739   5.306 -0.0632  0.6451  0.3575
18087TIP3    H175752   1.539   5.731   5.210 -1.2208  1.4766  0.2619
18087TIP3    H275753   1.541   5.833   5.321 -2.5322  0.6447  1.0727
18088TIP3   OH275754   6.182   5.551  13.389  0.0445  0.0012  0.1000
18088TIP3    H175755   6.183   5.623  13.453  1.3847 -0.0183  0.1234
18088TIP3    H275756   6.255   5.572  13.330  1.6836 -2.3557  1.2411
18089TIP3   OH275757   1.270   3.676  14.910 -0.5577 -0.5850  0.1195
18089TIP3    H175758   1.252   3.668  15.004 -3.4412  0.3192 -0.2851
18089TIP3    H275759   1.310   3.762  14.901 -0.0137 -0.7932  0.5634
18090TIP3   OH275760   6.480   0.057  12.242 -0.1931 -0.0297 -0.0991
18090TIP3    H175761   6.563   0.105  12.247 -0.6206  0.6469  0.7265
18090TIP3    H275762   6.418   0.121  12.206 -0.0102 -1.0117 -2.1795
18091TIP3   OH275763   3.192   4.350  15.344  0.6957  0.0659 -0.2296
18091TIP3    H175764   3.284   4.323  15.344  0.2637 -1.4249 -0.0528
18091TIP3    H275765   3.144   4.271  15.367 -0.6008  0.9680  0.2176
18092TIP3   OH275766   4.710   1.436   0.803  0.2560  0.5282 -0.7555
18092TIP3    H175767   4.793   1.402   0.835 -1.0715 -1.7125  0.4383
18092TIP3    H275768   4.691   1.512   0.858  0.5964 -0.1075  0.2507
18093TIP3   OH275769   3.020   2.198  13.047 -0.2026  0.5904 -0.7589
18093TIP3    H175770   3.065   2.122  13.011  0.5397  0.5504  0.2348
18093TIP3    H275771   2.929   2.169  13.056  0.3337 -0.6859  0.9194
18094TIP3   OH275772   4.652   0.600   3.585  0.3363 -0.0885  0.4229
18094TIP3    H175773   4.651   0.655   3.663 -1.0949 -0.9355  1.0372
18094TIP3    H275774   4.692   0.518   3.613  0.9527  0.0481 -0.0542
18095TIP3   OH275775   5.880   0.789   3.968 -0.2166  0.6666 -0.1689
18095TIP3    H175776   5.959   0.797   3.913 -0.8937  0.2480 -1.2248
18095TIP3    H275777   5.820   0.854   3.932 -1.4928 -1.1292 -1.3867
18096TIP3   OH275778   4.053   0.527  13.217  0.2475  0.0916 -0.1694
18096TIP3    H175779   4.009   0.521  13.301  1.5399  2.1443  0.6929
18096TIP3    H275780   4.135   0.479  13.230  1.2212  1.8717  0.2831
18097TIP3   OH275781   0.999   2.091   3.936  0.5984 -0.0027  0.1727
18097TIP3    H175782   0.960   2.018   3.984 -0.7918  2.0302  2.2296
18097TIP3    H275783   0.980   2.168   3.989  3.7318  1.6477 -0.9382
18098TIP3   OH275784   3.437   3.188   6.169  0.3188 -0.2293 -0.2211
18098TIP3    H175785   3.479   3.106   6.196  1.6870 -0.1981 -2.1141
18098TIP3    H275786   3.495   3.222   6.101 -0.2542  2.3108  0.5366
18099TIP3   OH275787   0.927   0.769  15.227  0.0704  0.2469 -0.4354
18099TIP3    H175788   0.874   0.781  15.148 -1.8397 -0.8766  0.6356
18099TIP3    H275789   0.877   0.707  15.280  0.7262  1.9199  2.2051
18100TIP3   OH275790   6.414   3.953   4.932 -0.2200  0.6341  0.3254
18100TIP3    H175791   6.496   3.906   4.944  0.8183  2.1127 -0.8087
18100TIP3    H275792   6.416   4.023   4.998 -0.6289  0.6152  0.3629
18101TIP3   OH275793   5.486   4.145   0.034 -0.3472  0.6525  0.8888
18101TIP3    H175794   5.549   4.098   0.089  1.5990  1.0751 -0.9378
18101TIP3    H275795   5.506   4.117  -0.055 -1.9566  1.7293  0.1670
18102TIP3   OH275796   4.442   0.955   3.008 -0.3524  0.4079 -0.0463
18102TIP3    H175797   4.475   0.885   3.063 -0.9284  0.1891  0.0239
18102TIP3    H275798   4.434   1.030   3.067  3.0498  1.3763 -0.7483
18103TIP3   OH275799   1.229   2.858   3.289 -0.2238  0.8652  0.6004
18103TIP3    H175800   1.291   2.882   3.358 -0.6513  2.0068  0.6007
18103TIP3    H275801   1.210   2.940   3.244 -1.9363  0.5834  0.7650
18104TIP3   OH275802   5.928   3.237   3.466  0.1662 -0.2222  0.2817
18104TIP3    H175803   5.901   3.171   3.403  1.0229 -1.2753  1.0070
18104TIP3    H275804   5.878   3.315   3.442 -0.3669 -0.9428 -0.9763
18105TIP3   OH275805   6.285   3.250   2.163 -0.4479 -0.3745  0.0407
18105TIP3    H175806   6.283   3.317   2.232  0.4284  1.0523 -1.2709
18105TIP3    H275807   6.378   3.240   2.143 -0.7818  0.4060 -2.0281
18106TIP3   OH275808   2.624   1.697  14.022 -0.2616  0.1162 -0.0764
18106TIP3    H175809   2.702   1.750  14.007 -0.2481  0.4106  1.0176
18106TIP3    H275810   2.582   1.736  14.098 -1.2070 -0.3560 -0.3460
18107TIP3   OH275811   0.674   3.330   4.441 -0.2413  0.5175 -0.3349
18107TIP3    H175812   0.664   3.237   4.419 -3.6528  0.8219 -0.2679
18107TIP3    H275813   0.705   3.371   4.361  0.8559 -0.6038 -0.4899
18108TIP3   OH275814   6.642   3.601   4.278 -0.5790  0.5212 -0.0849
18108TIP3    H175815   6.583   3.654   4.225  1.3383  2.9630  0.1671
18108TIP3    H275816   6.635   3.637   4.366  1.3144  0.8877 -0.0592
18109TIP3   OH275817   1.242   4.378   4.195  0.3558 -0.2096  0.5793
18109TIP3    H175818   1.304   4.445   4.223  2.2084 -1.1364 -1.1654
18109TIP3    H275819   1.295   4.315   4.146 -2.1156 -0.5301 -1.8367
18110TIP3   OH275820   1.964   4.517   1.141  0.0197 -0.3703  0.0397
18110TIP3    H175821   1.934   4.543   1.228  1.2363  0.3844  0.2530
18110TIP3    H275822   1.903   4.449   1.114 -0.7387 -0.1860  1.2277
18111TIP3   OH275823   0.541   0.453  11.546  0.1841  0.0261 -0.1699
18111TIP3    H175824   0.518   0.446  11.454  0.9920 -0.2841 -0.3566
18111TIP3    H275825   0.624   0.405  11.553 -0.4836 -0.9942  0.9471
18112TIP3   OH275826   5.941   6.546   1.297  0.2840 -0.6834  0.3374
18112TIP3    H175827   5.981   6.479   1.241 -0.6356 -0.1427 -0.9961
18112TIP3    H275828   5.855   6.511   1.319 -0.4576  0.3339 -0.9031
18113TIP3   OH275829   0.841   1.636   5.873 -0.0063 -0.1433 -0.1669
18113TIP3    H175830   0.833   1.609   5.965  2.3296  0.0017  0.0986
18113TIP3    H275831   0.839   1.554   5.824 -1.4668 -0.2102 -0.0359
18114TIP3   OH275832   0.678   4.335  15.053 -0.7938  0.3099  0.1238
18114TIP3    H175833   0.728   4.256  15.072 -0.5969 -0.1953 -2.3398
18114TIP3    H275834   0.723   4.404  15.103  1.2324 -0.4676 -0.5703
18115TIP3   OH275835   3.624   0.365  15.386  0.3139 -0.3332 -0.0049
18115TIP3    H175836   3.576   0.405  15.313  0.1070 -0.5045  0.0384
18115TIP3    H275837   3.640   0.438  15.446 -0.4748 -0.4088  0.2936
18116TIP3   OH275838   2.576   1.524  17.173 -0.0633  0.1159  0.5179
18116TIP3    H175839   2.487   1.534  17.139  0.3089  0.5089 -0.3657
18116TIP3    H275840   2.621   1.470  17.107 -0.5631 -2.9479  2.6070
18117TIP3   OH275841   6.560   6.091  11.960  0.1979 -0.7631  0.1079
18117TIP3    H175842   6.467   6.072  11.973  0.2411 -0.5634  0.7632
18117TIP3    H275843   6.597   6.010  11.925 -0.4202 -0.5014 -1.1606
18118TIP3   OH275844   3.044   6.746  11.441 -0.7670 -0.5543 -0.1844
18118TIP3    H175845   2.983   6.751  11.514 -0.5840 -3.2103  0.2194
18118TIP3    H275846   3.026   6.660  11.402  2.1911 -1.0664 -0.5127
18119TIP3   OH275847   2.700   5.982  17.217  0.3653  0.4031 -0.2698
18119TIP3    H175848   2.726   6.056  17.273 -0.4315 -0.0337  0.7102
18119TIP3    H275849   2.782   5.943  17.188  0.7944  0.7458  0.4659
18120TIP3   OH275850   5.940   4.579  16.172  0.2087 -0.2054 -0.2925
18120TIP3    H175851   5.991   4.568  16.252 -1.4936  0.3793  0.8861
18120TIP3    H275852   5.907   4.669  16.176  1.2148  0.2976 -2.3191
18121TIP3   OH275853   0.723   2.971   2.868 -0.0180  0.6635 -0.0078
18121TIP3    H175854   0.814   2.987   2.844 -0.0231 -0.7767 -1.0915
18121TIP3    H275855   0.681   2.947   2.785 -0.8434 -0.9776  0.8600
18122TIP3   OH275856   4.144   2.984   2.517 -0.4304  0.3167  0.0754
18122TIP3    H175857   4.055   2.961   2.488 -0.5520 -0.1895  0.8426
18122TIP3    H275858   4.131   3.032   2.598  0.0872 -1.4661  1.2377
18123TIP3   OH275859   6.101   2.057   1.056 -0.3627 -0.0941  0.0010
18123TIP3    H175860   6.146   2.138   1.081  0.1172 -0.2080 -0.4868
18123TIP3    H275861   6.020   2.058   1.108 -0.5785  0.9304 -0.3438
18124TIP3   OH275862   3.753   6.344   5.988  0.0740 -0.4657 -0.1583
18124TIP3    H175863   3.709   6.263   6.012 -0.1589 -0.0892  0.7067
18124TIP3    H275864   3.783   6.381   6.071 -1.2152  1.1229 -0.3835
18125TIP3   OH275865   5.211   1.220  13.207  0.1352  0.5973  0.1616
18125TIP3    H175866   5.117   1.238  13.202 -0.0621  0.2126  2.0122
18125TIP3    H275867   5.248   1.297  13.250  0.3884 -0.0478  1.1108
18126TIP3   OH275868   2.091   0.788   3.495  0.2607 -0.3585 -0.6469
18126TIP3    H175869   2.143   0.708   3.490  0.0540 -0.6993  1.7728
18126TIP3    H275870   2.027   0.780   3.425  0.8510 -1.8741 -1.0308
18127TIP3   OH275871   5.859   1.775   0.438 -0.1670 -0.1461 -0.3775
18127TIP3    H175872   5.869   1.742   0.527 -2.8293  0.9056  0.3811
18127TIP3    H275873   5.926   1.730   0.387  0.3598 -1.9378  1.8410
18128TIP3   OH275874   0.443   4.017  11.862  0.3034  0.2331 -0.0473
18128TIP3    H175875   0.528   4.058  11.846  0.2500  1.7960  3.4273
18128TIP3    H275876   0.384   4.090  11.885 -1.4902 -1.0497 -0.4234
18129TIP3   OH275877   3.062   2.439  15.387 -0.5409  0.3857 -0.0284
18129TIP3    H175878   3.090   2.462  15.298 -1.0280  0.5740 -0.1350
18129TIP3    H275879   2.968   2.427  15.380 -0.9980  2.9540  0.9745
18130TIP3   OH275880   0.018   2.302   2.582  0.1198  0.5634 -0.2787
18130TIP3    H175881  -0.061   2.270   2.624 -0.6333  0.3530 -1.8326
18130TIP3    H275882   0.040   2.382   2.630 -0.1697 -0.1793  1.1187
18131TIP3   OH275883   0.815   2.250  15.552 -0.2841  0.3671 -0.1423
18131TIP3    H175884   0.807   2.171  15.606 -0.5506  0.1804 -0.4559
18131TIP3    H275885   0.878   2.305  15.599 -1.0562  0.5126  0.7366
18132TIP3   OH275886   2.550   3.734  15.745 -0.4065  0.3153  0.2372
18132TIP3    H175887   2.517   3.645  15.733 -1.6748  0.7310  0.6115
18132TIP3    H275888   2.509   3.765  15.825  1.2885  0.6860  1.0033
18133TIP3   OH275889   3.061   4.086  16.282 -0.8586  0.1988  0.1460
18133TIP3    H175890   2.992   4.148  16.306 -1.8980 -1.2077  0.8461
18133TIP3    H275891   3.142   4.137  16.288 -1.7281  1.5719  0.3811
18134TIP3   OH275892   3.169   1.016  14.202 -0.2808  0.2935  0.7129
18134TIP3    H175893   3.200   1.031  14.291  0.4694  0.2531  0.4642
18134TIP3    H275894   3.236   0.961  14.162 -1.9112 -1.8936  0.9282
18135TIP3   OH275895   0.293   3.779   5.690  0.2275  0.5321 -0.8057
18135TIP3    H175896   0.204   3.764   5.657  0.9620 -1.4601 -1.9944
18135TIP3    H275897   0.286   3.760   5.783 -0.6657  0.6737 -0.8319
18136TIP3   OH275898   2.782   3.875   5.296  0.3450 -1.1355  0.0557
18136TIP3    H175899   2.757   3.930   5.371 -0.4980 -1.9516  0.3915
18136TIP3    H275900   2.877   3.885   5.289  0.2046  0.3410  0.1196
18137TIP3   OH275901   6.446   4.784  16.075  0.6618 -0.2496  0.2721
18137TIP3    H175902   6.416   4.706  16.028 -0.4903  0.1317  0.3479
18137TIP3    H275903   6.426   4.856  16.016 -1.0593  0.2617  1.4191
18138TIP3   OH275904   3.184   6.253   2.055  0.1717 -0.0288  0.3445
18138TIP3    H175905   3.095   6.218   2.066  0.3042  0.0518  1.6845
18138TIP3    H275906   3.234   6.214   2.126 -0.2371  4.7224  3.5067
18139TIP3   OH275907   3.392   1.247  14.500  0.2447  0.4166 -0.3619
18139TIP3    H175908   3.475   1.290  14.522  0.0584 -0.3315  1.9408
18139TIP3    H275909   3.325   1.305  14.536 -0.2184  0.6846 -1.6384
18140TIP3   OH275910   3.440   2.302  14.233  0.3751 -0.0966  0.4197
18140TIP3    H175911   3.476   2.218  14.261  1.6276  0.1388 -0.4565
18140TIP3    H275912   3.503   2.367  14.264  0.4509  0.3565 -0.6738
18141TIP3   OH275913   0.724   1.229  16.759  0.4869  0.1923  0.5640
18141TIP3    H175914   0.770   1.155  16.799  1.5926  0.2646 -0.5643
18141TIP3    H275915   0.792   1.294  16.742 -0.0762  0.4358 -0.8311
18142TIP3   OH275916   1.024   3.188   3.889 -0.3125 -0.2668  0.3404
18142TIP3    H175917   1.110   3.228   3.888  0.1488 -1.2443 -0.0245
18142TIP3    H275918   1.018   3.144   3.974  0.5574 -2.2957 -0.6046
18143TIP3   OH275919   3.273   1.087  16.221 -0.1881 -0.1625 -0.4599
18143TIP3    H175920   3.205   1.020  16.213 -0.5216  0.0387  0.5188
18143TIP3    H275921   3.249   1.135  16.301  1.5052 -0.5277  0.2815
18144TIP3   OH275922   3.488   5.346  17.265  0.7227  0.5352  0.0857
18144TIP3    H175923   3.569   5.350  17.316 -0.2286  0.1863  1.6837
18144TIP3    H275924   3.495   5.265  17.215  0.9998  0.0705  0.8673
18145TIP3   OH275925   1.740   3.450  14.162 -0.1498 -0.4291 -0.2460
18145TIP3    H175926   1.688   3.389  14.214  0.2049  0.7156  1.5180
18145TIP3    H275927   1.824   3.454  14.208 -0.2598  1.5682 -0.1932
18146TIP3   OH275928   3.416   4.746   2.651 -0.0285  0.6700 -0.5979
18146TIP3    H175929   3.390   4.696   2.574  0.5363 -1.8334  0.7808
18146TIP3    H275930   3.511   4.756   2.644 -0.0398  0.8865 -0.4745
18147TIP3   OH275931   0.417   3.103   5.354  0.1051  0.1868 -0.0047
18147TIP3    H175932   0.433   3.022   5.305 -1.3729 -0.8939  1.2483
18147TIP3    H275933   0.403   3.074   5.444 -0.3695  1.8463  0.4777
18148TIP3   OH275934   0.501   2.785  14.460 -0.1520 -0.2671 -0.2870
18148TIP3    H175935   0.565   2.718  14.433 -0.1200  0.0976 -1.1320
18148TIP3    H275936   0.530   2.812  14.547  0.8414 -0.1189 -0.6585
18149TIP3   OH275937   0.835   5.082   5.639  0.0293  0.3533 -0.0701
18149TIP3    H175938   0.930   5.090   5.652  0.0230 -0.1339  0.2930
18149TIP3    H275939   0.807   5.170   5.615  0.7097  0.3126 -1.0475
18150TIP3   OH275940   2.258   4.214  13.357  0.7177 -0.4263 -0.2063
18150TIP3    H175941   2.329   4.161  13.394 -0.4081 -0.3171  2.1936
18150TIP3    H275942   2.259   4.294  13.408  0.7444  0.8555 -2.1480
18151TIP3   OH275943   3.355   0.484  11.516  0.3181 -0.1381 -0.2635
18151TIP3    H175944   3.411   0.407  11.523  1.1591  0.4562 -0.3256
18151TIP3    H275945   3.308   0.473  11.433 -2.0871 -2.2100  1.3096
18152TIP3   OH275946   1.793   4.769   2.719  0.1651  0.2664  0.5589
18152TIP3    H175947   1.879   4.737   2.691 -0.2571  0.3174 -0.8219
18152TIP3    H275948   1.799   4.774   2.814  0.9638 -1.7795  0.6252
18153TIP3   OH275949   0.782   0.522  15.288 -0.6239 -0.1548 -0.4989
18153TIP3    H175950   0.734   0.523  15.206 -0.4440  1.6204 -0.6028
18153TIP3    H275951   0.845   0.450  15.278 -0.3584  0.2730 -2.0592
18154TIP3   OH275952   5.534   0.358  16.349 -0.2119  0.0693 -0.2411
18154TIP3    H175953   5.584   0.383  16.427  1.1648  0.8256 -1.3389
18154TIP3    H275954   5.548   0.263  16.341 -0.3170 -0.0024  0.3927
18155TIP3   OH275955   5.911   2.196  15.452 -0.0782  0.7022 -0.1983
18155TIP3    H175956   5.923   2.271  15.393  1.1185 -1.1864 -2.4495
18155TIP3    H275957   5.958   2.124  15.409 -2.3436 -1.6959  1.1887
18156TIP3   OH275958   1.105   2.730   5.845 -0.1250  0.1120  0.2800
18156TIP3    H175959   1.165   2.786   5.795 -1.3600 -0.6248 -2.0812
18156TIP3    H275960   1.158   2.699   5.919  1.8236  1.0441 -0.6730
18157TIP3   OH275961   4.325   1.380  14.004 -0.5182 -0.0759  0.9213
18157TIP3    H175962   4.321   1.421  14.091 -0.9825  1.7847  0.0614
18157TIP3    H275963   4.411   1.338  14.001  0.9471  2.7470  1.0567
18158TIP3   OH275964   2.975   0.532  12.649 -0.0354 -0.3707  0.2246
18158TIP3    H175965   3.036   0.602  12.676 -1.6440  0.0673  2.9513
18158TIP3    H275966   2.984   0.465  12.718 -2.4393 -0.3906  0.5655
18159TIP3   OH275967   4.997   4.046   5.556  0.5011  0.3215 -0.0511
18159TIP3    H175968   4.990   3.997   5.638  0.0950 -0.6849 -0.6801
18159TIP3    H275969   5.085   4.028   5.524  0.3086 -0.1124 -0.3456
18160TIP3   OH275970   6.571   3.028   2.317 -0.2320 -0.1843 -0.1534
18160TIP3    H175971   6.626   2.958   2.352  0.7933  1.1295  0.9097
18160TIP3    H275972   6.510   2.984   2.258  0.6095 -1.9232  0.2642
18161TIP3   OH275973   0.998   3.873  14.197 -0.4011 -0.1381  0.0801
18161TIP3    H175974   0.936   3.884  14.269 -2.1195 -1.4516 -1.1514
18161TIP3    H275975   1.056   3.803  14.225 -0.8561 -0.4164  0.3318
18162TIP3   OH275976   3.678   0.851  12.351  0.0090  0.3742  0.0636
18162TIP3    H175977   3.751   0.790  12.361 -0.1066  0.0699 -0.8553
18162TIP3    H275978   3.700   0.925  12.407  2.1416  1.3143 -1.9215
18163TIP3   OH275979   1.099   1.344  12.908 -0.2303  0.3616  0.0421
18163TIP3    H175980   1.175   1.393  12.878  0.5859 -0.8028  0.1491
18163TIP3    H275981   1.024   1.387  12.867  0.5853  0.8617 -0.9342
18164TIP3   OH275982   4.818   2.070   0.431  0.5606  0.5757  0.1377
18164TIP3    H175983   4.836   2.101   0.342 -0.0872 -1.1670 -0.6320
18164TIP3    H275984   4.877   1.996   0.443 -1.5114 -1.1461 -0.0167
18165TIP3   OH275985   6.529   4.419  12.021 -0.2987  0.1867 -0.1164
18165TIP3    H175986   6.460   4.483  12.035  0.0719  0.5299  0.1653
18165TIP3    H275987   6.580   4.453  11.948 -1.4322 -0.9240 -1.4494
18166TIP3   OH275988   3.833   2.306   6.061 -0.0986  0.6587 -1.2713
18166TIP3    H175989   3.836   2.401   6.048  0.6207  0.5918 -1.6321
18166TIP3    H275990   3.915   2.286   6.107  0.2390  0.0821 -2.1092
18167TIP3   OH275991   1.512   0.263   1.174 -0.0455  0.1678 -0.5220
18167TIP3    H175992   1.578   0.235   1.111 -1.1538 -1.3071 -1.0535
18167TIP3    H275993   1.439   0.204   1.159 -1.3866  1.6104  0.2462
18168TIP3   OH275994   0.278   2.494   3.594  0.1500 -0.5145 -0.5618
18168TIP3    H175995   0.220   2.427   3.559 -0.5588 -0.2950  0.1740
18168TIP3    H275996   0.353   2.445   3.628 -0.0619 -0.8795 -0.6227
18169TIP3   OH275997   5.890   4.286   2.532 -0.7522 -0.3102 -0.0308
18169TIP3    H175998   5.982   4.291   2.557 -0.6881 -1.3484 -0.0423
18169TIP3    H275999   5.881   4.350   2.461 -0.1098 -0.0045  0.1554
18170TIP3   OH276000   5.531   0.559  11.863 -0.2816  0.3344  0.2128
18170TIP3    H176001   5.494   0.480  11.824 -0.3874  0.2900  0.4010
18170TIP3    H276002   5.625   0.550  11.848 -0.0470 -0.9426  2.1995
18171TIP3   OH276003   0.135   1.857  15.321 -0.5253  0.2297 -0.4345
18171TIP3    H176004   0.216   1.884  15.278 -0.5268  0.0569 -0.5434
18171TIP3    H276005   0.131   1.762  15.308 -0.8766  0.2725 -0.6482
18172TIP3   OH276006   0.071   1.849  16.481  0.2507 -0.1648 -0.2740
18172TIP3    H176007   0.017   1.868  16.558  1.7554  4.5844 -0.1980
18172TIP3    H276008   0.150   1.809  16.517  0.4712  0.9846  0.5352
18173TIP3   OH276009   3.870   1.992   1.852  0.2308 -0.1641 -0.3881
18173TIP3    H176010   3.908   2.009   1.939  0.5428 -0.0104 -0.5559
18173TIP3    H276011   3.824   2.072   1.829  1.0237  0.1686 -0.8228
18174TIP3   OH276012   4.048   3.777  12.377 -0.1772 -0.3807  0.5600
18174TIP3    H176013   4.114   3.799  12.312 -0.5589  0.2927  0.3874
18174TIP3    H276014   3.964   3.793  12.333 -0.4452  2.3721  1.9423
18175TIP3   OH276015   6.770   2.276  13.752 -0.8674  1.0271  0.4250
18175TIP3    H176016   6.808   2.357  13.788  1.8085  0.0247 -0.0688
18175TIP3    H276017   6.798   2.208  13.813  0.6701 -0.1672 -1.5685
18176TIP3   OH276018   3.970   4.492  13.857 -0.0570 -0.2365  0.4111
18176TIP3    H176019   3.994   4.401  13.877 -1.4170 -0.3916  1.3991
18176TIP3    H276020   3.991   4.541  13.936 -0.1474  0.1578  0.1942
18177TIP3   OH276021   4.564   6.060   3.548  0.4252  0.0714  0.7263
18177TIP3    H176022   4.543   6.122   3.618 -0.7810  1.3105 -0.6841
18177TIP3    H276023   4.478   6.032   3.515  0.9596 -1.7910  0.8257
18178TIP3   OH276024   6.270   3.427  10.667 -0.1313 -0.7352  0.2279
18178TIP3    H176025   6.298   3.336  10.678  0.3326 -0.4855  1.1666
18178TIP3    H276026   6.336   3.466  10.609 -1.6222 -1.6030 -2.0783
18179TIP3   OH276027   5.649   6.655  13.670  0.8279  0.4519  0.1673
18179TIP3    H176028   5.687   6.739  13.641 -0.3821  0.7285 -0.6689
18179TIP3    H276029   5.687   6.590  13.610  0.2686  0.6853 -0.4562
18180TIP3   OH276030   4.037   3.611  14.263  0.4958 -0.2626 -0.8044
18180TIP3    H176031   3.986   3.662  14.200 -0.1279 -1.5314 -1.3443
18180TIP3    H276032   4.127   3.617  14.231  0.7897  2.3371  0.3874
18181TIP3   OH276033   5.816   6.730  11.523 -0.0948  0.2509 -0.0847
18181TIP3    H176034   5.819   6.655  11.465 -1.7124  1.0757 -1.2872
18181TIP3    H276035   5.764   6.795  11.475  1.0671  2.0359  1.0230
18182TIP3   OH276036   5.842   3.808  11.633 -0.2987  0.0737  0.0361
18182TIP3    H176037   5.884   3.895  11.635 -0.1101  0.0280 -1.3981
18182TIP3    H276038   5.754   3.823  11.667 -0.3003  0.8536 -0.2939
18183TIP3   OH276039   2.628   2.837   6.637 -0.1567  0.4835 -0.4608
18183TIP3    H176040   2.563   2.908   6.639 -0.2299  0.4154 -0.4362
18183TIP3    H276041   2.615   2.795   6.553 -1.0812 -0.4041  0.1146
18184TIP3   OH276042   1.409   4.085   0.077 -0.5715 -0.3238 -0.3079
18184TIP3    H176043   1.393   4.108   0.169 -0.0449  1.6907 -0.7032
18184TIP3    H276044   1.360   4.003   0.064 -1.2698 -0.2281  1.5568
18185TIP3   OH276045   4.083   2.131  16.815 -0.1182  0.3595 -0.2661
18185TIP3    H176046   4.112   2.204  16.870  0.8712  1.6236 -2.4006
18185TIP3    H276047   4.040   2.071  16.875  1.9636  1.1418  2.0873
18186TIP3   OH276048   6.779   1.055  11.859  0.6753  0.0058 -0.3081
18186TIP3    H176049   6.706   1.033  11.802  0.0099 -1.0269  0.9027
18186TIP3    H276050   6.840   0.981  11.852  0.1904 -0.5343  0.9325
18187TIP3   OH276051   4.826   1.066   3.749 -0.2423  0.3324  0.2151
18187TIP3    H176052   4.876   1.034   3.823 -0.1235 -0.4391 -0.1989
18187TIP3    H276053   4.882   1.050   3.673 -0.9491 -0.1894 -0.2037
18188TIP3   OH276054   6.025   1.663  14.590 -0.6946 -0.4630 -0.2287
18188TIP3    H176055   6.002   1.686  14.680 -2.0438  3.1153 -1.4145
18188TIP3    H276056   5.945   1.628  14.553  0.0920 -2.7643  0.1551
18189TIP3   OH276057   2.845   2.469  15.213  0.4150 -0.5979 -0.0674
18189TIP3    H176058   2.798   2.386  15.210  0.1078 -0.4271 -0.0105
18189TIP3    H276059   2.791   2.525  15.270 -1.0396  0.6819 -2.6125
18190TIP3   OH276060   3.535   6.819  16.810 -1.0042 -0.3234 -0.5592
18190TIP3    H176061   3.628   6.840  16.809 -0.6778 -1.5693  1.6222
18190TIP3    H276062   3.522   6.762  16.734 -0.3462  1.2148 -1.8506
18191TIP3   OH276063   5.735   4.491   3.137 -0.1532  0.1290 -0.4399
18191TIP3    H176064   5.675   4.473   3.064  0.7962 -2.0301 -0.7372
18191TIP3    H276065   5.689   4.457   3.213 -0.4841  0.9911 -0.2511
18192TIP3   OH276066   2.833   4.154   5.384  0.2671 -1.1279 -0.0521
18192TIP3    H176067   2.741   4.150   5.359 -0.9115 -0.6817  3.9070
18192TIP3    H276068   2.854   4.247   5.385 -0.2967 -0.9921  2.4331
18193TIP3   OH276069   0.862   3.353  16.027  0.5742  0.1734 -0.0534
18193TIP3    H176070   0.935   3.353  15.965  0.6871 -1.6282  0.0653
18193TIP3    H276071   0.899   3.389  16.108  0.6331  1.7769 -0.7848
18194TIP3   OH276072   0.267   0.337   6.321  0.0366  0.2473  0.0773
18194TIP3    H176073   0.251   0.243   6.328 -0.0475  0.2840  0.4301
18194TIP3    H276074   0.254   0.369   6.410  1.1689  0.4286  0.1759
18195TIP3   OH276075   2.376   6.773   4.503  0.2432 -0.0409  0.1630
18195TIP3    H176076   2.355   6.694   4.453 -0.3060  0.6734 -0.7465
18195TIP3    H276077   2.402   6.837   4.437  1.7738  0.2164  0.9825
18196TIP3   OH276078   0.460   1.500   4.392 -0.2156 -0.2417  0.5177
18196TIP3    H176079   0.456   1.410   4.425 -1.8826  0.2037  1.5666
18196TIP3    H276080   0.386   1.507   4.331  0.5156  0.1285 -0.3445
18197TIP3   OH276081   3.806   4.893  17.211  0.4039 -0.1032  0.5005
18197TIP3    H176082   3.840   4.810  17.178  0.5601  0.1041  0.1382
18197TIP3    H276083   3.853   4.960  17.162 -0.6288  0.1861 -0.1181
18198TIP3   OH276084   3.329   4.357   1.993  0.4565 -0.6924 -0.0494
18198TIP3    H176085   3.254   4.339   1.936  0.3075 -1.6967  0.4482
18198TIP3    H276086   3.387   4.282   1.981 -0.3640 -1.7954  2.3732
18199TIP3   OH276087   2.590   6.506  11.430 -0.0444 -0.4308  0.1764
18199TIP3    H176088   2.610   6.492  11.338  0.3756 -0.2067  0.2312
18199TIP3    H276089   2.673   6.495  11.475 -0.2210 -0.4032  0.5134
18200TIP3   OH276090   5.163   2.406  16.287  0.1628  0.0166 -0.7831
18200TIP3    H176091   5.232   2.416  16.220  1.1404  0.4688  0.2773
18200TIP3    H276092   5.123   2.492  16.292 -0.1002 -0.0944 -0.9968
18201TIP3   OH276093   6.265   6.562   0.623 -0.4265 -0.0596  0.7714
18201TIP3    H176094   6.260   6.624   0.550  1.9011  0.3360  0.8903
18201TIP3    H276095   6.359   6.545   0.633 -0.6938 -0.1181  3.6573
18202TIP3   OH276096   5.095   3.852   4.251 -0.1057  0.3198 -0.5904
18202TIP3    H176097   5.058   3.938   4.269 -0.1222 -0.0282  1.1403
18202TIP3    H276098   5.028   3.790   4.281  0.3593 -0.2997 -0.8108
18203TIP3   OH276099   0.124   5.906   2.912 -0.2016 -0.0870  0.5915
18203TIP3    H176100   0.151   5.814   2.907  2.0598  0.3581  3.2822
18203TIP3    H276101   0.147   5.942   2.826  2.0181 -1.2772  0.6461
18204TIP3   OH276102   6.571   3.937   0.521  0.0663 -0.4809  0.8261
18204TIP3    H176103   6.644   3.962   0.464 -0.2203 -0.8316  0.2969
18204TIP3    H276104   6.495   3.983   0.484  0.0225 -0.0958  1.3885
18205TIP3   OH276105   4.366   0.835  12.910  0.8171 -0.2586  0.3033
18205TIP3    H176106   4.332   0.749  12.936 -0.9085  1.0245  2.3552
18205TIP3    H276107   4.417   0.865  12.985 -0.9960  1.7676  0.7772
18206TIP3   OH276108   4.119   5.553  11.171  0.4071  0.2383 -0.9565
18206TIP3    H176109   4.130   5.640  11.209 -0.4805  0.2861 -0.7942
18206TIP3    H276110   4.205   5.530  11.136  0.4057  1.5864 -1.8517
18207TIP3   OH276111   2.773   6.690   5.258 -0.2362  0.3554  0.1420
18207TIP3    H176112   2.790   6.772   5.210  0.7552 -0.2560 -0.5778
18207TIP3    H276113   2.778   6.622   5.191  0.2035 -0.4148  0.9443
18208TIP3   OH276114   5.734   4.175   5.537 -0.2834 -0.0181 -0.5717
18208TIP3    H176115   5.695   4.226   5.609  0.0506  0.2195 -0.5549
18208TIP3    H276116   5.796   4.116   5.580 -1.8461 -1.5960 -0.4333
18209TIP3   OH276117   5.943   1.067  13.164  0.5921 -0.3421  0.5494
18209TIP3    H176118   5.919   1.117  13.086  0.0133  0.2106  1.0755
18209TIP3    H276119   6.006   1.003  13.133  0.0470 -0.3976 -0.4462
18210TIP3   OH276120   5.167   6.638   1.370 -0.2372  0.5628 -0.3732
18210TIP3    H176121   5.089   6.583   1.372 -0.0976  0.3957  0.6398
18210TIP3    H276122   5.144   6.715   1.422  0.5947  0.0676  0.7557
18211TIP3   OH276123   2.104   3.977   0.751  0.4059 -0.2732  0.2081
18211TIP3    H176124   2.156   3.979   0.832  0.7192  2.1061 -0.0306
18211TIP3    H276125   2.126   3.893   0.711 -0.2368 -1.8124  2.8899
18212TIP3   OH276126   5.540   3.291  16.499 -0.4924  0.2697  0.0285
18212TIP3    H176127   5.552   3.386  16.505 -0.3021  0.2111  0.5578
18212TIP3    H276128   5.556   3.258  16.587 -0.4168 -0.2748 -0.1836
18213TIP3   OH276129   6.163   2.636  16.994 -1.0110 -0.4195 -1.1385
18213TIP3    H176130   6.076   2.621  17.031 -0.2865  0.1612  0.9001
18213TIP3    H276131   6.202   2.549  16.986 -0.2578 -0.4595  1.9435
18214TIP3   OH276132   6.359   1.662  14.680 -0.4333  0.0022  0.1773
18214TIP3    H176133   6.387   1.642  14.769 -0.8958 -0.6593  0.1780
18214TIP3    H276134   6.403   1.596  14.626 -1.6512 -0.7947  0.1330
18215TIP3   OH276135   3.262   5.411   4.297 -0.3189  0.5155 -0.2020
18215TIP3    H176136   3.319   5.475   4.339 -0.7309 -0.7522  2.3536
18215TIP3    H276137   3.320   5.361   4.239  0.8276  0.4326  1.0000
18216TIP3   OH276138   4.943   2.693  10.968  0.0668  0.2032  0.5439
18216TIP3    H176139   4.905   2.718  10.884 -1.7954  1.4134  1.7034
18216TIP3    H276140   4.936   2.597  10.970  0.3607  0.1428 -0.7714
18217TIP3   OH276141   4.117   0.207   2.769 -0.6060  0.3567  0.3788
18217TIP3    H176142   4.118   0.281   2.830  0.8267  1.4963 -0.9974
18217TIP3    H276143   4.044   0.226   2.710 -0.3928  0.5428  0.1760
18218TIP3   OH276144   2.256   5.953   3.720  0.6129 -0.1204 -0.3313
18218TIP3    H176145   2.257   5.935   3.814  1.2687  0.6359 -0.1925
18218TIP3    H276146   2.339   5.917   3.687  1.7784  2.2730 -0.1082
18219TIP3   OH276147   3.652   3.385  12.493  0.3335 -0.2275 -0.4046
18219TIP3    H176148   3.682   3.324  12.425  1.1659  0.6709 -0.8479
18219TIP3    H276149   3.719   3.382  12.560  0.3751  0.1919 -0.4234
18220TIP3   OH276150   3.124   5.118   4.907  0.4211  0.3650  0.3367
18220TIP3    H176151   3.122   5.146   4.815 -1.0470 -0.7898 -0.0029
18220TIP3    H276152   3.202   5.161   4.943  2.0800 -0.6012 -1.9172
18221TIP3   OH276153   3.380   2.988   5.763  0.3342 -0.1098  0.4754
18221TIP3    H176154   3.396   2.975   5.669 -0.3455  0.3541  0.2908
18221TIP3    H276155   3.460   2.957   5.805 -0.2537 -2.5321 -0.1001
18222TIP3   OH276156   1.575   5.559   0.789  0.4134 -0.0190 -0.0821
18222TIP3    H176157   1.580   5.608   0.871  0.5944 -3.1171  1.8509
18222TIP3    H276158   1.620   5.614   0.725  0.7986  2.1971  2.0272
18223TIP3   OH276159   2.784   2.901  13.761 -0.0551  0.3308 -0.3663
18223TIP3    H176160   2.864   2.949  13.784 -0.8244  0.5512  2.0829
18223TIP3    H276161   2.811   2.841  13.692  2.3203  0.1859  0.6188
18224TIP3   OH276162   4.967   1.705  15.208  0.2120  0.1670  0.6836
18224TIP3    H176163   4.874   1.684  15.207  0.8430 -2.8418  0.0739
18224TIP3    H276164   4.971   1.800  15.214 -2.8874  0.2876  1.2225
18225TIP3   OH276165   6.511   2.578   1.703  0.1012  0.0939 -0.2557
18225TIP3    H176166   6.573   2.557   1.633  0.7203 -0.5482  0.4771
18225TIP3    H276167   6.483   2.493   1.736 -0.6922  0.3886 -0.1527
18226TIP3   OH276168   6.587   4.267   5.507 -0.2595  0.1717 -0.2074
18226TIP3    H176169   6.649   4.312   5.565  0.4371  0.4832 -1.1963
18226TIP3    H276170   6.501   4.283   5.548  0.2632 -0.0025  0.9889
18227TIP3   OH276171   1.212   6.767  16.464 -0.6346 -0.0467  0.0115
18227TIP3    H176172   1.272   6.752  16.391 -0.8944 -1.9667  0.1754
18227TIP3    H276173   1.142   6.703  16.452 -0.7485 -0.3002  1.8416
18228TIP3   OH276174   3.136   6.656   0.437 -0.3215 -0.0303  0.1320
18228TIP3    H176175   3.222   6.619   0.458  1.1902  2.6329 -1.1488
18228TIP3    H276176   3.085   6.581   0.406  2.1879 -1.3244 -1.0374
18229TIP3   OH276177   4.507   4.257   0.197 -0.6825 -0.0807  0.1297
18229TIP3    H176178   4.587   4.248   0.248 -0.4880 -1.5916 -0.3943
18229TIP3    H276179   4.451   4.314   0.249  0.6221  0.7705  0.6284
18230TIP3   OH276180   5.289   6.711   0.229  0.0900  0.1004 -0.0585
18230TIP3    H176181   5.218   6.753   0.278 -1.0854 -2.9095  0.9195
18230TIP3    H276182   5.369   6.739   0.273 -0.6472  1.3255  0.5307
18231TIP3   OH276183   2.922   4.339  12.258 -0.1292  0.3128 -0.1403
18231TIP3    H176184   2.994   4.318  12.199  1.3577  0.8502  1.4512
18231TIP3    H276185   2.957   4.322  12.345 -1.7038  1.2326  0.6845
18232TIP3   OH276186   2.531   4.126   5.295  0.1527 -0.1593  0.8216
18232TIP3    H176187   2.454   4.183   5.290  1.2377  1.5140  2.4754
18232TIP3    H276188   2.528   4.090   5.383  0.4672 -1.2351  0.3938
18233TIP3   OH276189   5.407   6.799   6.128 -0.0214  0.2896 -0.1036
18233TIP3    H176190   5.413   6.784   6.223  0.6683  1.0322 -0.0206
18233TIP3    H276191   5.347   6.732   6.097 -1.3424  0.8962  1.0765
18234TIP3   OH276192   2.943   3.525   3.271 -0.0029  0.4781  0.3869
18234TIP3    H176193   2.957   3.556   3.182 -2.8785 -1.9161 -1.0062
18234TIP3    H276194   3.002   3.451   3.281 -2.1119 -1.4558 -0.8638
18235TIP3   OH276195   2.022   2.668  13.720 -0.2646 -0.2935  0.1328
18235TIP3    H176196   1.983   2.641  13.637  0.3896  2.0742 -0.9945
18235TIP3    H276197   2.116   2.675  13.703 -0.1166  0.2014  1.0649
18236TIP3   OH276198   6.579   3.750   2.491  0.0301  0.1537  0.3303
18236TIP3    H176199   6.603   3.658   2.502  0.0591  0.0717 -0.3685
18236TIP3    H276200   6.641   3.782   2.426 -0.4739  0.4658  0.0028
18237TIP3   OH276201   4.921   0.842  11.486 -0.6866  0.3605 -0.1886
18237TIP3    H176202   4.974   0.762  11.479 -1.0528  0.1294 -0.3506
18237TIP3    H276203   4.931   0.884  11.401 -1.4498 -0.1215 -0.5266
18238TIP3   OH276204   0.532   5.030  15.418  0.0260  0.0812  0.1894
18238TIP3    H176205   0.509   5.121  15.400 -1.7440  0.0030  2.0092
18238TIP3    H276206   0.579   5.033  15.501 -0.0138 -0.6803  0.2424
18239TIP3   OH276207   3.433   3.267   5.612  0.3931  0.3180 -0.2615
18239TIP3    H176208   3.392   3.323   5.546  2.0827  1.1099 -0.6812
18239TIP3    H276209   3.389   3.183   5.603 -0.9858  1.0768 -0.8223
18240TIP3   OH276210   2.025   6.690   1.037 -0.4125 -0.2936 -0.2235
18240TIP3    H176211   2.092   6.637   1.081  0.0312  0.2502 -0.2453
18240TIP3    H276212   1.977   6.627   0.983  0.0637 -0.6921 -0.1896
18241TIP3   OH276213   6.572   1.340   3.281  0.0444 -0.3878  0.0810
18241TIP3    H176214   6.562   1.307   3.192 -1.2565 -0.9017  0.4113
18241TIP3    H276215   6.591   1.263   3.334  0.4309 -0.1332  0.3222
18242TIP3   OH276216   6.463   4.438   3.463 -0.4883  0.3817  0.2011
18242TIP3    H176217   6.519   4.454   3.539 -0.1435  0.0485  0.0183
18242TIP3    H276218   6.478   4.515   3.407  1.2893 -0.6244 -0.7461
18243TIP3   OH276219   0.550   5.390   1.128  0.2592  0.0176 -0.1709
18243TIP3    H176220   0.455   5.386   1.118  0.0713  0.4939  1.3239
18243TIP3    H276221   0.580   5.439   1.052 -0.5238 -1.5895 -1.5375
18244TIP3   OH276222   3.982   4.802  14.082 -0.0836  0.5222 -0.2791
18244TIP3    H176223   3.985   4.707  14.067 -2.0118  0.1316  1.5164
18244TIP3    H276224   4.064   4.822  14.126 -0.6815 -0.7531  1.4809
18245TIP3   OH276225   3.069   2.826   1.310 -0.6102 -0.4212 -0.6401
18245TIP3    H176226   3.059   2.912   1.352 -0.0829 -0.7884  0.2498
18245TIP3    H276227   3.150   2.834   1.259  0.2037 -0.8386  0.5727
18246TIP3   OH276228   0.413   4.936   6.092 -0.7849 -0.0397  0.3744
18246TIP3    H176229   0.404   4.902   6.003 -0.5426 -0.6979  0.5941
18246TIP3    H276230   0.345   4.889   6.142 -0.6558  0.0299  0.6154
18247TIP3   OH276231   0.640   3.246   6.007  0.0312 -0.2464  0.0308
18247TIP3    H176232   0.553   3.279   5.985  1.9038  4.9674 -0.3293
18247TIP3    H276233   0.637   3.233   6.101 -1.8298 -2.5635 -0.3035
18248TIP3   OH276234   4.447   4.893   1.312  0.0229  0.5192 -0.1742
18248TIP3    H176235   4.420   4.876   1.402  0.7371 -2.5683 -0.4854
18248TIP3    H276236   4.383   4.956   1.279 -0.8168  0.9306  2.1709
18249TIP3   OH276237   3.324   0.081  15.407 -0.0629 -0.1854  0.1267
18249TIP3    H176238   3.272   0.002  15.424  0.4889 -0.5855 -0.0422
18249TIP3    H276239   3.411   0.059  15.440  0.3923 -0.0723 -1.0007
18250TIP3   OH276240   5.363   2.460   1.687 -0.1586  0.2375  0.2142
18250TIP3    H176241   5.358   2.526   1.618  1.5007 -0.1698 -0.3490
18250TIP3    H276242   5.326   2.502   1.765  0.4144  1.6477 -0.2593
18251TIP3   OH276243   5.936   4.343  14.854  0.5256  0.0706 -0.1809
18251TIP3    H176244   5.938   4.386  14.769 -0.7208  1.3296  0.4023
18251TIP3    H276245   5.884   4.264  14.841 -0.6013  0.8379 -0.3255
18252TIP3   OH276246   0.327   5.378   5.561 -0.5835  0.0574  0.6323
18252TIP3    H176247   0.300   5.286   5.553 -1.9409  0.5788 -1.2417
18252TIP3    H276248   0.393   5.378   5.630  0.7667 -2.6121 -0.6047
18253TIP3   OH276249   3.805   5.320  12.113  0.6225 -0.1548  0.1516
18253TIP3    H176250   3.830   5.268  12.189 -2.0224 -1.7658 -0.0378
18253TIP3    H276251   3.768   5.400  12.150  1.4178  0.0547  0.5057
18254TIP3   OH276252   4.669   1.060  14.267 -0.0703 -0.2003  0.2721
18254TIP3    H176253   4.644   1.010  14.190  0.3389  1.8628 -1.2537
18254TIP3    H276254   4.592   1.059  14.324 -0.1155 -2.3740  0.1820
18255TIP3   OH276255   5.174   4.320  11.994 -0.3442  0.3717  0.6262
18255TIP3    H176256   5.265   4.333  11.967 -0.4806 -1.3264 -0.7320
18255TIP3    H276257   5.128   4.398  11.963  0.4433  0.7497  0.4042
18256TIP3   OH276258   1.765   5.660   5.049  0.0051 -0.0886  0.6311
18256TIP3    H176259   1.785   5.746   5.013 -2.1244 -1.4189 -4.1504
18256TIP3    H276260   1.843   5.607   5.029 -0.3865 -0.3338 -0.2451
18257TIP3   OH276261   6.019   2.858  15.543  0.2728  0.3490 -0.3671
18257TIP3    H176262   5.956   2.860  15.471  0.0376 -0.1890 -0.1787
18257TIP3    H276263   5.973   2.902  15.615  0.2627  0.2979 -0.3428
18258TIP3   OH276264   3.314   5.993  11.686  0.0828 -0.1001  0.7227
18258TIP3    H176265   3.299   5.923  11.749  0.1759 -0.6257  0.1620
18258TIP3    H276266   3.227   6.023  11.662 -0.0105 -1.0577 -0.1861
18259TIP3   OH276267   2.838   6.269   3.382 -0.5423  0.2700  0.8094
18259TIP3    H176268   2.867   6.226   3.462 -0.7211 -1.1896  0.0938
18259TIP3    H276269   2.874   6.358   3.389  3.8753 -1.3482  0.0796
18260TIP3   OH276270   0.574   6.385  12.504 -0.0158 -0.4292  0.6668
18260TIP3    H176271   0.616   6.352  12.425  0.6364 -0.3890  0.9993
18260TIP3    H276272   0.487   6.345  12.503 -0.2301  0.0372 -0.3821
18261TIP3   OH276273   2.579   4.274   3.499  0.3291 -0.1003  0.1975
18261TIP3    H176274   2.561   4.184   3.527 -1.1131 -0.5969 -2.1443
18261TIP3    H276275   2.497   4.321   3.516 -0.8077 -0.5492 -3.4908
18262TIP3   OH276276   2.549   0.816   3.721 -0.0721 -0.4251  0.1745
18262TIP3    H176277   2.546   0.806   3.626 -1.6153 -2.0803  0.3656
18262TIP3    H276278   2.570   0.728   3.754  0.6165  0.1666  1.3599
18263TIP3   OH276279   2.378   1.950  15.260  0.5366 -0.3577 -1.1230
18263TIP3    H176280   2.469   1.922  15.255  1.2835  1.4914  1.2112
18263TIP3    H276281   2.379   2.040  15.229 -0.3491 -0.0687 -0.3488
18264TIP3   OH276282   4.111   6.345  12.460  0.3210  0.3845 -0.1873
18264TIP3    H176283   4.126   6.432  12.423  1.7466  0.3804  0.3185
18264TIP3    H276284   4.019   6.346  12.487  0.6726  2.2375  1.0822
18265TIP3   OH276285   6.124   4.604  13.583 -0.1717 -0.3074 -0.2761
18265TIP3    H176286   6.083   4.530  13.628 -0.2491 -0.5538 -0.7515
18265TIP3    H276287   6.055   4.670  13.578  0.6547  0.8764  2.5824
18266TIP3   OH276288   6.379   2.784  13.141 -0.1409  0.0859  0.0156
18266TIP3    H176289   6.402   2.847  13.210  0.2549  1.0066 -0.9543
18266TIP3    H276290   6.460   2.736  13.125 -0.3511 -0.4332  0.5120
18267TIP3   OH276291   4.657   6.006  16.199  0.7043 -0.1672  0.2748
18267TIP3    H176292   4.602   6.078  16.230 -0.5069 -1.2091  0.5802
18267TIP3    H276293   4.623   5.928  16.243 -0.4016 -1.5278 -2.7720
18268TIP3   OH276294   5.083   2.413   0.244 -0.9390 -0.3682 -0.2860
18268TIP3    H176295   5.133   2.490   0.269 -0.2476 -0.4806 -1.2924
18268TIP3    H276296   5.015   2.406   0.311 -0.9784  1.0803 -0.1635
18269TIP3   OH276297   6.132   2.836   0.287 -0.3183 -0.0331  0.2623
18269TIP3    H176298   6.050   2.841   0.238 -0.9811 -1.3849  1.2170
18269TIP3    H276299   6.121   2.900   0.358  0.0111  0.7815 -0.4147
18270TIP3   OH276300   2.358   2.935   6.371  0.3138  0.3046  0.0666
18270TIP3    H176301   2.443   2.891   6.374  1.0138  1.6474  0.3535
18270TIP3    H276302   2.378   3.027   6.388 -1.1210  0.7412 -0.5259
18271TIP3   OH276303   0.741   6.574   2.217 -0.3345  0.1155  0.1690
18271TIP3    H176304   0.775   6.501   2.268 -2.3376 -2.0752 -1.4899
18271TIP3    H276305   0.680   6.618   2.276  0.6480  0.2480  1.0851
18272TIP3   OH276306   3.044   2.135  14.726  0.0035 -0.8453  0.5819
18272TIP3    H176307   3.071   2.073  14.794  2.4006 -0.3991  0.0629
18272TIP3    H276308   3.087   2.217  14.749 -1.9425  0.2569  0.4127
18273TIP3   OH276309   2.110   3.662   5.611  0.2197  0.2386 -0.0592
18273TIP3    H176310   2.112   3.667   5.706 -0.6996 -0.6861  0.0147
18273TIP3    H276311   2.100   3.753   5.582 -0.3602  0.4327  0.7507
18274TIP3   OH276312   2.553   3.537   0.867  0.7050 -0.3729  0.6923
18274TIP3    H176313   2.616   3.484   0.819  0.3721 -0.3699  0.2428
18274TIP3    H276314   2.532   3.609   0.807 -1.6793 -1.7640 -0.2187
18275TIP3   OH276315   2.867   3.534  17.034  0.1129  0.2114  0.0501
18275TIP3    H176316   2.867   3.475  16.959  3.6642  0.6218 -0.3508
18275TIP3    H276317   2.868   3.476  17.110  0.8759 -0.2344 -0.2949
18276TIP3   OH276318   4.149   6.812   1.240  0.0783 -0.8852  0.0044
18276TIP3    H176319   4.229   6.759   1.240  0.0107 -1.0972  2.8904
18276TIP3    H276320   4.168   6.883   1.302 -1.1102  0.4537 -1.1318
18277TIP3   OH276321   0.574   0.948  14.656 -0.2205  0.0052 -0.1431
18277TIP3    H176322   0.559   0.903  14.740  0.3500 -0.3722 -0.2391
18277TIP3    H276323   0.491   0.989  14.636  0.1558  1.6501  1.5263
18278TIP3   OH276324   3.642   4.669   1.838  0.0847 -0.2192  0.5831
18278TIP3    H176325   3.578   4.600   1.826  0.8351 -0.9133  0.5304
18278TIP3    H276326   3.600   4.748   1.802 -0.2052 -0.9553 -0.7325
18279TIP3   OH276327   0.574   0.529  11.859  0.3123 -0.6416  0.9146
18279TIP3    H176328   0.646   0.529  11.795  0.2798  0.4065  0.8727
18279TIP3    H276329   0.598   0.597  11.922  0.5909 -2.0158  2.3139
18280TIP3   OH276330   2.692   4.453  12.151 -0.0571  0.0515 -0.2376
18280TIP3    H176331   2.781   4.438  12.182  0.0763  0.2981 -0.4936
18280TIP3    H276332   2.637   4.438  12.227  0.2344  0.2768  0.0201
18281TIP3   OH276333   0.176   1.082   6.431  0.7772 -0.2208  0.2775
18281TIP3    H176334   0.186   0.998   6.387  0.3936 -1.6826  2.8157
18281TIP3    H276335   0.265   1.114   6.442  1.0836 -1.2768  1.0318
18282TIP3   OH276336   2.955   4.563  15.413  0.4519  0.1880  0.2066
18282TIP3    H176337   2.874   4.517  15.392  0.5936  0.7684 -1.6818
18282TIP3    H276338   2.928   4.653  15.433  0.3179 -0.3470  2.6408
18283TIP3   OH276339   6.355   6.000   2.379 -0.2609 -0.5141  0.7583
18283TIP3    H176340   6.280   5.982   2.322 -0.3760  1.6586  0.1766
18283TIP3    H276341   6.431   5.965   2.332 -0.5756 -0.3052  0.0955
18284TIP3   OH276342   4.575   3.652   0.793 -0.1354 -0.2458 -0.1380
18284TIP3    H176343   4.567   3.702   0.874 -2.2764 -1.1619  0.2303
18284TIP3    H276344   4.664   3.615   0.796  0.4686  1.2581  0.8757
18285TIP3   OH276345   2.155   3.335  11.522 -0.1921  0.1070  0.3161
18285TIP3    H176346   2.249   3.346  11.537 -0.0988  0.9542 -0.8014
18285TIP3    H276347   2.144   3.240  11.511  0.9564  0.2107 -2.0447
18286TIP3   OH276348   0.866   1.832  13.970 -0.2174  0.2891  0.1473
18286TIP3    H176349   0.955   1.867  13.970  0.1990 -0.7325 -1.3053
18286TIP3    H276350   0.824   1.870  13.893 -0.8674  0.3118  0.5036
18287TIP3   OH276351   3.377   5.635  14.091 -0.3521  0.0177 -0.3329
18287TIP3    H176352   3.455   5.629  14.146  0.1535 -0.9519 -1.1376
18287TIP3    H276353   3.310   5.672  14.148 -0.4496 -2.9832  1.5928
18288TIP3   OH276354   4.441   6.653  12.828 -0.5529 -0.2907 -0.0580
18288TIP3    H176355   4.492   6.618  12.756 -2.7525  0.2556 -1.9681
18288TIP3    H276356   4.375   6.708  12.786 -2.5839 -0.8093  2.3071
18289TIP3   OH276357   2.071   6.667   2.787  0.2271 -1.3474 -0.2861
18289TIP3    H176358   2.094   6.758   2.768  0.7698 -1.2116  0.9570
18289TIP3    H276359   1.985   6.672   2.830 -0.5957 -1.5789 -1.8779
18290TIP3   OH276360   5.692   2.084  11.206  0.2757  0.2143  0.2627
18290TIP3    H176361   5.779   2.094  11.167  0.2618 -0.5723  0.0148
18290TIP3    H276362   5.707   2.038  11.288  0.2090  1.1171  0.7935
18291TIP3   OH276363   0.359   2.024   0.419 -0.3739  0.3531 -0.3578
18291TIP3    H176364   0.445   2.005   0.457 -1.7669  0.4057  2.9114
18291TIP3    H276365   0.360   2.118   0.402 -0.3468  0.6369  1.1763
18292TIP3   OH276366   0.802   5.093   0.367 -0.3172 -0.2098  0.5234
18292TIP3    H176367   0.849   5.036   0.306  1.0566  0.4374  0.9627
18292TIP3    H276368   0.717   5.107   0.325  0.5738  0.1599 -1.2351
18293TIP3   OH276369   6.604   1.693   4.295 -0.2659 -0.0430 -0.4821
18293TIP3    H176370   6.620   1.772   4.243 -0.4447 -0.1950 -0.7683
18293TIP3    H276371   6.515   1.667   4.272  0.4078 -1.3373 -1.7263
18294TIP3   OH276372   2.708   4.718   3.488  0.0072 -0.3966 -0.0980
18294TIP3    H176373   2.750   4.742   3.570  1.1393 -0.2196 -0.7224
18294TIP3    H276374   2.780   4.707   3.426 -0.5365 -3.8505 -0.2518
18295TIP3   OH276375   2.282   1.020   1.423 -0.3792  0.4737 -0.1780
18295TIP3    H176376   2.229   0.998   1.500 -1.0684  0.3384 -0.6862
18295TIP3    H276377   2.273   0.944   1.365 -1.5644  1.4502 -1.2944
18296TIP3   OH276378   5.984   4.843   6.033  0.3910  0.0072 -0.1136
18296TIP3    H176379   5.900   4.811   6.002 -0.2107  1.4537 -0.0039
18296TIP3    H276380   5.963   4.895   6.111  1.3988  0.2664 -0.0051
18297TIP3   OH276381   0.295   2.256   6.549 -0.4388 -0.3471 -0.4531
18297TIP3    H176382   0.336   2.324   6.602  2.1361 -1.1389 -1.3456
18297TIP3    H276383   0.255   2.197   6.612 -0.2777  0.4892  0.4452
18298TIP3   OH276384   6.010   5.844  14.716  0.1413 -0.0944 -0.5005
18298TIP3    H176385   6.066   5.879  14.647 -0.6644 -0.0906 -1.1667
18298TIP3    H276386   6.065   5.780  14.762  0.6216 -0.2582 -1.2934
18299TIP3   OH276387   0.323   4.226   2.250  0.6068 -0.8033 -0.4454
18299TIP3    H176388   0.370   4.238   2.333  0.2489  0.7391 -0.4469
18299TIP3    H276389   0.361   4.147   2.212  1.5127 -0.9277  0.6971
18300TIP3   OH276390   1.866   5.278  13.578 -0.5142 -0.3429  0.2431
18300TIP3    H176391   1.798   5.270  13.645  0.5733 -2.1901  1.1515
18300TIP3    H276392   1.889   5.188  13.556  0.2128  0.2530 -1.5421
18301TIP3   OH276393   6.524   1.909   4.082  0.4533  0.1385 -0.1453
18301TIP3    H176394   6.443   1.866   4.056 -0.3399 -0.4855  3.1535
18301TIP3    H276395   6.500   2.000   4.098  0.2767 -0.1455  1.2706
18302TIP3   OH276396   6.439   3.283   4.871 -0.2494  0.3821  0.2722
18302TIP3    H176397   6.344   3.284   4.864 -0.4039  0.8447  2.3319
18302TIP3    H276398   6.464   3.197   4.837 -1.3019  0.6605 -1.2546
18303TIP3   OH276399   2.941   4.192  14.733 -0.2871  0.2098 -0.2300
18303TIP3    H176400   2.890   4.270  14.756 -1.6242 -1.2186  1.8641
18303TIP3    H276401   2.932   4.134  14.809 -0.4731 -2.5739 -2.2915
18304TIP3   OH276402   2.099   1.105  11.356  0.1917 -0.2245 -0.0440
18304TIP3    H176403   2.123   1.016  11.328  1.7913 -0.1079  0.9225
18304TIP3    H276404   2.050   1.141  11.282  1.4901 -1.1057 -1.3487
18305TIP3   OH276405   2.669   3.054  14.578 -0.0005 -0.2054  0.0055
18305TIP3    H176406   2.630   2.967  14.578 -0.4564 -0.0090  0.7671
18305TIP3    H276407   2.762   3.040  14.563 -0.3477 -0.6896 -1.7669
18306TIP3   OH276408   0.766   5.705  14.295  0.3919 -0.1672  0.2086
18306TIP3    H176409   0.860   5.707  14.277  0.0787 -0.7851 -1.6223
18306TIP3    H276410   0.725   5.743  14.217 -0.8338  1.0121  1.3931
18307TIP3   OH276411   3.143   3.196  12.018 -0.3556  0.2875  0.2825
18307TIP3    H176412   3.192   3.132  11.965 -0.4413 -0.1330  0.7114
18307TIP3    H276413   3.123   3.150  12.099  0.4305  1.1873  0.9969
18308TIP3   OH276414   2.234   2.187   0.009 -0.0246  0.4108 -0.2267
18308TIP3    H176415   2.271   2.161  -0.076  1.7384  0.2709  0.5608
18308TIP3    H276416   2.145   2.152   0.008  0.6535 -1.3636 -1.1977
18309TIP3   OH276417   1.915   2.435  14.417 -0.0365  0.2405  0.6568
18309TIP3    H176418   1.835   2.416  14.369 -0.9603 -1.6440  2.8279
18309TIP3    H276419   1.983   2.442  14.349 -1.7318  0.2473 -1.0776
18310TIP3   OH276420   5.297   3.850  15.594 -0.5341 -0.2445  0.1545
18310TIP3    H176421   5.269   3.897  15.673  0.2111  1.8153 -0.7820
18310TIP3    H276422   5.225   3.861  15.532 -0.2166 -0.0283 -0.1804
18311TIP3   OH276423   4.234   3.564  11.924  0.1084 -0.0235  0.1693
18311TIP3    H176424   4.187   3.547  12.005 -0.1521  1.9241  0.4574
18311TIP3    H276425   4.186   3.516  11.857 -0.7142 -0.2030  0.8937
18312TIP3   OH276426   0.545   3.086  12.686  0.2779 -0.2159  0.6205
18312TIP3    H176427   0.456   3.093  12.722 -0.9981  1.0997 -2.5874
18312TIP3    H276428   0.541   3.135  12.604  3.3351 -2.1424 -0.7509
18313TIP3   OH276429   4.792   5.161  11.792  0.2012 -0.3284 -0.4190
18313TIP3    H176430   4.795   5.232  11.728  1.4382 -0.6958 -0.7717
18313TIP3    H276431   4.802   5.204  11.876 -0.4925  0.0584 -0.5263
18314TIP3   OH276432   1.048   6.729   4.839  0.2101  0.1290 -0.3879
18314TIP3    H176433   1.123   6.677   4.811  1.1086  0.7132  0.9276
18314TIP3    H276434   0.972   6.673   4.819  1.0949 -1.2661  0.0560
18315TIP3   OH276435   1.223   6.485  16.630 -0.2813  0.0447 -0.3169
18315TIP3    H176436   1.300   6.466  16.683 -0.9584  2.6427  1.7079
18315TIP3    H276437   1.256   6.494  16.541  1.4879 -0.4434  0.2812
18316TIP3   OH276438   4.954   3.026   0.638 -0.0017  0.2017  0.1523
18316TIP3    H176439   5.005   2.987   0.568 -2.2795 -2.7263 -0.0039
18316TIP3    H276440   5.015   3.083   0.685  2.4314 -0.5391 -2.0430
18317TIP3   OH276441   1.821   5.355  16.998  0.3723 -0.0620 -0.1221
18317TIP3    H176442   1.902   5.387  17.039  0.4296 -0.9172  0.4416
18317TIP3    H276443   1.844   5.269  16.964  0.1945  0.4523 -1.5781
18318TIP3   OH276444   5.335   2.230   3.339 -0.1322  0.3849 -0.3008
18318TIP3    H176445   5.275   2.157   3.322  0.5440  0.1457 -1.7570
18318TIP3    H276446   5.286   2.308   3.316 -1.0913  0.4710  1.8949
18319TIP3   OH276447   1.371   3.691   2.355  0.0987 -0.3850 -0.2335
18319TIP3    H176448   1.307   3.724   2.292  1.0158 -1.1776 -1.6073
18319TIP3    H276449   1.455   3.693   2.308  1.2113  1.1925  1.7146
18320TIP3   OH276450   0.325   0.506  13.453  0.1187  0.2538 -0.0045
18320TIP3    H176451   0.314   0.535  13.362  0.2589  0.2708 -0.0163
18320TIP3    H276452   0.316   0.411  13.449 -0.1420  0.2784  0.0048
18321TIP3   OH276453   2.452   6.590  11.896 -0.0816  0.2265 -1.1827
18321TIP3    H176454   2.416   6.582  11.985 -0.6106 -1.1584 -1.5155
18321TIP3    H276455   2.459   6.685  11.882  3.5249  0.5096  1.7250
18322TIP3   OH276456   6.448   5.146  14.279 -0.0080  0.5257  0.0979
18322TIP3    H176457   6.361   5.154  14.241  0.4371 -0.7419 -1.2696
18322TIP3    H276458   6.464   5.229  14.323 -2.6847  0.0738  2.0632
18323TIP3   OH276459   0.248   0.150   2.743  0.1669  0.1531 -0.0625
18323TIP3    H176460   0.186   0.103   2.687 -0.8581  1.1749  0.2017
18323TIP3    H276461   0.198   0.169   2.822  0.9485  0.6321  0.3164
18324TIP3   OH276462   5.858   2.377   0.761 -0.5857 -0.6416 -0.7918
18324TIP3    H176463   5.923   2.368   0.831 -0.6268 -2.1016 -0.9244
18324TIP3    H276464   5.909   2.389   0.682 -0.4497 -1.9887 -0.9241
18325TIP3   OH276465   6.793   3.807  16.570 -0.1169  0.1765  0.5262
18325TIP3    H176466   6.811   3.885  16.624 -1.0067  1.5635 -1.1288
18325TIP3    H276467   6.699   3.795  16.577  0.1458 -1.3775  1.5646
18326TIP3   OH276468   2.289   5.328   2.463  0.3542 -0.1592  0.5002
18326TIP3    H176469   2.362   5.304   2.405 -0.2552  0.7466 -0.6758
18326TIP3    H276470   2.288   5.424   2.461 -0.1346 -0.1448  1.4310
18327TIP3   OH276471   4.006   6.089   2.450 -0.5850 -0.3478  0.0465
18327TIP3    H176472   3.921   6.132   2.451  0.0590  0.9294  1.3597
18327TIP3    H276473   4.047   6.118   2.368 -0.9526 -0.0696 -0.0414
18328TIP3   OH276474   4.935   3.295  16.059  0.1880 -0.2351 -0.2607
18328TIP3    H176475   4.965   3.266  16.145 -1.1664 -2.0612 -0.3753
18328TIP3    H276476   4.856   3.346  16.078 -0.4531 -1.1484 -0.4601
18329TIP3   OH276477   3.727   0.186   4.936 -0.5495 -0.0220  0.3701
18329TIP3    H176478   3.699   0.269   4.974  0.0604  0.1219  0.5067
18329TIP3    H276479   3.776   0.211   4.858 -0.2605 -0.2476  0.4789
18330TIP3   OH276480   0.103   0.338  11.173  0.2089  0.8759  0.0457
18330TIP3    H176481   0.066   0.354  11.087  0.1202 -2.2908 -0.5324
18330TIP3    H276482   0.187   0.295  11.157  0.9653  1.7391  1.5096
18331TIP3   OH276483   4.738   0.933   3.042  0.1313 -0.5026  0.2587
18331TIP3    H176484   4.661   0.886   3.075 -1.0354  1.9775  1.2097
18331TIP3    H276485   4.772   0.980   3.118  1.3797  0.0251 -0.6121
18332TIP3   OH276486   4.330   4.353  12.013  0.1117  0.3732  0.6323
18332TIP3    H176487   4.409   4.304  12.036 -0.9727 -1.8680 -0.2384
18332TIP3    H276488   4.346   4.381  11.922  0.0050  0.1547  0.5475
18333TIP3   OH276489   2.310   5.148   0.352 -0.1104  0.4309 -0.1140
18333TIP3    H176490   2.280   5.233   0.319 -0.6549  0.8825  1.4741
18333TIP3    H276491   2.387   5.169   0.405  0.2776 -0.1698 -0.4473
18334TIP3   OH276492   0.872   5.821   5.560  0.5065 -0.0275 -0.1171
18334TIP3    H176493   0.817   5.759   5.608  0.8809 -0.4300 -0.1985
18334TIP3    H276494   0.870   5.790   5.470  1.3317 -0.3929 -0.0179
18335TIP3   OH276495   3.960   3.514  16.353 -0.1754 -0.0577  0.3630
18335TIP3    H176496   3.955   3.421  16.376  1.5205 -0.1899  0.2528
18335TIP3    H276497   4.019   3.551  16.419 -0.2173  0.7868 -0.0729
18336TIP3   OH276498   3.974   2.411   4.881  0.0010 -0.0977  0.0265
18336TIP3    H176499   3.880   2.420   4.897 -0.0852  2.5045 -1.6067
18336TIP3    H276500   4.014   2.484   4.928  1.3749 -1.8254  1.6431
18337TIP3   OH276501   3.662   4.649  14.774 -0.2387 -0.0691  0.3394
18337TIP3    H176502   3.704   4.717  14.826  1.7615 -0.3885 -0.8039
18337TIP3    H276503   3.666   4.682  14.684 -0.3709 -1.1273 -0.0604
18338TIP3   OH276504   0.990   3.330   2.361  0.8189  0.0497 -0.0696
18338TIP3    H176505   1.084   3.345   2.374  0.7433 -1.1216  2.2662
18338TIP3    H276506   0.975   3.345   2.268  3.7950 -2.0790 -0.9627
18339TIP3   OH276507   5.440   2.782  15.482  0.0203 -0.3141  0.5614
18339TIP3    H176508   5.503   2.851  15.501 -1.3717  0.7272  1.5294
18339TIP3    H276509   5.482   2.728  15.416  1.3406  1.1858  0.1476
18340TIP3   OH276510   4.155   6.638   5.126 -0.0907 -0.3436  0.2454
18340TIP3    H176511   4.111   6.689   5.058  0.3611  0.4195  0.5281
18340TIP3    H276512   4.248   6.659   5.115 -0.1265  0.7922  1.9349
18341TIP3   OH276513   1.496   5.568  16.603 -0.4826 -0.6876 -0.5511
18341TIP3    H176514   1.494   5.498  16.537  1.4852  1.3779 -2.8864
18341TIP3    H276515   1.571   5.622  16.579 -0.1240  0.5229  3.0403
18342TIP3   OH276516   0.692   4.069   5.753 -0.4612 -0.0418  0.6045
18342TIP3    H176517   0.623   4.034   5.697  0.0574 -0.4440  0.2087
18342TIP3    H276518   0.648   4.087   5.836 -1.2954  0.8508 -0.0174
18343TIP3   OH276519   1.270   0.624  16.672  0.4209 -0.1561 -0.5323
18343TIP3    H176520   1.297   0.649  16.584 -1.9553 -2.1307 -1.8732
18343TIP3    H276521   1.225   0.541  16.661 -0.1878 -0.2900  2.5232
18344TIP3   OH276522   5.582   2.236  13.011  0.4627  0.7477 -0.1793
18344TIP3    H176523   5.661   2.187  13.030 -0.3857  0.3081  2.3671
18344TIP3    H276524   5.606   2.294  12.939  1.9609 -2.1530 -2.0990
18345TIP3   OH276525   1.481   0.892   2.318 -0.3262 -0.1353  0.1308
18345TIP3    H176526   1.418   0.835   2.362 -0.0110  0.3066  1.1744
18345TIP3    H276527   1.433   0.927   2.243 -0.7759 -1.1252 -0.0606
18346TIP3   OH276528   3.904   5.157   0.117 -0.5365  0.9084  0.3307
18346TIP3    H176529   3.906   5.131   0.025 -0.5327 -0.0064  0.5913
18346TIP3    H276530   3.964   5.097   0.160  0.5471  2.2485  0.7053
18347TIP3   OH276531   5.933   2.863  17.115  0.3701 -0.2184 -0.3435
18347TIP3    H176532   5.893   2.778  17.097  0.2987 -0.6221  1.6575
18347TIP3    H276533   5.872   2.926  17.077 -1.3087 -0.9245  1.0902
18348TIP3   OH276534   0.764   4.132   5.011 -0.1955  0.1132 -0.2173
18348TIP3    H176535   0.715   4.057   4.977  0.4706 -0.0337 -0.8414
18348TIP3    H276536   0.698   4.202   5.020 -0.9275 -0.6943  0.8645
18349TIP3   OH276537   4.909   5.204   5.555 -1.0559 -0.1025 -0.5618
18349TIP3    H176538   4.848   5.169   5.490  0.1170 -0.5050 -1.4666
18349TIP3    H276539   4.980   5.242   5.503 -0.3966  0.1129  0.4811
18350TIP3   OH276540   4.755   1.103  13.861 -0.1232 -0.1151  0.4839
18350TIP3    H176541   4.835   1.105  13.913 -1.1879  1.8028  2.1091
18350TIP3    H276542   4.696   1.043  13.909 -0.6662  0.6937  0.8352
18351TIP3   OH276543   3.114   2.780  13.027  0.0031 -0.0168  0.1410
18351TIP3    H176544   3.022   2.770  13.003 -0.5855  2.6054  1.1279
18351TIP3    H276545   3.160   2.783  12.943 -1.2870  2.4285 -0.5400
18352TIP3   OH276546   4.749   1.636  12.235  0.0630 -0.6564  0.0679
18352TIP3    H176547   4.782   1.708  12.289 -1.3518 -0.0890  0.1842
18352TIP3    H276548   4.804   1.638  12.157  0.2652  0.3226  0.2293
18353TIP3   OH276549   5.287   5.137  15.860 -0.3222 -0.2907 -0.1107
18353TIP3    H176550   5.235   5.118  15.782 -0.3174 -1.2981  0.1257
18353TIP3    H276551   5.289   5.232  15.865 -1.5169 -0.2346 -0.5514
18354TIP3   OH276552   3.563   1.788   5.524 -0.2272 -0.3445 -0.5029
18354TIP3    H176553   3.494   1.756   5.582 -0.9024  0.1002 -1.0459
18354TIP3    H276554   3.641   1.742   5.552 -0.6398 -0.4801  0.4563
18355TIP3   OH276555   2.205   0.550   5.011  0.5225  0.5918 -0.1338
18355TIP3    H176556   2.223   0.641   4.987 -1.0385  0.6989 -0.9681
18355TIP3    H276557   2.227   0.499   4.933  2.5662  0.0797  0.7278
18356TIP3   OH276558   4.609   5.494   5.113  0.3416  0.1765 -0.1403
18356TIP3    H176559   4.636   5.411   5.152 -1.3169 -0.2835  0.0721
18356TIP3    H276560   4.687   5.526   5.068  1.7279 -0.2287  1.9214
18357TIP3   OH276561   0.157   2.842  12.739 -0.0506  0.4991  0.4057
18357TIP3    H176562   0.115   2.836  12.654 -0.8155 -1.2158  0.8850
18357TIP3    H276563   0.196   2.755  12.753  0.7568  1.0111  1.4483
18358TIP3   OH276564   4.278   4.959  14.648  0.0786 -0.2307  0.3602
18358TIP3    H176565   4.258   4.906  14.571 -0.1204 -1.0795  0.9916
18358TIP3    H276566   4.258   5.049  14.621 -0.9084 -0.6286 -0.2728
18359TIP3   OH276567   3.444   3.364  13.006  0.2505 -0.2352  0.4012
18359TIP3    H176568   3.458   3.323  12.920  0.3134 -1.5224  1.0071
18359TIP3    H276569   3.350   3.352  13.023 -0.0864  1.4445 -0.1886
18360TIP3   OH276570   5.983   5.156   6.130  0.0261 -0.3088 -0.5267
18360TIP3    H176571   5.925   5.087   6.165 -0.3155  0.2632  0.0451
18360TIP3    H276572   6.008   5.207   6.207  1.7638 -0.8916 -0.6818
18361TIP3   OH276573   0.167   3.034   5.836 -0.0035 -0.3266  0.1053
18361TIP3    H176574   0.203   3.084   5.763 -0.8337  0.4311  0.2046
18361TIP3    H276575   0.212   3.069   5.913  0.3059 -0.5880  0.0458
18362TIP3   OH276576   3.464   3.702  16.152  0.6841  0.1208 -0.1340
18362TIP3    H176577   3.389   3.645  16.133 -0.2233  0.6042  1.8203
18362TIP3    H276578   3.528   3.644  16.193  0.6103  0.1008 -0.0475
18363TIP3   OH276579   4.582   1.044  16.974  0.6064  0.1473  0.2683
18363TIP3    H176580   4.635   0.964  16.977 -0.4068 -0.5063  2.3547
18363TIP3    H276581   4.613   1.096  17.048  1.0677  1.5712 -0.9122
18364TIP3   OH276582   3.760   4.301  14.486  0.3497  0.0202 -0.0212
18364TIP3    H176583   3.718   4.353  14.554 -0.3111  0.2501 -0.6024
18364TIP3    H276584   3.806   4.232  14.534  0.9605  0.9412  0.7278
18365TIP3   OH276585   6.239   6.703   0.396  0.0752  0.6323 -0.0487
18365TIP3    H176586   6.234   6.770   0.328 -2.5758  1.1090  0.5910
18365TIP3    H276587   6.333   6.682   0.401  0.6022  2.2663 -2.1819
18366TIP3   OH276588   5.582   1.753  12.523 -0.0257 -0.0857  0.7995
18366TIP3    H176589   5.581   1.846  12.546 -0.2117 -0.2187  1.3334
18366TIP3    H276590   5.611   1.752  12.431  1.0781  0.4321  1.1238
18367TIP3   OH276591   5.416   6.621   2.067 -0.2337  0.4528  0.0473
18367TIP3    H176592   5.363   6.558   2.020 -1.6982  0.7090  1.3046
18367TIP3    H276593   5.356   6.659   2.132  1.3316  1.1530  1.1183
18368TIP3   OH276594   3.413   4.685   0.019  0.4652  0.3125  0.1021
18368TIP3    H176595   3.426   4.775   0.051 -1.1287  0.2137  1.0707
18368TIP3    H276596   3.383   4.696  -0.071  1.1385  0.7288 -0.0712
18369TIP3   OH276597   0.868   6.425   4.977  0.2475  0.5228  0.2843
18369TIP3    H176598   0.903   6.336   4.987 -0.0468  0.6356  2.5977
18369TIP3    H276599   0.935   6.481   5.016  0.8846  1.4341 -2.0474
18370TIP3   OH276600   4.338   3.703   5.532  0.3473 -0.4664 -0.0622
18370TIP3    H176601   4.413   3.712   5.591  0.4370 -0.2825 -0.2056
18370TIP3    H276602   4.278   3.646   5.580  1.1883 -1.7966 -0.5511
18371TIP3   OH276603   1.452   6.753  13.709 -0.3397  0.0397  0.1586
18371TIP3    H176604   1.533   6.798  13.684 -1.1742  1.4687 -0.0195
18371TIP3    H276605   1.419   6.803  13.784 -0.1407 -1.6008  1.3811
18372TIP3   OH276606   0.137   0.678   3.191  0.5559 -0.5270 -0.3571
18372TIP3    H176607   0.226   0.647   3.177  0.8562  0.7564 -1.3596
18372TIP3    H276608   0.146   0.760   3.239  0.0136  0.5257 -2.0216
18373TIP3   OH276609   2.613   4.952  12.961 -0.1046  0.1678  0.2839
18373TIP3    H176610   2.656   5.038  12.968 -0.2070  0.3309 -0.9809
18373TIP3    H276611   2.519   4.973  12.956 -0.1897 -0.0695  0.8572
18374TIP3   OH276612   3.637   5.559  14.172  0.3593  0.3936  0.4328
18374TIP3    H176613   3.708   5.599  14.122 -0.1296 -0.1887 -0.7505
18374TIP3    H276614   3.625   5.473  14.133 -1.1295  0.5576  0.4885
18375TIP3   OH276615   3.287   4.513  10.775  0.3067 -0.2551  0.2651
18375TIP3    H176616   3.218   4.580  10.776  1.0143  0.4861  2.7727
18375TIP3    H276617   3.243   4.434  10.744 -1.6748  0.2174  1.7826
18376TIP3   OH276618   6.212   2.498  16.693 -0.3919  0.1600  0.1882
18376TIP3    H176619   6.124   2.525  16.720 -0.4251 -0.7781  1.0209
18376TIP3    H276620   6.256   2.473  16.774  0.9193  1.3507 -0.1235
18377TIP3   OH276621   0.567   1.143   1.101 -0.0904  0.0746  0.1874
18377TIP3    H176622   0.483   1.187   1.089 -0.7583 -1.0023  0.8302
18377TIP3    H276623   0.547   1.070   1.159  1.2454 -0.3398  0.1258
18378TIP3   OH276624   5.654   6.653   0.961 -0.1535 -0.2092 -0.4741
18378TIP3    H176625   5.668   6.559   0.972 -0.7535 -0.3591 -0.9810
18378TIP3    H276626   5.734   6.693   0.994 -1.2057 -0.7293  2.9401
18379TIP3   OH276627   3.186   6.705  13.031  0.2516 -0.0863  0.1583
18379TIP3    H176628   3.151   6.794  13.027  0.3439 -0.0689 -0.3476
18379TIP3    H276629   3.136   6.657  12.964  0.6509 -0.2580 -0.0171
18380TIP3   OH276630   1.157   5.161  14.331 -0.2293  0.5202  0.0169
18380TIP3    H176631   1.201   5.092  14.283 -0.7735  0.7924 -0.8764
18380TIP3    H276632   1.141   5.124  14.418 -0.2865 -0.3738 -0.3730
18381TIP3   OH276633   1.242   3.268  12.303  0.4967  0.2578  0.3219
18381TIP3    H176634   1.313   3.212  12.333  0.3105 -0.8721 -1.2934
18381TIP3    H276635   1.175   3.261  12.371  0.8675 -0.7243  0.5886
18382TIP3   OH276636   6.742   4.555   0.632 -0.1742 -0.1163 -0.4420
18382TIP3    H176637   6.823   4.593   0.665 -0.7554  0.8169 -0.0441
18382TIP3    H276638   6.754   4.461   0.640  0.7079  0.0297  0.0066
18383TIP3   OH276639   3.311   1.909  13.093 -0.4729  0.4799  0.0386
18383TIP3    H176640   3.269   1.978  13.041  0.9174  1.8215  0.6761
18383TIP3    H276641   3.329   1.839  13.030 -1.7277  0.7417 -0.6425
18384TIP3   OH276642   2.376   6.768   6.207 -0.1866  0.0220  0.4987
18384TIP3    H176643   2.372   6.792   6.299  0.9759  0.9802  0.3064
18384TIP3    H276644   2.469   6.770   6.185 -0.4950  0.3448 -0.8305
18385TIP3   OH276645   2.836   3.402  14.172 -0.0401 -0.6414 -0.2664
18385TIP3    H176646   2.886   3.320  14.170  0.3315 -0.4216  0.0088
18385TIP3    H276647   2.831   3.426  14.264  3.4251  1.7984 -0.6138
18386TIP3   OH276648   2.601   0.147   0.883  0.4696  0.0366 -0.3266
18386TIP3    H176649   2.596   0.051   0.881 -0.5310  0.0509  0.8939
18386TIP3    H276650   2.649   0.170   0.803 -1.2611 -1.3788 -1.8319
18387TIP3   OH276651   4.218   4.688   1.800 -0.0084  0.8399  0.3794
18387TIP3    H176652   4.289   4.698   1.862  0.1626  1.4073  0.0936
18387TIP3    H276653   4.161   4.764   1.816 -1.9297 -0.9285  2.3890
18388TIP3   OH276654   6.479   5.343  11.572  0.0438 -0.0663  0.4424
18388TIP3    H176655   6.511   5.254  11.587 -0.5116 -0.3162  0.1372
18388TIP3    H276656   6.391   5.345  11.610  0.2804  0.5240  0.9757
18389TIP3   OH276657   4.370   4.158  15.726  0.1319  0.1535 -0.0852
18389TIP3    H176658   4.302   4.151  15.793 -1.5369  1.0051 -1.6544
18389TIP3    H276659   4.402   4.068  15.715  0.3439 -0.0126  1.7376
18390TIP3   OH276660   4.814   6.106  15.763 -0.5567  0.2498 -0.5821
18390TIP3    H176661   4.779   6.066  15.683 -0.9102 -0.3199 -0.1460
18390TIP3    H276662   4.908   6.112  15.747 -0.2742 -2.1789 -0.0545
18391TIP3   OH276663   4.331   0.675   5.060  0.0703  0.1423  0.1026
18391TIP3    H176664   4.370   0.591   5.033 -0.9179 -0.5235  0.7194
18391TIP3    H276665   4.306   0.717   4.977  1.7988  0.4449 -0.2865
18392TIP3   OH276666   2.470   1.508  14.364 -0.6715 -0.1653  0.0574
18392TIP3    H176667   2.424   1.446  14.421  0.2261 -1.0966 -0.2139
18392TIP3    H276668   2.561   1.504  14.394 -0.3067 -0.2326 -1.0663
18393TIP3   OH276669   0.340   4.705  11.515  0.1324 -0.2506 -0.0891
18393TIP3    H176670   0.421   4.674  11.556  0.5373  1.5271  0.5115
18393TIP3    H276671   0.368   4.744  11.432  0.0677  1.4953  0.6936
18394TIP3   OH276672   4.173   0.787   0.222  0.4367  0.0624  0.0945
18394TIP3    H176673   4.147   0.724   0.154  1.1332  1.0563 -1.1112
18394TIP3    H276674   4.116   0.863   0.207  0.2437  0.0918  0.9587
18395TIP3   OH276675   4.815   0.991   1.470  0.4226 -0.3950 -0.3088
18395TIP3    H176676   4.857   1.011   1.386  1.1524 -1.4065 -0.1922
18395TIP3    H276677   4.836   1.065   1.526  1.5731 -0.6338 -0.4232
18396TIP3   OH276678   6.578   5.847  11.831 -0.0534  0.0889 -0.4507
18396TIP3    H176679   6.511   5.779  11.821  0.2739 -0.4980  1.2277
18396TIP3    H276680   6.659   5.804  11.804  0.1387 -0.1848  0.5256
18397TIP3   OH276681   1.743   1.793  13.767  0.5088  0.2058 -0.0911
18397TIP3    H176682   1.828   1.774  13.806 -0.0057  0.7151  1.3155
18397TIP3    H276683   1.687   1.817  13.841  0.1458  3.6492 -1.3888
18398TIP3   OH276684   5.847   3.785  13.486  0.4325 -0.0115 -0.2053
18398TIP3    H176685   5.925   3.768  13.434 -1.1294  1.5138 -3.2057
18398TIP3    H276686   5.821   3.874  13.462 -2.8778 -0.9021 -0.2427
18399TIP3   OH276687   4.903   2.450   0.009 -0.0334  0.3999 -0.4231
18399TIP3    H176688   4.834   2.509   0.040 -1.2217 -1.2334  0.0773
18399TIP3    H276689   4.970   2.453   0.077  0.5600  2.2163 -1.0478
18400TIP3   OH276690   6.678   2.051   2.154 -0.2665  0.2953  0.2804
18400TIP3    H176691   6.640   1.964   2.171  3.6319 -1.2893  1.5736
18400TIP3    H276692   6.690   2.053   2.060 -1.1586 -0.2459  0.1486
18401TIP3   OH276693   2.370   1.972   1.283 -0.0327 -0.4310  0.5960
18401TIP3    H176694   2.326   1.928   1.209  1.3453  0.0171 -0.5146
18401TIP3    H276695   2.317   1.949   1.359 -1.2141 -1.3093 -0.4585
18402TIP3   OH276696   0.190   2.406  11.398 -0.2104  0.8861 -0.0659
18402TIP3    H176697   0.113   2.372  11.352 -1.3948 -1.6371  3.5600
18402TIP3    H276698   0.154   2.463  11.466  1.0789 -0.3283  1.6804
18403TIP3   OH276699   2.815   2.535   2.151 -0.1952 -0.4625  0.0098
18403TIP3    H176700   2.806   2.523   2.056  1.2963 -0.3781 -0.1462
18403TIP3    H276701   2.737   2.585   2.176 -0.4261 -0.1933 -1.2287
18404TIP3   OH276702   1.795   5.355   1.683 -0.1430  0.5191 -0.1962
18404TIP3    H176703   1.891   5.358   1.679 -0.0105 -1.1385  1.2522
18404TIP3    H276704   1.772   5.270   1.645 -0.9441  0.3239  0.7159
18405TIP3   OH276705   6.041   6.807   4.579  0.2772  0.5709 -0.5851
18405TIP3    H176706   6.105   6.855   4.526  1.9590 -0.2489  0.7043
18405TIP3    H276707   6.092   6.742   4.627 -1.7408 -1.3245 -0.9035
18406TIP3   OH276708   1.062   4.893  16.944 -0.5080  0.2527 -0.3038
18406TIP3    H176709   1.119   4.961  16.909 -0.0301  0.1601  0.2877
18406TIP3    H276710   1.086   4.814  16.894 -1.2320  0.5617 -1.1594
18407TIP3   OH276711   0.977   1.308   2.864 -0.4869  0.4012  0.1089
18407TIP3    H176712   0.994   1.248   2.937  0.2966  1.2257  0.6129
18407TIP3    H276713   1.024   1.388   2.887 -0.4567  0.7615 -1.1807
18408TIP3   OH276714   3.841   0.472  12.654  0.3407  0.5233  0.6704
18408TIP3    H176715   3.840   0.528  12.576  0.5056  1.7904  1.5652
18408TIP3    H276716   3.907   0.511  12.711  1.5617 -1.4810  0.6894
18409TIP3   OH276717   4.296   5.842  15.479  0.0497 -0.1563 -0.0359
18409TIP3    H176718   4.385   5.808  15.473 -0.6943 -1.9082 -1.5425
18409TIP3    H276719   4.242   5.765  15.501 -1.3461  0.4927 -1.1155
18410TIP3   OH276720   3.551   1.829  16.492 -0.0671  0.5111 -0.1902
18410TIP3    H176721   3.504   1.811  16.410  1.1686 -1.6323 -0.4911
18410TIP3    H276722   3.603   1.907  16.474 -0.2886  0.4175 -1.2603
18411TIP3   OH276723   5.687   2.352   4.560  1.0568  0.9296  0.2119
18411TIP3    H176724   5.668   2.446   4.570  0.5012  1.2119 -3.1040
18411TIP3    H276725   5.783   2.348   4.566  1.0266  1.5411  1.4209
18412TIP3   OH276726   1.282   2.797  12.554 -0.3084  0.3577  0.3721
18412TIP3    H176727   1.269   2.749  12.635 -0.1490 -0.9028 -0.3321
18412TIP3    H276728   1.196   2.834  12.533 -0.9460 -1.3756 -0.1647
18413TIP3   OH276729   1.709   4.116   1.306 -0.2578 -0.2373 -0.7253
18413TIP3    H176730   1.801   4.138   1.323 -0.1479  0.2088 -1.8507
18413TIP3    H276731   1.699   4.125   1.212 -2.0351  1.9190 -0.3690
18414TIP3   OH276732   2.005   0.454   2.465 -0.1567 -0.3567  0.4293
18414TIP3    H176733   2.003   0.448   2.560 -1.2408 -3.1012  0.2837
18414TIP3    H276734   1.920   0.492   2.441  0.0553  0.1894  0.5300
18415TIP3   OH276735   1.301   1.407  11.705  0.3711 -0.1287  0.0167
18415TIP3    H176736   1.240   1.376  11.639 -0.4110 -1.3103  1.2818
18415TIP3    H276737   1.276   1.498  11.720 -1.4862 -0.7813  0.9727
18416TIP3   OH276738   4.508   1.102   3.626 -0.0513 -0.5241 -0.5224
18416TIP3    H176739   4.430   1.106   3.571 -0.4211  0.3814  0.0607
18416TIP3    H276740   4.562   1.175   3.598  0.1857 -0.6147 -0.3070
18417TIP3   OH276741   0.014   1.046  13.909 -0.0431 -0.3170 -0.0777
18417TIP3    H176742   0.050   1.023  13.995  0.7933  0.2366 -0.2642
18417TIP3    H276743   0.029   0.968  13.855  0.2340 -0.3510  0.0438
18418TIP3   OH276744   2.114   1.663   1.526 -0.1872  0.6064 -0.3085
18418TIP3    H176745   2.128   1.706   1.611  0.9542 -1.1745  0.4259
18418TIP3    H276746   2.200   1.667   1.484  0.4519 -2.5740  0.5563
18419TIP3   OH276747   5.203   1.143   3.082 -0.3681  0.0284 -0.0504
18419TIP3    H176748   5.278   1.098   3.043 -0.8743  0.5867 -1.7332
18419TIP3    H276749   5.132   1.080   3.076 -0.5102  0.2076 -0.3053
18420TIP3   OH276750   2.542   6.093  13.544 -0.5567  0.0476  0.0782
18420TIP3    H176751   2.515   6.120  13.632  1.0901 -0.6266  0.8154
18420TIP3    H276752   2.628   6.053  13.557 -0.6090 -0.6944 -1.7437
18421TIP3   OH276753   3.798   4.234  16.657  0.1463  0.1729 -0.4108
18421TIP3    H176754   3.762   4.171  16.595 -1.2035  1.2830 -0.7830
18421TIP3    H276755   3.827   4.181  16.732  1.6643 -1.1577 -1.9056
18422TIP3   OH276756   5.273   0.480  15.830  0.1429  0.9405 -0.1483
18422TIP3    H176757   5.240   0.490  15.919 -0.1930  0.5806 -0.2334
18422TIP3    H276758   5.293   0.569  15.801 -1.5564  1.2440 -0.4078
18423TIP3   OH276759   5.979   1.211  11.184 -0.8536  0.3553 -0.3730
18423TIP3    H176760   5.947   1.211  11.094 -0.3626 -0.3384 -0.5474
18423TIP3    H276761   5.901   1.196  11.237 -1.2571  1.4521 -0.6342
18424TIP3   OH276762   4.861   2.930   2.892  0.4254 -0.3128  0.1978
18424TIP3    H176763   4.803   2.972   2.828  0.5594  1.7071  1.3698
18424TIP3    H276764   4.908   2.863   2.841 -0.3173  0.4644 -1.5600
18425TIP3   OH276765   4.878   4.849   5.418  0.4239  0.0235  0.5155
18425TIP3    H176766   4.868   4.836   5.324  1.2602 -0.6924  0.5111
18425TIP3    H276767   4.840   4.935   5.435 -1.5774 -0.7238 -0.1336
18426TIP3   OH276768   6.315   0.523   5.965 -0.1639 -0.3369  0.0434
18426TIP3    H176769   6.343   0.527   5.873 -2.4756  0.0436 -0.6817
18426TIP3    H276770   6.259   0.600   5.976  0.8564  0.1342  2.0628
18427TIP3   OH276771   3.824   6.722  13.755 -0.2444  0.1392 -0.7205
18427TIP3    H176772   3.752   6.681  13.802 -1.5383  1.0898 -1.8035
18427TIP3    H276773   3.827   6.812  13.789  0.5473  0.0470 -0.5424
18428TIP3   OH276774   4.611   3.739   2.141  0.4938  0.4568 -1.1273
18428TIP3    H176775   4.671   3.667   2.122  1.4888  1.2615 -1.0461
18428TIP3    H276776   4.637   3.809   2.081  0.7613  1.4165  0.0684
18429TIP3   OH276777   4.028   3.265  16.508 -0.2738 -0.6679  0.4820
18429TIP3    H176778   3.955   3.210  16.479 -0.2737 -0.7186  0.5747
18429TIP3    H276779   4.006   3.287  16.599  0.0340 -1.0279  0.6417
18430TIP3   OH276780   0.726   0.039   1.295  0.3569  0.5287 -0.2835
18430TIP3    H176781   0.792   0.096   1.334  1.8884  0.1921 -2.3451
18430TIP3    H276782   0.702   0.081   1.213  0.7485 -1.2351 -1.3374
18431TIP3   OH276783   2.638   1.413  16.149 -0.2449 -0.5102 -0.1916
18431TIP3    H176784   2.665   1.503  16.168  0.1398 -0.7138  0.2331
18431TIP3    H276785   2.684   1.392  16.068  0.5164 -0.6917  0.2803
18432TIP3   OH276786   1.808   5.200  14.268  0.4698 -0.1016 -0.5333
18432TIP3    H176787   1.758   5.256  14.209  0.8164 -0.2287 -0.9550
18432TIP3    H276788   1.753   5.191  14.346  0.4617  0.9033 -0.4227
18433TIP3   OH276789   2.651   2.497  16.957  0.1211  0.0265  0.1968
18433TIP3    H176790   2.616   2.428  16.901  1.4544 -0.1538 -0.4484
18433TIP3    H276791   2.594   2.572  16.943 -0.5673 -0.5489 -0.0888
18434TIP3   OH276792   5.893   5.811   1.401  0.2844  0.6899 -0.0009
18434TIP3    H176793   5.907   5.779   1.490 -0.4770  0.8217  0.1750
18434TIP3    H276794   5.980   5.835   1.369  0.4793  1.2064  0.9201
18435TIP3   OH276795   3.156   5.083  15.208 -0.3270  0.6963 -0.3914
18435TIP3    H176796   3.108   5.033  15.142 -0.4811 -1.4970  1.2848
18435TIP3    H276797   3.089   5.108  15.272  0.3307 -0.3232  0.7333
18436TIP3   OH276798   3.132   4.680   3.396 -0.1292  0.3190  0.3723
18436TIP3    H176799   3.099   4.760   3.437 -0.6551 -1.0232  2.6714
18436TIP3    H276800   3.224   4.675   3.421  0.4721  1.2548 -1.5298
18437TIP3   OH276801   5.756   2.029   3.586 -0.4888 -0.4299 -0.3356
18437TIP3    H176802   5.700   2.009   3.662 -0.3280 -0.1337 -0.1413
18437TIP3    H276803   5.706   2.092   3.536  0.7031  1.6880  1.0769
18438TIP3   OH276804   0.870   4.431   4.603 -0.2823 -0.3539  0.2562
18438TIP3    H176805   0.839   4.341   4.610  0.0821 -0.4218  1.1029
18438TIP3    H276806   0.793   4.485   4.622 -0.9038 -0.4512 -1.8961
18439TIP3   OH276807   3.964   0.660   3.063  0.3247 -0.7925  0.1129
18439TIP3    H176808   3.946   0.636   3.154 -1.4753  1.5815  0.4575
18439TIP3    H276809   4.054   0.692   3.064  0.6188 -1.6332  0.8817
18440TIP3   OH276810   3.105   3.640   0.641 -0.2953 -0.0556  0.5470
18440TIP3    H176811   3.190   3.620   0.679  0.1168  0.1113 -0.2945
18440TIP3    H276812   3.110   3.609   0.551 -0.9576  0.3925  0.3491
18441TIP3   OH276813   6.695   6.663  17.077 -0.0644  0.0178 -0.8644
18441TIP3    H176814   6.609   6.625  17.062 -0.5451  1.4345 -1.7709
18441TIP3    H276815   6.756   6.601  17.035 -0.6248 -0.9269 -0.3056
18442TIP3   OH276816   6.166   6.704  15.040 -0.3781 -0.3968 -0.1587
18442TIP3    H176817   6.223   6.627  15.051  1.3448  0.8204 -0.2428
18442TIP3    H276818   6.145   6.731  15.129 -0.8580 -0.8627 -0.1270
18443TIP3   OH276819   4.987   6.687   3.761  0.4686 -0.0319  0.0859
18443TIP3    H176820   5.077   6.685   3.793  0.0862 -0.1155  1.1790
18443TIP3    H276821   4.995   6.693   3.666  1.6225  0.6227  0.2248
18444TIP3   OH276822   4.871   1.906  16.052  0.3133 -0.1058 -0.2599
18444TIP3    H176823   4.839   1.965  15.983  1.7316 -0.0708 -0.9054
18444TIP3    H276824   4.811   1.920  16.125  0.8587  2.4123 -0.2737
18445TIP3   OH276825   1.937   1.453   5.408  0.8127  0.9030 -0.2516
18445TIP3    H176826   1.934   1.375   5.353  1.8492  0.3858  0.4188
18445TIP3    H276827   2.020   1.495   5.387  0.7477  1.2517  0.1744
18446TIP3   OH276828   2.051   1.466   2.284  0.3013  0.0635  0.2284
18446TIP3    H176829   1.962   1.481   2.317 -0.1691 -1.5839 -0.2520
18446TIP3    H276830   2.107   1.516   2.343 -0.9167  0.8914  0.7122
18447TIP3   OH276831   2.338   2.842   1.053  0.4004 -0.0615  0.3325
18447TIP3    H176832   2.278   2.846   0.979  0.0861  1.7034  0.6623
18447TIP3    H276833   2.402   2.774   1.029 -0.6250 -0.6181 -0.8354
18448TIP3   OH276834   2.013   1.586  11.024  0.0899 -0.0282  0.3344
18448TIP3    H176835   2.047   1.648  10.959 -0.0853  1.0513  1.2502
18448TIP3    H276836   2.045   1.501  10.996 -0.0632  0.4124 -1.2261
18449TIP3   OH276837   4.344   1.330  15.670 -0.1423  0.4929  0.9141
18449TIP3    H176838   4.388   1.246  15.684 -0.5967  0.0708 -0.1487
18449TIP3    H276839   4.405   1.380  15.615 -0.4425  0.3742  0.4736
18450TIP3   OH276840   2.906   1.711  13.938 -0.3121  0.4387  0.0312
18450TIP3    H176841   2.974   1.666  13.888 -0.2600 -1.1506  1.4882
18450TIP3    H276842   2.939   1.712  14.028 -4.0383 -4.2650  1.6488
18451TIP3   OH276843   5.926   4.048  16.699  0.9540  0.5979 -0.3116
18451TIP3    H176844   5.876   4.045  16.617  0.8342  0.7938 -0.2453
18451TIP3    H276845   5.908   3.964  16.741  0.8354  0.5882 -0.3816
18452TIP3   OH276846   1.442   4.581  15.901  0.1508 -0.6367 -0.1814
18452TIP3    H176847   1.380   4.559  15.832  0.8886 -1.7782 -0.5029
18452TIP3    H276848   1.412   4.665  15.935 -0.0843  0.0660 -2.0545
18453TIP3   OH276849   2.800   1.654  16.951 -0.4655 -0.0623 -0.1860
18453TIP3    H176850   2.795   1.656  17.046  3.9457 -0.4354  0.1684
18453TIP3    H276851   2.841   1.738  16.928  0.7817 -0.9973 -1.4899
18454TIP3   OH276852   3.130   0.653  16.229  0.0886  0.3289 -0.3977
18454TIP3    H176853   3.214   0.674  16.269  0.0149 -0.7644  0.3551
18454TIP3    H276854   3.098   0.577  16.278 -1.7789  1.3124 -0.0145
18455TIP3   OH276855   2.638   2.587  12.945 -0.1253  0.0136  0.2211
18455TIP3    H176856   2.581   2.605  12.870  0.3115 -2.7186 -0.8124
18455TIP3    H276857   2.595   2.515  12.991  0.3047  0.7771  1.8643
18456TIP3   OH276858   5.088   1.828   1.578  0.2984  0.6372 -0.3339
18456TIP3    H176859   5.133   1.827   1.493  1.4481 -0.8111  0.2796
18456TIP3    H276860   5.126   1.902   1.624  2.1460 -0.6464  0.2199
18457TIP3   OH276861   4.005   0.574   2.161  0.5360 -0.7147 -0.4224
18457TIP3    H176862   3.987   0.657   2.204  1.9629 -1.2531  1.2816
18457TIP3    H276863   4.083   0.541   2.204  1.5656 -1.6758 -2.9146
18458TIP3   OH276864   3.124   6.307  15.726 -0.2243 -0.6468 -0.4441
18458TIP3    H176865   3.207   6.261  15.710  0.4891  0.0193  1.2668
18458TIP3    H276866   3.100   6.284  15.816 -0.5301  1.2575 -0.0178
18459TIP3   OH276867   4.498   2.757  15.671 -0.1896 -0.5339  0.2368
18459TIP3    H176868   4.496   2.789  15.581  0.1588  1.5640  0.9533
18459TIP3    H276869   4.416   2.708  15.681  0.7453 -2.5861 -1.8381
18460TIP3   OH276870   2.638   4.178   4.814  0.4524  0.6313 -0.1062
18460TIP3    H176871   2.721   4.130   4.822  0.0598 -0.2872 -1.3605
18460TIP3    H276872   2.603   4.180   4.903  1.1085 -0.2809  0.1802
18461TIP3   OH276873   2.039   0.083  16.856  0.0259 -0.6915  0.6670
18461TIP3    H176874   2.127   0.051  16.833 -0.2208 -0.4469 -0.6384
18461TIP3    H276875   2.045   0.178  16.849 -0.6047 -0.7260 -0.3650
18462TIP3   OH276876   0.924   1.990   5.543  0.7826  0.4392 -0.1279
18462TIP3    H176877   0.927   2.085   5.532  1.3130  0.2650 -1.4899
18462TIP3    H276878   0.990   1.956   5.483 -1.2524 -0.9461 -1.6479
18463TIP3   OH276879   2.997   1.987  15.923 -0.5017 -0.0004 -0.3784
18463TIP3    H176880   2.931   1.960  15.987  0.0130 -0.0616  0.1271
18463TIP3    H276881   3.072   2.013  15.976 -0.8947  2.2212 -0.8470
18464TIP3   OH276882   0.003   5.849   3.598 -0.1835 -0.1811  0.5832
18464TIP3    H176883   0.036   5.914   3.660 -0.6048 -1.0333  1.7121
18464TIP3    H276884   0.060   5.858   3.521  0.0739  1.1661  0.9212
18465TIP3   OH276885   5.643   3.929  11.372  0.0439 -0.5443 -0.3940
18465TIP3    H176886   5.612   3.993  11.436  1.1434  0.7274 -1.1186
18465TIP3    H276887   5.628   3.970  11.287  0.1121 -1.5441 -0.9022
18466TIP3   OH276888   4.422   1.971  14.906 -0.1949 -0.2167 -0.6057
18466TIP3    H176889   4.480   1.934  14.972 -1.4239  0.6423  1.0041
18466TIP3    H276890   4.400   1.897  14.849  1.6786 -0.7472 -0.6600
18467TIP3   OH276891   0.562   5.009   0.192 -0.0026 -0.3356  0.6207
18467TIP3    H176892   0.613   4.934   0.160 -1.7850 -1.2223 -0.2021
18467TIP3    H276893   0.547   5.063   0.114 -0.5823 -0.2337  0.8055
18468TIP3   OH276894   4.015   3.106  13.430 -0.5889 -0.7037  0.2000
18468TIP3    H176895   3.959   3.183  13.442  0.1284  0.0295 -1.0404
18468TIP3    H276896   4.048   3.114  13.340  0.7078 -1.6453  0.5717
18469TIP3   OH276897   5.497   1.600  13.309 -0.0931  0.2756  0.2924
18469TIP3    H176898   5.532   1.610  13.397  0.9062  2.1501 -0.2903
18469TIP3    H276899   5.553   1.535  13.268  1.7020  2.0207 -0.0845
18470TIP3   OH276900   4.104   4.923   0.830  0.0190 -0.4301  1.1377
18470TIP3    H176901   4.102   4.837   0.788 -1.8126 -0.5452  1.4190
18470TIP3    H276902   4.032   4.971   0.790 -1.5853 -0.4381  3.8466
18471TIP3   OH276903   3.659   2.636   0.559 -0.2498 -0.1381  0.2528
18471TIP3    H176904   3.694   2.548   0.546 -0.1616  0.1640 -1.7408
18471TIP3    H276905   3.707   2.691   0.497  0.2362  1.4688  2.0185
18472TIP3   OH276906   2.020   2.159   4.871  0.1816 -0.1433  0.8761
18472TIP3    H176907   2.072   2.093   4.918 -0.4824 -0.7478  0.7761
18472TIP3    H276908   1.977   2.209   4.941 -2.2073 -2.1665  0.9545
18473TIP3   OH276909   1.688   6.252   4.160  0.6147  0.3275 -0.2227
18473TIP3    H176910   1.765   6.201   4.185  1.8717  1.0910 -2.3874
18473TIP3    H276911   1.657   6.210   4.080 -0.4271  0.8362 -0.0917
18474TIP3   OH276912   2.998   3.445  10.742  0.4618  0.0520  0.1068
18474TIP3    H176913   3.001   3.411  10.653 -0.4057  0.1880  0.0242
18474TIP3    H276914   3.083   3.421  10.780  0.2701 -1.2632 -0.2804
18475TIP3   OH276915   3.767   4.251   4.145  0.1791 -0.2783  0.4118
18475TIP3    H176916   3.795   4.328   4.096 -1.2908  0.3620  0.5585
18475TIP3    H276917   3.714   4.200   4.083  1.3287 -1.2930  0.2478
18476TIP3   OH276918   1.325   4.946   0.245  0.1682  0.2233  0.3141
18476TIP3    H176919   1.368   5.005   0.182  2.7876 -0.1215  1.7044
18476TIP3    H276920   1.285   5.005   0.309  0.8936  0.5241  0.4963
18477TIP3   OH276921   1.584   6.182  13.489 -0.8165  0.5058 -0.3786
18477TIP3    H176922   1.542   6.119  13.429 -0.7105  0.1382 -0.0696
18477TIP3    H276923   1.527   6.183  13.566  0.2509 -0.7097  0.4299
18478TIP3   OH276924   1.091   4.012  12.284  0.0076  0.9470 -0.2489
18478TIP3    H176925   1.028   4.084  12.283 -1.4802 -0.3041 -0.5101
18478TIP3    H276926   1.089   3.980  12.374 -3.4825 -2.1714 -1.2620
18479TIP3   OH276927   4.765   1.084   4.255  0.2662 -0.4861  0.1246
18479TIP3    H176928   4.771   1.167   4.209  0.1368 -0.9124 -0.6630
18479TIP3    H276929   4.854   1.068   4.287  0.2833 -0.0334  0.3144
18480TIP3   OH276930   4.718   5.716   0.586 -0.2983  0.1928 -0.1468
18480TIP3    H176931   4.674   5.799   0.570  0.7750  0.8110  0.0958
18480TIP3    H276932   4.789   5.714   0.523  0.1115 -0.2233  0.3245
18481TIP3   OH276933   0.865   2.972   6.009  0.4751 -0.0136 -0.1487
18481TIP3    H176934   0.788   2.949   6.061  0.7079  3.1928  1.7126
18481TIP3    H276935   0.829   3.001   5.925 -0.2102 -0.1567  0.0906
18482TIP3   OH276936   3.578   6.463  11.279 -0.5047  0.0752  0.4308
18482TIP3    H176937   3.570   6.408  11.200 -0.9193 -0.4319  0.8238
18482TIP3    H276938   3.664   6.441  11.314 -0.9860 -0.8988  1.0162
18483TIP3   OH276939   3.222   5.401   5.044  0.5522 -0.3412  0.2169
18483TIP3    H176940   3.137   5.423   5.006  0.3618  0.7407  1.2549
18483TIP3    H276941   3.209   5.409   5.138  2.2988  1.6127  0.3180
18484TIP3   OH276942   6.560   6.713  11.201  0.2109  0.2902  0.1274
18484TIP3    H176943   6.588   6.802  11.225  0.7823 -0.3478  1.8828
18484TIP3    H276944   6.620   6.656  11.247 -0.4231 -1.0328 -0.6669
18485TIP3   OH276945   0.707   2.590   0.274  0.3330 -0.1577 -0.4167
18485TIP3    H176946   0.643   2.558   0.210  0.3920  0.5007 -0.8097
18485TIP3    H276947   0.780   2.620   0.221  1.0647 -1.0922  0.0414
18486TIP3   OH276948   1.134   6.683  12.009 -0.2578  0.2078  0.4422
18486TIP3    H176949   1.130   6.698  11.914 -0.5949  0.0058  0.4210
18486TIP3    H276950   1.186   6.755  12.043  0.9226 -0.3969 -0.0489
18487TIP3   OH276951   5.632   0.248   5.365 -0.4461  0.6411 -0.0111
18487TIP3    H176952   5.677   0.333   5.357  1.0580 -0.0665  0.7869
18487TIP3    H276953   5.692   0.185   5.326 -0.6879 -0.3389  1.1684
18488TIP3   OH276954   1.850   5.258   5.131 -0.1817  0.6929  0.5649
18488TIP3    H176955   1.786   5.188   5.120  1.5398 -0.5959 -1.7529
18488TIP3    H276956   1.929   5.225   5.087  1.9310  2.4267  2.9385
18489TIP3   OH276957   5.658   2.218  12.304  0.4898 -0.1491  0.1522
18489TIP3    H176958   5.735   2.275  12.295  0.3306 -0.0670 -0.7474
18489TIP3    H276959   5.589   2.276  12.337  1.1791 -0.5301  2.3410
18490TIP3   OH276960   0.182   5.823   5.310 -0.0070  0.1786 -0.7371
18490TIP3    H176961   0.239   5.763   5.262 -0.3196 -0.3979 -0.3990
18490TIP3    H276962   0.228   5.837   5.393 -0.6191 -0.7337 -0.2342
18491TIP3   OH276963   5.952   4.720   0.397 -0.4032  0.2059 -0.0659
18491TIP3    H176964   6.006   4.648   0.363 -0.8722  0.5343 -1.5746
18491TIP3    H276965   5.995   4.799   0.364 -1.1511  0.5183 -0.2918
18492TIP3   OH276966   0.983   4.224   1.695  0.0819 -0.6610 -0.8705
18492TIP3    H176967   1.049   4.195   1.758  0.6603  0.2167 -1.0589
18492TIP3    H276968   0.989   4.161   1.623 -2.0331 -2.9066  0.8605
18493TIP3   OH276969   1.534   0.403   0.153  0.3115  0.1943 -0.1283
18493TIP3    H176970   1.455   0.412   0.100 -0.2400 -0.3631  0.5923
18493TIP3    H276971   1.603   0.443   0.100 -0.5371  1.1107 -0.5507
18494TIP3   OH276972   5.560   1.473   1.252  0.3044 -0.1134 -0.4805
18494TIP3    H176973   5.518   1.539   1.197  0.0813 -0.5853 -0.8885
18494TIP3    H276974   5.534   1.389   1.212  0.6536 -0.4413 -0.0246
18495TIP3   OH276975   0.803   4.269  15.773  0.9207 -0.0726 -0.0839
18495TIP3    H176976   0.805   4.206  15.845  1.0670  0.3832  0.3111
18495TIP3    H276977   0.829   4.352  15.812 -1.2241  0.6699 -0.1816
18496TIP3   OH276978   2.751   6.403   2.810  0.1700  0.0736  0.0975
18496TIP3    H176979   2.774   6.362   2.893  1.3667 -0.6730 -0.5818
18496TIP3    H276980   2.828   6.453   2.785  0.2789 -0.6511 -1.1162
18497TIP3   OH276981   5.229   5.924  16.744 -0.3757  0.2250  0.0900
18497TIP3    H176982   5.246   5.830  16.736  0.6865  0.5838 -2.3699
18497TIP3    H276983   5.154   5.939  16.687  0.8808  1.2181 -1.3498
18498TIP3   OH276984   4.289   4.079   6.272  0.2762 -0.3562  0.2978
18498TIP3    H176985   4.338   4.000   6.247  2.9942  1.3848 -0.0591
18498TIP3    H276986   4.237   4.052   6.347  1.0300 -2.5381  0.0805
18499TIP3   OH276987   6.267   2.238  11.436 -0.1773 -0.0755  0.1186
18499TIP3    H176988   6.199   2.245  11.369 -0.0578  0.4940  0.0569
18499TIP3    H276989   6.219   2.213  11.515 -0.3928 -0.1964 -0.0478
18500TIP3   OH276990   2.143   1.306   2.105  0.1297 -0.1432  0.3349
18500TIP3    H176991   2.102   1.368   2.166 -1.0994 -2.8097  2.3792
18500TIP3    H276992   2.237   1.317   2.119 -0.0812  1.3222  0.6175
18501TIP3   OH276993   3.010   2.867   0.808 -0.2131  0.1412  0.3703
18501TIP3    H176994   2.935   2.925   0.792 -1.1736 -1.1227  0.1275
18501TIP3    H276995   3.026   2.872   0.902 -1.8129 -0.9656  0.7368
18502TIP3   OH276996   3.163   0.207  14.381 -0.1219  0.1415 -0.0868
18502TIP3    H176997   3.107   0.188  14.306 -1.5305  1.6313  0.5604
18502TIP3    H276998   3.129   0.151  14.451 -1.2469  1.5074  0.4854
18503TIP3   OH276999   1.342   3.982   0.837  0.3775  0.6650 -0.2976
18503TIP3    H177000   1.258   3.942   0.816  1.3265 -0.7078 -1.5217
18503TIP3    H277001   1.347   3.979   0.932 -1.8123  2.5492 -0.0665
18504TIP3   OH277002   0.903   0.203   1.791  0.3718 -0.5646 -0.3326
18504TIP3    H177003   0.910   0.297   1.806  0.9518 -0.5390 -0.7675
18504TIP3    H277004   0.993   0.172   1.788  0.1907 -1.0848 -0.5203
18505TIP3   OH277005   3.144   0.225   3.427 -0.0752 -0.3855 -0.3011
18505TIP3    H177006   3.131   0.161   3.357  0.3346 -0.2863 -0.4664
18505TIP3    H277007   3.138   0.174   3.508  0.2921 -0.6340 -0.4344
18506TIP3   OH277008   4.597   0.259  10.467 -0.4716  0.4930 -0.1334
18506TIP3    H177009   4.547   0.255  10.385  0.2451  0.3292 -0.5683
18506TIP3    H277010   4.546   0.207  10.529 -2.6392  3.1826  0.4149
18507TIP3   OH277011   4.146   0.784   0.799 -0.0701  1.1764 -0.0205
18507TIP3    H177012   4.193   0.708   0.833 -0.6988  0.9694  0.3856
18507TIP3    H277013   4.105   0.752   0.719  0.0104  1.2042 -0.0732
18508TIP3   OH277014   5.507   0.959  15.121  0.9441  0.5785  0.3545
18508TIP3    H177015   5.488   0.866  15.130 -0.9734  1.0200  1.0462
18508TIP3    H277016   5.587   0.962  15.069  1.7485 -1.4858  1.4056
18509TIP3   OH277017   0.239   4.459  12.330 -0.0387 -0.9368  0.1414
18509TIP3    H177018   0.237   4.375  12.376 -0.4735 -0.5397  0.8441
18509TIP3    H277019   0.321   4.500  12.358 -0.5233 -0.4932  0.9344
18510TIP3   OH277020   1.479   3.325   2.684  0.2140  0.3911  0.0599
18510TIP3    H177021   1.512   3.368   2.763  0.3743 -0.5027  0.4936
18510TIP3    H277022   1.496   3.387   2.613 -3.4437  2.9155  1.2256
18511TIP3   OH277023   4.133   1.682  15.289  0.0620  0.3336 -0.4167
18511TIP3    H177024   4.161   1.619  15.355 -2.4141 -0.7475 -0.3347
18511TIP3    H277025   4.184   1.760  15.307  2.1316 -1.1704  0.4077
18512TIP3   OH277026   0.099   4.888   4.206  0.0106  1.2935  0.1509
18512TIP3    H177027   0.013   4.906   4.169 -0.2985  0.4723  0.4581
18512TIP3    H277028   0.114   4.959   4.268 -0.9035  0.8809  0.8571
18513TIP3   OH277029   4.586   6.802   5.275 -0.1886 -0.2031 -0.6983
18513TIP3    H177030   4.595   6.763   5.362 -2.2340 -1.2985 -0.9590
18513TIP3    H277031   4.676   6.812   5.244  0.4725 -1.9180  0.6045
18514TIP3   OH277032   0.998   6.442   5.951  0.3976  0.1817 -0.1764
18514TIP3    H177033   1.023   6.362   5.904  1.2571 -0.0200  0.6041
18514TIP3    H277034   0.918   6.419   5.997 -0.1909  0.2353 -1.1677
18515TIP3   OH277035   4.968   6.253  14.612  0.1285  0.6767 -0.2984
18515TIP3    H177036   4.954   6.231  14.705 -0.0259  2.1896  0.0569
18515TIP3    H277037   4.880   6.256  14.575  0.1820  0.2029 -0.4613
18516TIP3   OH277038   3.890   0.013  11.330 -0.0561 -0.6471  0.4587
18516TIP3    H177039   3.867  -0.021  11.417  1.3773  0.0842  1.1360
18516TIP3    H277040   3.977  -0.022  11.313 -0.3410 -0.8179 -0.7203
18517TIP3   OH277041   0.332   1.068  16.537 -0.1400  0.2417 -0.3451
18517TIP3    H177042   0.355   1.137  16.475 -0.1713  0.6453  0.0943
18517TIP3    H277043   0.413   1.020  16.551 -0.1320  0.1528 -0.6929
18518TIP3   OH277044   2.391   5.724  17.063 -0.3597  0.0129 -0.3117
18518TIP3    H177045   2.344   5.797  17.024  0.1597 -0.2249 -1.4197
18518TIP3    H277046   2.481   5.733  17.029  0.4041  0.4769  1.7689
18519TIP3   OH277047   5.338   1.286   4.092  0.1400  0.0167 -0.0398
18519TIP3    H177048   5.381   1.372   4.101  1.5149 -0.2897 -2.9021
18519TIP3    H277049   5.410   1.223   4.092 -0.7606 -1.0339  0.6729
18520TIP3   OH277050   5.371   5.517  13.702  0.1077 -0.1428  0.8556
18520TIP3    H177051   5.416   5.440  13.667  0.0724  0.6853 -1.0440
18520TIP3    H277052   5.281   5.487  13.716  0.9449 -1.5123  3.7343
18521TIP3   OH277053   4.845   3.199   4.334 -0.4014  0.2684  0.1573
18521TIP3    H177054   4.899   3.260   4.286 -0.3901  0.3914  0.3247
18521TIP3    H277055   4.863   3.114   4.294 -0.1942  0.3303  0.1194
18522TIP3   OH277056   5.685   2.619   6.547 -0.1239 -0.2571 -0.1021
18522TIP3    H177057   5.671   2.548   6.485 -0.1720 -0.0621 -0.3142
18522TIP3    H277058   5.773   2.604   6.582  0.1318 -0.0379 -0.6421
18523TIP3   OH277059   4.552   3.583   3.718 -0.1198 -0.0950  0.3091
18523TIP3    H177060   4.636   3.538   3.718 -0.2920 -0.4535 -1.1192
18523TIP3    H277061   4.498   3.533   3.657 -0.5960  1.5119 -0.6136
18524TIP3   OH277062   2.497   6.007  10.955  0.4622  0.0195 -0.4349
18524TIP3    H177063   2.430   6.020  10.887  1.6066  0.5292 -1.4826
18524TIP3    H277064   2.495   5.913  10.971 -0.9394  0.1022 -0.0007
18525TIP3   OH277065   3.660   1.764   4.854 -0.3584 -0.2281 -0.1076
18525TIP3    H177066   3.640   1.814   4.934  1.5456 -2.8343  2.0942
18525TIP3    H277067   3.577   1.720   4.833 -1.3246  1.7453 -0.5668
18526TIP3   OH277068   1.107   6.654  14.132 -0.2287  0.0539  0.1955
18526TIP3    H177069   1.134   6.711  14.059  0.2838 -0.3500  0.0649
18526TIP3    H277070   1.190   6.625  14.171 -0.4997  1.5226  1.9240
18527TIP3   OH277071   1.954   5.152   4.294  0.4687  0.3004  0.8543
18527TIP3    H177072   1.998   5.132   4.377 -0.7914 -1.6394  1.0920
18527TIP3    H277073   2.024   5.157   4.230  1.1367 -1.8581  1.3822
18528TIP3   OH277074   0.639   3.904   4.903  0.1694  0.4318 -0.1905
18528TIP3    H177075   0.563   3.849   4.885  1.4825 -1.9408  1.1840
18528TIP3    H277076   0.704   3.877   4.839  0.8256  0.3133  0.5099
18529TIP3   OH277077   6.130   3.943   4.947  0.7148  1.1007 -0.0217
18529TIP3    H177078   6.224   3.954   4.936  0.7739  0.8272  0.1933
18529TIP3    H277079   6.111   3.983   5.031  0.8272  0.1557  0.4631
18530TIP3   OH277080   3.350   1.144  11.210  0.2038  0.1845  0.2023
18530TIP3    H177081   3.418   1.080  11.190 -0.7087 -0.5701 -0.5697
18530TIP3    H277082   3.326   1.126  11.302  3.6319  2.9351  1.7379
18531TIP3   OH277083   0.735   5.637  16.435 -0.1272  0.1100 -0.2816
18531TIP3    H177084   0.746   5.726  16.401 -0.0021  0.0238 -0.4699
18531TIP3    H277085   0.708   5.649  16.526  1.7124  0.3430  0.2596
18532TIP3   OH277086   1.100   2.576   0.502  0.3264  0.7843  0.3303
18532TIP3    H177087   1.083   2.496   0.452  2.0010 -0.6185  1.9209
18532TIP3    H277088   1.104   2.546   0.593 -0.9158  3.0049  1.1398
18533TIP3   OH277089   4.736   5.745  15.972  0.2443 -0.0183  0.3736
18533TIP3    H177090   4.718   5.682  16.042  2.7133 -1.9740 -0.6958
18533TIP3    H277091   4.822   5.780  15.993  0.9969 -0.6045 -1.6297
18534TIP3   OH277092   2.610   1.921   1.427  0.1876  0.2160  0.3309
18534TIP3    H177093   2.549   1.943   1.356  0.6041 -0.4876 -0.2460
18534TIP3    H277094   2.657   2.003   1.444 -1.8489  1.1596  1.7294
18535TIP3   OH277095   6.565   0.295   1.417 -0.1815  0.5163 -0.1999
18535TIP3    H177096   6.561   0.338   1.332  0.7171  1.8381  0.4103
18535TIP3    H277097   6.655   0.308   1.447 -0.5678  0.3488  1.0979
18536TIP3   OH277098   3.949   3.662   2.702  0.1442 -0.2356  0.4164
18536TIP3    H177099   3.952   3.576   2.744  0.2914 -0.6697 -0.4583
18536TIP3    H277100   3.963   3.643   2.609 -2.8215  0.4232 -0.2256
18537TIP3   OH277101   2.369   5.607   3.555  0.2322 -0.1975 -0.2875
18537TIP3    H177102   2.297   5.664   3.580 -0.4558 -0.0041 -2.6035
18537TIP3    H277103   2.367   5.536   3.619 -2.1834 -0.3437 -0.4777
18538TIP3   OH277104   3.646   0.970   4.364 -1.0329  0.1787 -0.0347
18538TIP3    H177105   3.645   0.961   4.269 -1.1371  1.4330 -0.1579
18538TIP3    H277106   3.657   0.881   4.396 -0.5005 -0.1971 -1.2326
18539TIP3   OH277107   3.398   4.033  13.789 -0.8772 -0.0592 -0.4360
18539TIP3    H177108   3.435   4.043  13.877 -1.9951  1.4229 -0.1061
18539TIP3    H277109   3.421   3.944  13.763 -0.5842 -0.5385  1.3959
18540TIP3   OH277110   4.539   3.212   1.560  0.3889  0.4142  0.0234
18540TIP3    H177111   4.487   3.191   1.638  1.2880  2.2796  1.1477
18540TIP3    H277112   4.624   3.237   1.594  0.8641  1.0330 -1.5951
18541TIP3   OH277113   1.198   4.968   2.109 -0.1714  0.3592 -0.1252
18541TIP3    H177114   1.190   4.988   2.203  2.7786  1.7250 -0.1070
18541TIP3    H277115   1.291   4.981   2.090 -0.6131 -0.5655 -3.1105
18542TIP3   OH277116   3.439   2.038   4.169  0.4771 -0.4290 -0.6244
18542TIP3    H177117   3.346   2.038   4.195  0.1976 -1.5439 -1.5804
18542TIP3    H277118   3.470   1.950   4.193  2.1198  0.9305  2.5183
18543TIP3   OH277119   0.854   2.478  16.307 -0.5628 -0.1564  0.3945
18543TIP3    H177120   0.771   2.439  16.334  0.1963 -1.7108  0.5267
18543TIP3    H277121   0.849   2.569  16.338 -1.8867 -0.4550  1.0805
18544TIP3   OH277122   6.801   1.925   0.240 -1.1871  0.3154 -0.1561
18544TIP3    H177123   6.783   1.934   0.334 -1.1747 -0.2943 -0.0979
18544TIP3    H277124   6.890   1.960   0.230  0.9870 -4.4973  0.9387
18545TIP3   OH277125   4.611   5.023   6.384  0.0845  0.5210 -0.3349
18545TIP3    H177126   4.552   5.086   6.425  0.7757 -0.0748  1.6114
18545TIP3    H277127   4.695   5.068   6.378  0.1546  0.3753 -0.4626
18546TIP3   OH277128   5.425   3.913   6.047 -0.1705  0.2241 -0.3342
18546TIP3    H177129   5.463   3.861   6.119 -1.4364 -1.6104 -0.9364
18546TIP3    H277130   5.387   3.989   6.090  1.3438  0.4534  0.6360
18547TIP3   OH277131   0.091   6.505   1.680  0.0251  0.0498  0.6445
18547TIP3    H177132   0.099   6.599   1.694 -0.3215  0.2476 -0.4247
18547TIP3    H277133  -0.003   6.490   1.670  0.3293  0.4607 -4.6194
18548TIP3   OH277134   3.948   5.244   6.405  0.2000 -0.0934 -0.1095
18548TIP3    H177135   3.961   5.258   6.311  2.3430 -0.1004  0.1693
18548TIP3    H277136   3.900   5.161   6.410  0.5490 -0.3619 -1.1633
18549TIP3   OH277137   3.665   4.980  12.917 -0.9334 -0.1751 -0.3558
18549TIP3    H177138   3.752   4.980  12.956 -0.7296 -0.9509 -0.7867
18549TIP3    H277139   3.673   4.922  12.841 -1.1760  1.7395 -1.8838
18550TIP3   OH277140   3.252   0.016  16.466  0.1228  0.0154  0.7082
18550TIP3    H177141   3.162  -0.011  16.447  1.0938 -1.5004 -2.1469
18550TIP3    H277142   3.250   0.112  16.464 -1.2371 -0.0265 -0.4548
18551TIP3   OH277143   0.689   0.952  16.851 -0.0790 -0.7306 -0.4472
18551TIP3    H177144   0.686   0.934  16.756 -1.2854 -0.0146 -0.5533
18551TIP3    H277145   0.746   0.884  16.886  2.0454  0.2071 -1.9617
18552TIP3   OH277146   1.947   1.658  15.695 -0.0820 -0.3554  0.2690
18552TIP3    H177147   1.958   1.670  15.789 -1.7886 -0.4748  0.5130
18552TIP3    H277148   1.999   1.581  15.674 -0.2456 -0.7394  1.2505
18553TIP3   OH277149   5.623   2.286  14.999  0.1124 -0.4234 -0.2449
18553TIP3    H177150   5.540   2.259  14.960 -0.0272 -0.1649 -0.1252
18553TIP3    H277151   5.689   2.249  14.941 -0.0044 -3.6201  1.5618
18554TIP3   OH277152   4.694   5.536  10.895  0.2697 -0.3707 -0.1564
18554TIP3    H177153   4.681   5.470  10.963  0.8962  0.0569  0.3903
18554TIP3    H277154   4.788   5.536  10.879  0.7143  2.4083  1.9555
18555TIP3   OH277155   3.850   0.887   4.693  0.0749  0.1652 -0.2815
18555TIP3    H177156   3.779   0.877   4.630 -0.3885  0.7953  0.1341
18555TIP3    H277157   3.816   0.949   4.758  0.5632 -0.4234  0.5519
18556TIP3   OH277158   4.190   1.951   4.033 -0.0207  0.1599 -0.0951
18556TIP3    H177159   4.256   1.944   4.102  0.0848 -0.8747 -0.2999
18556TIP3    H277160   4.221   2.022   3.977  1.1599 -0.6213 -0.4414
18557TIP3   OH277161   6.307   0.523  12.782 -0.3150  0.3590  0.6646
18557TIP3    H177162   6.367   0.455  12.752 -1.2590  0.7045 -2.1710
18557TIP3    H277163   6.359   0.603  12.779  0.3388  0.0173  2.4759
18558TIP3   OH277164   2.872   2.906   3.024  0.1914  0.2708  0.8515
18558TIP3    H177165   2.843   2.828   2.977 -1.2778  0.4382  1.4514
18558TIP3    H277166   2.943   2.941   2.970 -0.0567 -0.7028 -0.1397
18559TIP3   OH277167   1.474   0.127  12.972  0.3937  0.4438 -0.1517
18559TIP3    H177168   1.416   0.056  12.945  1.6642  0.2647 -2.5678
18559TIP3    H277169   1.437   0.205  12.932  1.6854  0.3379 -1.6672
18560TIP3   OH277170   1.486   1.146   1.187  0.1716  0.2841  0.2205
18560TIP3    H177171   1.536   1.107   1.116  0.1945 -1.5425  1.2288
18560TIP3    H277172   1.542   1.137   1.264 -1.4081 -1.2066  1.2330
18561TIP3   OH277173   5.214   2.437   3.624  0.1256  0.6488 -0.4491
18561TIP3    H177174   5.181   2.348   3.614  0.9209  0.3160 -0.2362
18561TIP3    H277175   5.266   2.434   3.705 -0.9567  1.6522  0.3059
18562TIP3   OH277176   2.808   2.888   1.658 -0.5504  0.7782  0.8245
18562TIP3    H177177   2.815   2.960   1.595  1.5335  1.1856  1.4837
18562TIP3    H277178   2.787   2.812   1.603  1.9362  0.9869 -0.5113
18563TIP3   OH277179   6.402   2.736   5.219 -0.2755 -0.1137 -0.0749
18563TIP3    H177180   6.497   2.724   5.213  0.1875  2.5057  1.3523
18563TIP3    H277181   6.369   2.715   5.131  1.7312 -0.0345 -0.8582
18564TIP3   OH277182   4.673   4.880   0.728 -0.2571  0.5222 -0.5694
18564TIP3    H177183   4.740   4.948   0.741  0.9097 -0.9753  1.6930
18564TIP3    H277184   4.703   4.807   0.783 -2.8720 -0.8192 -0.8769
18565TIP3   OH277185   0.550   5.476   0.840  0.6445 -0.4057  0.2779
18565TIP3    H177186   0.468   5.514   0.809  1.2740 -0.7734 -1.9059
18565TIP3    H277187   0.528   5.388   0.869  0.1339 -0.2193  0.4520
18566TIP3   OH277188   0.380   2.697   4.303  0.2230  0.5761  0.4855
18566TIP3    H177189   0.304   2.732   4.350 -1.3786 -0.2608 -1.3866
18566TIP3    H277190   0.431   2.775   4.280 -0.6778  1.2642  0.7655
18567TIP3   OH277191   6.474   4.252   3.256 -0.7817 -0.0878  0.1627
18567TIP3    H177192   6.551   4.292   3.216 -0.6945 -0.9877 -0.5744
18567TIP3    H277193   6.452   4.310   3.329 -0.6204  1.2627 -0.8478
18568TIP3   OH277194   6.419   4.755  14.795  0.0212  0.1812 -0.2155
18568TIP3    H177195   6.512   4.762  14.772 -0.0927 -0.2727 -0.8159
18568TIP3    H277196   6.379   4.709  14.721 -0.6936  0.4317  0.0118
18569TIP3   OH277197   5.432   3.449   5.953  0.2111 -0.1089  0.3554
18569TIP3    H177198   5.493   3.486   6.016  1.1924 -2.1515  0.6553
18569TIP3    H277199   5.459   3.486   5.868 -0.9129  2.3921  1.0470
18570TIP3   OH277200   6.809   1.523  13.937 -0.7251 -0.0385 -0.1916
18570TIP3    H177201   6.807   1.463  13.863  0.7454  0.0280 -0.2835
18570TIP3    H277202   6.746   1.591  13.914 -3.0610 -1.9574  0.2795
18571TIP3   OH277203   6.304   5.026   4.440 -0.3032  0.1089  0.8581
18571TIP3    H177204   6.246   5.050   4.512 -1.0166 -0.5784  0.5146
18571TIP3    H277205   6.264   5.065   4.363  0.2123  0.4535  0.7631
18572TIP3   OH277206   6.448   5.763  13.961  0.0386 -0.0921 -0.1595
18572TIP3    H177207   6.426   5.686  14.014 -0.8475  0.0239 -0.3654
18572TIP3    H277208   6.368   5.816  13.960 -0.2174 -0.4702 -2.2876
18573TIP3   OH277209   3.190   2.333   3.097  0.2493 -0.1878  0.3082
18573TIP3    H177210   3.165   2.247   3.131  0.9992 -1.0079 -1.1914
18573TIP3    H277211   3.283   2.324   3.076  0.4983  1.2101  0.7781
18574TIP3   OH277212   4.162   5.503   5.422  0.1837 -0.7230  0.2030
18574TIP3    H177213   4.116   5.576   5.463 -1.7403 -1.5903 -0.3395
18574TIP3    H277214   4.221   5.544   5.359 -0.1529  0.3994  0.6018
18575TIP3   OH277215   2.275   5.955   4.702 -0.4270 -0.5246 -0.1539
18575TIP3    H177216   2.329   5.979   4.778  0.8903 -0.2515 -1.1617
18575TIP3    H277217   2.305   5.867   4.679 -1.0413 -0.7274 -0.1820
18576TIP3   OH277218   3.111   1.086  13.855  0.2941 -0.0272  0.5339
18576TIP3    H177219   3.144   1.006  13.815  1.5950  1.2891 -1.0894
18576TIP3    H277220   3.034   1.110  13.803  0.2430  0.0887  0.6611
18577TIP3   OH277221   0.321   5.899   4.194 -0.1124  0.0178  0.0558
18577TIP3    H177222   0.400   5.882   4.246  0.7359 -0.2500 -1.3124
18577TIP3    H277223   0.264   5.947   4.254  1.6969  1.5759  0.5952
18578TIP3   OH277224   1.748   3.792  16.101  0.6546 -0.1042 -0.0710
18578TIP3    H177225   1.708   3.846  16.169  0.1409 -0.7866  0.1780
18578TIP3    H277226   1.714   3.828  16.019  1.5949  0.9804  0.0001
18579TIP3   OH277227   3.933   4.596   4.949  0.0941 -0.5779  0.2476
18579TIP3    H177228   3.921   4.520   4.892 -1.7133  0.4053 -0.7113
18579TIP3    H277229   3.931   4.560   5.038 -3.5681 -1.3634 -0.0721
18580TIP3   OH277230   4.963   2.659   3.124  0.3028 -0.0074  0.4915
18580TIP3    H177231   4.962   2.660   3.028  1.0353 -0.2908  0.4821
18580TIP3    H277232   5.003   2.743   3.148  1.2560 -0.4630  0.5281
18581TIP3   OH277233   4.486   6.814   3.505 -0.4908  0.1131 -0.2449
18581TIP3    H177234   4.580   6.810   3.490 -0.1717  1.3743  1.2858
18581TIP3    H277235   4.460   6.724   3.525  0.5034 -0.1132  0.0305
18582TIP3   OH277236   4.776   3.574   3.299  0.3640 -1.0218 -0.0458
18582TIP3    H177237   4.761   3.542   3.388 -0.6094 -0.7273 -0.0988
18582TIP3    H277238   4.870   3.590   3.295  0.2050  0.4110  1.4236
18583TIP3   OH277239   0.858   5.622  15.544 -0.4792  0.0620 -0.0606
18583TIP3    H177240   0.765   5.622  15.522 -0.4876 -1.7276 -0.0941
18583TIP3    H277241   0.860   5.609  15.638 -0.2839  1.6630  0.1708
18584TIP3   OH277242   3.059   1.477   4.859 -0.3742  0.2987  0.3899
18584TIP3    H177243   2.997   1.546   4.836  1.4318  1.8319 -0.0003
18584TIP3    H277244   3.129   1.484   4.793 -0.7664 -2.7728 -0.4748
18585TIP3   OH277245   3.641   1.819  13.386  0.1968  0.5266 -0.4241
18585TIP3    H177246   3.612   1.910  13.380  0.5134  0.6666  0.1232
18585TIP3    H277247   3.736   1.823  13.376  0.0886  0.1256 -1.6648
18586TIP3   OH277248   1.046   4.325  15.176  0.3140 -0.1370  0.4038
18586TIP3    H177249   1.014   4.412  15.153 -0.8411 -0.6424  0.0887
18586TIP3    H277250   1.080   4.335  15.265 -1.0429  0.3361  0.8801
18587TIP3   OH277251   6.495   1.773  17.011 -0.5009 -0.0635  0.8868
18587TIP3    H177252   6.513   1.867  17.011 -1.3869  0.1028  1.0804
18587TIP3    H277253   6.564   1.736  16.954 -0.8025  0.8241 -0.0652
18588TIP3   OH277254   6.546   3.293   0.371  0.1702  0.4862  0.5299
18588TIP3    H177255   6.632   3.336   0.371  1.5137 -2.0665  1.8050
18588TIP3    H277256   6.567   3.199   0.369 -2.6074 -0.1573  0.6024
18589TIP3   OH277257   2.106   0.803   5.403 -0.0312 -0.1779 -0.4260
18589TIP3    H177258   2.102   0.740   5.332 -3.3311 -0.4340 -0.0888
18589TIP3    H277259   2.019   0.843   5.405  1.0997  2.3361  1.2073
18590TIP3   OH277260   0.887   0.730  13.840 -0.0407 -0.2623  0.1836
18590TIP3    H177261   0.857   0.731  13.749 -0.8870  0.1916  0.4662
18590TIP3    H277262   0.877   0.820  13.870  3.7189  0.4409 -0.3814
18591TIP3   OH277263   0.860   2.624  15.478  0.0315 -0.2957 -0.2117
18591TIP3    H177264   0.791   2.578  15.526 -0.2280  0.5735  0.2513
18591TIP3    H277265   0.940   2.576  15.501 -0.4335 -1.4486 -0.9390
18592TIP3   OH277266   2.770   1.204   5.129  0.3467  0.0758 -0.2183
18592TIP3    H177267   2.744   1.138   5.064 -0.6201  1.1207 -0.8957
18592TIP3    H277268   2.865   1.213   5.116  0.1986  0.1117 -1.3199
18593TIP3   OH277269   2.875   4.830  14.055 -0.7208  0.2598 -0.3782
18593TIP3    H177270   2.873   4.787  13.969 -0.5771  0.1952 -0.3482
18593TIP3    H277271   2.806   4.896  14.050 -0.5083  0.4618 -0.6490
18594TIP3   OH277272   0.607   6.147   1.120 -0.1900 -0.0597  0.6303
18594TIP3    H177273   0.656   6.212   1.171  2.7902 -1.1780 -0.7074
18594TIP3    H277274   0.617   6.066   1.169  0.5134 -0.5905 -0.3762
18595TIP3   OH277275   4.484   6.710  13.363 -0.3801  0.4815 -0.2247
18595TIP3    H177276   4.406   6.760  13.387 -0.2936  0.6396 -0.2719
18595TIP3    H277277   4.486   6.714  13.267  0.8080  2.1792 -0.1388
18596TIP3   OH277278   5.289   0.865   5.797  0.3847  0.5266  0.6160
18596TIP3    H177279   5.245   0.788   5.761  0.6954  0.6581 -0.0480
18596TIP3    H277280   5.272   0.861   5.891  0.3107 -0.3009  0.5684
18597TIP3   OH277281   0.400   4.945   4.597 -0.1916 -0.2058 -0.0504
18597TIP3    H177282   0.478   4.900   4.630  0.0740 -0.7629 -1.3843
18597TIP3    H277283   0.435   5.017   4.545 -0.6100  1.1796  1.5512
18598TIP3   OH277284   0.332   0.707   3.858 -0.1452  0.5632  0.0589
18598TIP3    H177285   0.340   0.696   3.953  0.9794 -2.9939 -0.3575
18598TIP3    H277286   0.413   0.752   3.832 -0.3570  1.3516  0.7630
18599TIP3   OH277287   6.670   3.175   5.025 -0.3138 -0.2902  0.4975
18599TIP3    H177288   6.655   3.199   5.116 -0.2431  0.0347  0.4252
18599TIP3    H277289   6.639   3.085   5.018 -1.6507  0.1501  0.5008
18600TIP3   OH277290   0.610   3.340  13.585 -0.1895 -0.8730 -0.1379
18600TIP3    H177291   0.531   3.366  13.633  0.4011  0.9274 -0.0723
18600TIP3    H277292   0.678   3.400  13.618  1.0974 -2.0778 -0.5328
18601TIP3   OH277293   4.608   6.217  16.591 -0.0972 -0.3271 -0.1566
18601TIP3    H177294   4.689   6.189  16.549  2.4574  3.5425  1.8974
18601TIP3    H277295   4.549   6.239  16.519  1.8358 -0.1784 -1.7110
18602TIP3   OH277296   5.435   6.106  13.987  0.1319 -0.1712 -0.0681
18602TIP3    H177297   5.386   6.107  14.070 -0.0105 -0.0014 -0.1556
18602TIP3    H277298   5.368   6.101  13.920  0.3042 -3.0993 -0.1021
18603TIP3   OH277299   3.182   5.977   2.692 -0.2669 -0.1382  0.1934
18603TIP3    H177300   3.122   5.906   2.670 -0.2435 -0.1029  0.0174
18603TIP3    H277301   3.132   6.057   2.675 -0.1324 -0.1078 -0.0607
18604TIP3   OH277302   4.880   2.686  11.650  0.2538 -0.4264  0.8578
18604TIP3    H177303   4.789   2.663  11.669 -0.1350  1.9041  1.8791
18604TIP3    H277304   4.924   2.683  11.735  0.7776  0.0547  0.6032
18605TIP3   OH277305   5.203   2.803   2.297 -0.0644  0.2884 -0.2089
18605TIP3    H177306   5.195   2.814   2.202 -2.2284  0.7166 -0.0055
18605TIP3    H277307   5.191   2.710   2.312  0.8974  0.1307 -0.4070
18606TIP3   OH277308   4.077   1.038   0.479 -0.3061  0.0347 -0.4016
18606TIP3    H177309   4.090   0.945   0.498 -0.7827  0.1665  0.5764
18606TIP3    H277310   3.982   1.049   0.477 -0.2818  0.0923 -2.5426
18607TIP3   OH277311   1.683   0.838   4.135 -0.5470  0.0746  0.4150
18607TIP3    H177312   1.688   0.743   4.138 -0.6829  0.0743  0.6002
18607TIP3    H277313   1.659   0.865   4.224  0.8906  0.3689  0.7390
18608TIP3   OH277314   5.266   3.873  12.708 -0.5853 -0.2994 -0.1051
18608TIP3    H177315   5.178   3.908  12.725 -1.0000 -1.5353  0.3662
18608TIP3    H277316   5.262   3.783  12.740  0.2452 -1.0161 -1.9518
18609TIP3   OH277317   2.266   1.252   1.710  0.6725 -0.1123 -0.1349
18609TIP3    H177318   2.328   1.255   1.637  0.3994 -2.3542 -0.4963
18609TIP3    H277319   2.287   1.170   1.756  0.1852  0.7773  1.7210
18610TIP3   OH277320   3.433   1.952   1.821 -0.2561 -0.6094 -0.1358
18610TIP3    H177321   3.483   2.034   1.819  1.8027 -1.8082  0.2932
18610TIP3    H277322   3.342   1.979   1.833  0.3197  1.6353 -0.6598
18611TIP3   OH277323   6.084   1.360   3.756 -0.2078  0.8164  0.3277
18611TIP3    H177324   6.117   1.308   3.829 -1.6157 -0.5748  0.0106
18611TIP3    H277325   6.024   1.423   3.796  0.7385  1.5436  0.6053
18612TIP3   OH277326   5.011   4.280   1.834 -0.2631 -0.0557 -0.0572
18612TIP3    H177327   4.986   4.338   1.762  2.0986 -0.9064 -1.6179
18612TIP3    H277328   5.087   4.322   1.874  0.3948 -1.1923 -0.0978
18613TIP3   OH277329   1.689   1.509   4.695  0.5120 -0.3957  0.2352
18613TIP3    H177330   1.617   1.563   4.726 -0.2952 -0.4905 -1.4171
18613TIP3    H277331   1.749   1.570   4.652 -0.8465 -0.8899 -2.4432
18614TIP3   OH277332   3.306   2.767   6.434 -0.3313  0.1917  0.2837
18614TIP3    H177333   3.248   2.691   6.431 -0.1717  0.0626  0.5286
18614TIP3    H277334   3.392   2.731   6.454 -0.5505  0.6095  2.0562
18615TIP3   OH277335   3.592   1.558  17.061  0.4465 -0.1639 -0.3306
18615TIP3    H177336   3.634   1.636  17.098 -1.7878  0.5949  0.6991
18615TIP3    H277337   3.531   1.530  17.128 -2.1398 -0.0471 -2.5455
18616TIP3   OH277338   3.069   3.091   1.467 -0.1807  0.0790 -0.3489
18616TIP3    H177339   3.097   3.178   1.493  1.6460  0.0132 -1.9963
18616TIP3    H277340   2.974   3.096   1.462 -0.0265  2.2498 -1.3901
18617TIP3   OH277341   2.344   2.903  12.529 -0.1271  0.0809 -0.3625
18617TIP3    H177342   2.369   2.815  12.557 -0.0236 -0.0094 -0.7348
18617TIP3    H277343   2.425   2.954  12.534 -0.2672  0.2518  0.2184
18618TIP3   OH277344   2.976   4.192   4.225  0.1749 -0.0901 -0.4654
18618TIP3    H177345   2.926   4.135   4.166  0.7385 -2.4668  1.2711
18618TIP3    H277346   3.050   4.138   4.252  2.0157  2.3293 -0.6035
18619TIP3   OH277347   3.747   3.215  16.082  0.2514  0.9349  0.2233
18619TIP3    H177348   3.813   3.284  16.082  2.0596 -0.5893 -4.0081
18619TIP3    H277349   3.666   3.258  16.053  0.0078  2.2310  2.6846
18620TIP3   OH277350   3.883   0.875  16.024 -0.1326  0.1685  0.4854
18620TIP3    H177351   3.892   0.898  16.117 -0.4245 -2.0726  1.0891
18620TIP3    H277352   3.945   0.803  16.011  0.7033  1.2008 -1.3330
18621TIP3   OH277353   0.423   4.661   6.430 -0.1920  0.2361  0.1520
18621TIP3    H177354   0.371   4.742   6.432 -0.1296  0.2737  0.3685
18621TIP3    H277355   0.384   4.608   6.361 -0.6206  0.1966  0.4221
18622TIP3   OH277356   6.110   3.730  15.081  0.2559 -0.2748 -0.3805
18622TIP3    H177357   6.060   3.698  15.157 -0.3798  1.7365  0.0836
18622TIP3    H277358   6.195   3.753  15.117  0.0396  0.4365 -0.3071
18623TIP3   OH277359   6.121   0.145   3.597  0.6186  0.1294 -0.4176
18623TIP3    H177360   6.119   0.195   3.516 -0.9816 -0.8171 -0.9844
18623TIP3    H277361   6.203   0.095   3.592 -0.3945 -1.4040 -2.3830
18624TIP3   OH277362   6.760   5.020  13.523 -0.0439 -0.1965  0.5856
18624TIP3    H177363   6.823   4.962  13.567  2.8897  0.7258 -2.2479
18624TIP3    H277364   6.730   4.970  13.448 -0.2768  0.5878  0.1538
18625TIP3   OH277365   4.729   0.488  11.869 -0.0893 -0.4987  0.1027
18625TIP3    H177366   4.711   0.411  11.922  0.2316  0.3153  1.4157
18625TIP3    H277367   4.668   0.482  11.795 -0.9643 -1.3188  0.8916
18626TIP3   OH277368   4.516   0.988  11.579  0.1190  0.6779 -0.4059
18626TIP3    H177369   4.567   0.995  11.498 -1.4265  3.8379 -1.2041
18626TIP3    H277370   4.526   1.073  11.621 -1.8678  0.2528  1.0056
18627TIP3   OH277371   1.999   3.007  11.319  0.0157 -0.1308 -0.0389
18627TIP3    H177372   1.942   3.057  11.261 -1.4432 -1.4610  0.2151
18627TIP3    H277373   2.073   2.982  11.264 -0.7755 -0.3833 -1.0061
18628TIP3   OH277374   6.348   6.767  16.438  0.6436 -0.0694  0.4034
18628TIP3    H177375   6.255   6.787  16.449  0.0486 -1.8778 -1.0312
18628TIP3    H277376   6.368   6.706  16.509  0.3636 -0.7795 -0.1184
18629TIP3   OH277377   2.491   4.079   6.661  0.1465  0.1620  0.6395
18629TIP3    H177378   2.557   4.030   6.611  0.2123  1.3730 -0.4641
18629TIP3    H277379   2.441   4.126   6.595 -0.6596  0.6774  1.6199
18630TIP3   OH277380   5.624   5.341   2.889 -0.1669 -0.2658 -0.2411
18630TIP3    H177381   5.566   5.314   2.817 -0.9783 -1.3243  0.7937
18630TIP3    H277382   5.712   5.328   2.854 -0.5498 -1.2597 -0.8732
18631TIP3   OH277383   3.723   2.976  15.560  0.3163 -0.0500  0.9665
18631TIP3    H177384   3.681   2.967  15.646  1.9818  2.7506  2.1750
18631TIP3    H277385   3.812   3.005  15.581  0.5370  1.3341 -1.7293
18632TIP3   OH277386   2.064   1.634  13.513  0.3013  0.2398 -0.0134
18632TIP3    H177387   2.007   1.570  13.555  1.0307 -1.2062 -1.1710
18632TIP3    H277388   2.132   1.652  13.578 -0.3737  0.4756  0.6294
18633TIP3   OH277389   5.814   1.823  13.586  0.2504  0.5083  0.1613
18633TIP3    H177390   5.823   1.918  13.591  1.8373  0.2392  3.2364
18633TIP3    H277391   5.763   1.799  13.663  2.0170 -1.3909  0.7710
18634TIP3   OH277392   3.191   6.448  12.719 -0.4482 -0.2643  0.0976
18634TIP3    H177393   3.172   6.511  12.789  0.6670  0.5838 -0.3464
18634TIP3    H277394   3.110   6.398  12.709 -0.9691  0.3288  1.2543
18635TIP3   OH277395   0.042   4.653  13.994  0.1121 -0.1533  0.9442
18635TIP3    H177396   0.023   4.569  13.953  1.9964 -1.1106  1.9380
18635TIP3    H277397  -0.007   4.717  13.943  0.3485 -1.6171 -1.1730
18636TIP3   OH277398   3.932   1.551  11.044  1.4319  0.1693 -0.7767
18636TIP3    H177399   4.003   1.517  11.099  0.4005 -0.1115  0.4089
18636TIP3    H277400   3.908   1.477  10.989  0.8996 -0.2576  0.0265
18637TIP3   OH277401   1.865   6.256  16.143 -0.4714  0.1778  0.4040
18637TIP3    H177402   1.825   6.232  16.227  0.3012 -0.0746  0.7104
18637TIP3    H277403   1.891   6.347  16.154  0.0145  0.0186  0.5968
18638TIP3   OH277404   0.382   1.874   6.709  0.0673 -0.2613 -0.2834
18638TIP3    H177405   0.323   1.948   6.721  0.2913 -0.4307  1.9298
18638TIP3    H277406   0.454   1.910   6.656  1.1098  1.6448  2.3256
18639TIP3   OH277407   5.448   5.153   1.312  0.8634 -0.6571 -0.1367
18639TIP3    H177408   5.453   5.067   1.269 -2.7307 -1.2771  0.4679
18639TIP3    H277409   5.417   5.212   1.243  1.8922 -0.1650 -0.1769
18640TIP3   OH277410   5.269   6.124  13.720 -0.1807  0.1312  0.1809
18640TIP3    H177411   5.243   6.066  13.649  1.4320 -0.0092 -0.3117
18640TIP3    H277412   5.202   6.111  13.787  0.0578 -2.1721  0.0042
18641TIP3   OH277413   2.966   3.861   0.549  0.1537 -0.9104 -0.3044
18641TIP3    H177414   2.998   3.772   0.564 -1.4992 -1.4292  0.3287
18641TIP3    H277415   2.891   3.849   0.490 -0.1260  0.0450 -0.1428
18642TIP3   OH277416   5.138   5.403  14.644  0.1642 -0.0665  0.5418
18642TIP3    H177417   5.062   5.457  14.622  0.1658 -0.4383 -0.4190
18642TIP3    H277418   5.207   5.466  14.665  0.1400  0.3107 -0.4823
18643TIP3   OH277419   4.759   5.095   5.356 -0.0951 -0.0048  0.4141
18643TIP3    H177420   4.669   5.088   5.390  0.7682 -0.3718  2.7471
18643TIP3    H277421   4.756   5.169   5.297 -2.3433 -1.0795 -0.9055
18644TIP3   OH277422   5.396   6.139   0.732  0.5267  0.3897 -0.8133
18644TIP3    H177423   5.427   6.064   0.681  0.8100 -1.1544  1.5233
18644TIP3    H277424   5.327   6.103   0.788  1.5149  1.5734  1.2438
18645TIP3   OH277425   4.300   0.685  13.401 -0.3636  0.5447  0.5508
18645TIP3    H177426   4.275   0.600  13.437  0.5559 -0.1930 -0.5322
18645TIP3    H277427   4.217   0.725  13.373 -0.7489 -0.1753  0.6602
18646TIP3   OH277428   6.241   3.071  12.653 -0.5614 -0.8009  0.2065
18646TIP3    H177429   6.177   3.085  12.723  0.2574 -0.7029  0.9463
18646TIP3    H277430   6.217   3.133  12.585  0.3047  1.0424  1.5610
18647TIP3   OH277431   1.287   1.957   5.419 -0.0486  0.6387  0.1633
18647TIP3    H177432   1.329   2.043   5.423  0.0599  0.6136 -0.3584
18647TIP3    H277433   1.344   1.906   5.361 -0.8827  0.6503 -0.6678
18648TIP3   OH277434   1.523   5.486   2.835  0.2042 -0.4686  0.5600
18648TIP3    H177435   1.489   5.560   2.884  2.4471  0.9019  0.1542
18648TIP3    H277436   1.452   5.422   2.833 -1.7745  1.6822  0.9128
18649TIP3   OH277437   4.022   2.998   2.091  0.1462  0.7748 -0.4431
18649TIP3    H177438   4.035   2.962   2.178  1.3347 -1.7167 -1.6124
18649TIP3    H277439   4.088   2.955   2.036 -0.0751  2.8426 -2.4353
18650TIP3   OH277440   6.448   2.100   4.327  0.1716 -0.8484  0.0358
18650TIP3    H177441   6.414   2.190   4.328  0.1578 -0.8357 -1.2158
18650TIP3    H277442   6.391   2.053   4.388 -1.1354 -0.4732 -0.8715
18651TIP3   OH277443   6.587   5.631  13.045  0.4998  0.3304  0.1696
18651TIP3    H177444   6.595   5.606  12.953 -0.2226  1.2386 -0.1450
18651TIP3    H277445   6.608   5.551  13.094 -0.2970 -0.4696 -0.7940
18652TIP3   OH277446   0.669   1.128  11.904  0.0050  0.0264 -0.5473
18652TIP3    H177447   0.632   1.216  11.909 -2.0818 -0.8619  0.1791
18652TIP3    H277448   0.593   1.071  11.899  1.2976 -1.8617  0.8746
18653TIP3   OH277449   3.358   5.541  17.152  0.4990 -0.3633 -0.1437
18653TIP3    H177450   3.286   5.495  17.110 -0.6564 -1.4664  2.9531
18653TIP3    H277451   3.404   5.474  17.203  1.0266  1.1771  1.4669
18654TIP3   OH277452   1.842   4.903  12.566  0.0980 -0.1343 -0.2890
18654TIP3    H177453   1.927   4.945  12.552 -0.2049 -0.0064 -1.9038
18654TIP3    H277454   1.849   4.861  12.652  1.4396  0.7086  0.0246
18655TIP3   OH277455   2.583   3.020  12.127 -0.7611  0.1617  0.0109
18655TIP3    H177456   2.659   3.066  12.093 -1.5913  1.0896 -0.6310
18655TIP3    H277457   2.559   2.958  12.058 -1.0038  0.3688 -0.0940
18656TIP3   OH277458   0.056   3.070   4.707 -0.5111 -0.4187  0.1493
18656TIP3    H177459  -0.036   3.044   4.716 -0.4074 -0.4525  1.2171
18656TIP3    H277460   0.062   3.107   4.619 -1.5784 -0.2959  0.1184
18657TIP3   OH277461   4.656   4.968  14.511 -0.6110  0.7975  0.9387
18657TIP3    H177462   4.602   5.020  14.452 -1.0011 -1.1366 -0.4512
18657TIP3    H277463   4.600   4.895  14.538  0.6120 -0.0904  1.1236
18658TIP3   OH277464   0.842   0.547  11.161  0.0797 -0.0837 -0.0751
18658TIP3    H177465   0.892   0.524  11.239  0.7913  0.9290 -0.2186
18658TIP3    H277466   0.866   0.481  11.096 -0.3276 -0.7847  0.4904
18659TIP3   OH277467   1.337   2.587   5.372 -0.5816  0.9312 -0.0637
18659TIP3    H177468   1.391   2.666   5.368  1.5427 -0.4803 -0.1832
18659TIP3    H277469   1.344   2.558   5.463 -0.1204  0.0628 -0.3718
18660TIP3   OH277470   5.586   3.421  15.041  0.0550 -0.1718 -0.2381
18660TIP3    H177471   5.504   3.441  14.995  0.5687 -0.7004 -1.3898
18660TIP3    H277472   5.558   3.385  15.125 -0.8906  1.5587  0.2025
18661TIP3   OH277473   2.330   1.787   5.726 -0.7126 -0.2567 -0.4885
18661TIP3    H177474   2.268   1.725   5.686  0.4161 -1.4981 -0.3666
18661TIP3    H277475   2.416   1.748   5.710 -0.1544 -0.2056  2.1236
18662TIP3   OH277476   5.415   6.742  14.081  0.3374  0.5981  0.2838
18662TIP3    H177477   5.510   6.726  14.078  0.3343  0.7579 -0.8678
18662TIP3    H277478   5.397   6.795  14.003 -0.8977 -0.5029 -0.2127
18663TIP3   OH277479   5.844   1.260  17.244 -0.4132 -0.4485  0.0130
18663TIP3    H177480   5.789   1.336  17.223  0.1460 -0.2319 -0.6866
18663TIP3    H277481   5.829   1.200  17.171  0.7155 -0.1478 -0.4770
18664TIP3   OH277482   4.294   3.271  15.820  0.0679 -0.2082 -0.5749
18664TIP3    H177483   4.255   3.290  15.905 -0.8503 -0.2564 -0.9792
18664TIP3    H277484   4.306   3.176  15.820  1.6124 -0.0246  0.1489
18665TIP3   OH277485   2.835   0.186   1.284  0.1331  0.0816 -0.3629
18665TIP3    H177486   2.743   0.172   1.263  0.4941 -0.3977 -1.6723
18665TIP3    H277487   2.867   0.243   1.214  1.4569 -1.8433 -1.3715
18666TIP3   OH277488   0.925   3.570   6.383  0.3741  0.0082  0.2012
18666TIP3    H177489   0.901   3.510   6.313 -2.3583 -0.1870  1.2376
18666TIP3    H277490   0.939   3.654   6.340 -1.4017 -0.0875 -0.5707
18667TIP3   OH277491   0.735   6.104  11.448  0.6605  0.1101 -0.3717
18667TIP3    H177492   0.738   6.195  11.418 -0.0321 -0.0672 -0.9989
18667TIP3    H277493   0.800   6.059  11.393 -0.2525 -0.1174 -1.2624
18668TIP3   OH277494   5.191   6.415   3.869  0.3987 -0.0893 -0.3262
18668TIP3    H177495   5.252   6.417   3.795  1.7578  4.0805  0.7616
18668TIP3    H277496   5.230   6.475   3.933 -3.8757  1.2113  1.1816
18669TIP3   OH277497   0.049   5.349   0.221 -0.7220  0.1124 -0.1389
18669TIP3    H177498   0.075   5.441   0.225 -2.0896  0.5207 -0.4522
18669TIP3    H277499   0.125   5.304   0.183 -0.6403  1.3495 -1.4753
18670TIP3   OH277500   0.867   2.999  17.088 -0.1057 -0.1798  0.3635
18670TIP3    H177501   0.810   2.945  17.143 -0.0498  0.9631  1.5638
18670TIP3    H277502   0.846   3.089  17.113  0.1353  0.3459 -1.2843
18671TIP3   OH277503   2.087   0.151  14.511 -0.5832 -0.7124  0.6142
18671TIP3    H177504   1.993   0.171  14.512 -0.4288  0.1704 -0.6769
18671TIP3    H277505   2.111   0.141  14.603 -2.1035 -1.6920  0.9225
18672TIP3   OH277506   5.922   2.361  17.219  0.3883  0.2905 -0.3445
18672TIP3    H177507   5.904   2.297  17.150  0.3973 -1.4326  1.2043
18672TIP3    H277508   6.002   2.330  17.260  0.3476  1.2619  0.4797
18673TIP3   OH277509   5.387   5.498   3.287  0.2958  0.5652  0.2433
18673TIP3    H177510   5.294   5.511   3.308  0.3813  1.7331 -0.1130
18673TIP3    H277511   5.386   5.441   3.210 -0.1212  0.5069  0.2902
18674TIP3   OH277512   3.472   0.248   5.857  0.0006  0.4011  0.1518
18674TIP3    H177513   3.532   0.298   5.912 -0.3447  0.5751  0.3725
18674TIP3    H277514   3.475   0.293   5.772  1.0920 -0.3086 -0.1927
18675TIP3   OH277515   1.174   0.447  13.439 -0.1748  0.1632  0.5326
18675TIP3    H177516   1.179   0.542  13.432 -2.9452  0.3661  0.7094
18675TIP3    H277517   1.154   0.417  13.351  0.1726 -0.2165  0.5798
18676TIP3   OH277518   4.689   6.460   1.926 -0.0691 -0.0094 -0.3240
18676TIP3    H177519   4.770   6.500   1.893 -0.5399  0.2233 -1.2063
18676TIP3    H277520   4.703   6.454   2.020 -0.3141  3.0178 -0.0380
18677TIP3   OH277521   4.941   2.654   1.334 -0.3338 -0.3582 -0.7678
18677TIP3    H177522   4.880   2.694   1.273  0.3672 -0.0248 -1.2674
18677TIP3    H277523   5.022   2.704   1.323 -0.4188  0.2007  0.9936
18678TIP3   OH277524   2.851   0.308  10.381 -0.3250  0.7416 -0.4293
18678TIP3    H177525   2.833   0.230  10.434  0.4662  0.3936 -0.6691
18678TIP3    H277526   2.812   0.288  10.296  1.0126  0.0604 -0.8944
18679TIP3   OH277527   4.283   0.356  13.253  0.4666 -0.2033  0.5672
18679TIP3    H177528   4.296   0.382  13.344  0.4878  4.4280 -0.6379
18679TIP3    H277529   4.357   0.298  13.233  0.1602 -1.7133  3.5924
18680TIP3   OH277530   3.191   3.880   0.345  0.3211 -0.1370  0.1067
18680TIP3    H177531   3.109   3.848   0.382 -0.5612 -0.8210 -2.3480
18680TIP3    H277532   3.250   3.805   0.350 -0.8741 -1.3708 -3.0073
18681TIP3   OH277533   5.981   3.295  12.943  0.0874 -0.4513  0.0802
18681TIP3    H177534   5.966   3.229  12.876  0.5508 -0.0554 -0.4113
18681TIP3    H277535   6.017   3.370  12.896 -0.3025  0.1027  0.6542
18682TIP3   OH277536   2.522   1.618  15.133  0.3729 -0.4641 -0.4573
18682TIP3    H177537   2.432   1.590  15.113  0.2740 -0.9517  0.6471
18682TIP3    H277538   2.576   1.542  15.110  0.4268 -0.4417 -0.4044
18683TIP3   OH277539   4.182   0.636  16.537  0.2823  0.8864 -0.0728
18683TIP3    H177540   4.103   0.688  16.523  1.8654  3.0348 -1.2711
18683TIP3    H277541   4.168   0.557  16.484 -1.2200  1.0558  0.0470
18684TIP3   OH277542   5.065   6.789  15.420 -0.2656 -0.4355  0.5872
18684TIP3    H177543   5.080   6.786  15.515  0.9936 -0.3000  0.3931
18684TIP3    H277544   5.038   6.700  15.398 -2.3532 -0.0300  1.3539
18685TIP3   OH277545   1.086   5.520   3.071  0.0348 -0.1028 -0.5166
18685TIP3    H177546   1.122   5.431   3.069  0.4247  0.0590 -0.5954
18685TIP3    H277547   1.007   5.512   3.125  0.2356 -0.4317 -0.2726
18686TIP3   OH277548   6.454   3.630  11.615  0.0701 -0.3411 -0.2130
18686TIP3    H177549   6.377   3.669  11.658  0.5294 -0.2429  0.5272
18686TIP3    H277550   6.440   3.535  11.625  0.2036 -0.3178  0.2049
18687TIP3   OH277551   4.431   1.266   3.898 -0.1437 -0.4142  0.2752
18687TIP3    H177552   4.385   1.187   3.927 -0.1598 -0.5800 -0.1935
18687TIP3    H277553   4.420   1.266   3.803  0.0827  0.0123  0.2494
18688TIP3   OH277554   4.966   6.745  11.870 -0.3094  0.1470  0.1426
18688TIP3    H177555   4.905   6.672  11.864 -0.8478  0.6438 -0.4438
18688TIP3    H277556   5.044   6.716  11.822 -0.1672 -0.3924  0.6889
18689TIP3   OH277557   0.065   6.816  17.206 -0.2146  0.5724  0.2074
18689TIP3    H177558   0.130   6.827  17.136  2.0814  1.8150  2.4456
18689TIP3    H277559   0.001   6.754  17.170  2.5661 -1.2302 -1.8096
18690TIP3   OH277560   5.142   4.735   3.772 -0.8047  0.3804  0.0503
18690TIP3    H177561   5.047   4.737   3.776 -1.0618  0.4510 -3.9036
18690TIP3    H277562   5.162   4.707   3.682  2.8931 -0.1348  0.9363
18691TIP3   OH277563   3.727   2.572  13.501 -0.2582  0.7071  0.2712
18691TIP3    H177564   3.742   2.661  13.470 -0.9313  1.4673  2.0231
18691TIP3    H277565   3.640   2.575  13.542  0.0637 -0.5414  1.0811
18692TIP3   OH277566   5.951   1.161  10.882  0.6577  0.0710 -0.0692
18692TIP3    H177567   5.910   1.199  10.804  2.7684  0.9280 -0.8156
18692TIP3    H277568   5.922   1.070  10.883 -1.1078  0.6168 -0.6563
18693TIP3   OH277569   2.949   5.189  14.569 -0.3923  0.1317 -0.0921
18693TIP3    H177570   2.895   5.144  14.504 -1.6621 -0.3483  1.2370
18693TIP3    H277571   3.006   5.121  14.604 -1.3886 -0.1826  0.9739
18694TIP3   OH277572   0.447   2.821  15.442  0.1862 -0.1769 -0.1393
18694TIP3    H177573   0.537   2.844  15.467  0.3558  2.4823 -2.8374
18694TIP3    H277574   0.456   2.740  15.392  1.3423  0.8228 -1.6258
18695TIP3   OH277575   2.662   5.451  13.102 -0.1141  0.0309 -0.7821
18695TIP3    H177576   2.599   5.509  13.057  0.3079  2.4155  1.5792
18695TIP3    H277577   2.737   5.508  13.121  0.1945 -1.1990  1.8654
18696TIP3   OH277578   1.277   4.839   3.599 -0.3137  0.5718  0.3342
18696TIP3    H177579   1.353   4.785   3.620 -0.3411  0.5274  0.3196
18696TIP3    H277580   1.313   4.923   3.572 -0.1584 -0.2104 -2.0145
18697TIP3   OH277581   5.641   2.288   3.730  0.5974  0.0136  0.3359
18697TIP3    H177582   5.723   2.313   3.688  0.9409  1.9900  2.1472
18697TIP3    H277583   5.583   2.267   3.657  1.8002  1.4124 -1.0565
18698TIP3   OH277584   2.089   2.842   1.190  0.2619 -0.0511  0.3739
18698TIP3    H177585   2.176   2.868   1.160 -0.4553  1.2608 -0.5957
18698TIP3    H277586   2.043   2.925   1.206 -1.2614 -0.7287 -0.4089
18699TIP3   OH277587   5.456   1.539  14.791 -0.3217  0.7417 -0.1008
18699TIP3    H177588   5.455   1.634  14.780 -1.7612  0.6805 -0.6156
18699TIP3    H277589   5.505   1.525  14.871  0.3448  1.8911 -0.2921
18700TIP3   OH277590   0.879   6.610  11.569  0.6280  0.4100 -0.4248
18700TIP3    H177591   0.967   6.578  11.550  0.8877  0.3733  0.8093
18700TIP3    H277592   0.831   6.531  11.596  0.8967  0.8201  1.2959
18701TIP3   OH277593   4.560   2.797   0.916  0.3151 -0.3511 -0.5242
18701TIP3    H177594   4.548   2.756   1.002 -1.9631 -0.1246 -0.7009
18701TIP3    H277595   4.601   2.729   0.863  0.8528 -0.8214  0.4690
18702TIP3   OH277596   5.456   5.001   6.081 -0.8835 -0.1375  0.4576
18702TIP3    H177597   5.411   4.917   6.094 -1.4580 -0.2494 -1.9583
18702TIP3    H277598   5.456   5.042   6.168 -2.1452 -1.8795  1.3115
18703TIP3   OH277599   5.228   0.160  16.096 -0.1876 -0.7459  0.0106
18703TIP3    H177600   5.321   0.167  16.073  0.1659  0.8325  1.7458
18703TIP3    H277601   5.222   0.083  16.152  0.6225  0.7811  2.2657
18704TIP3   OH277602   3.462   0.744   5.789  0.1035 -0.1373 -0.6730
18704TIP3    H177603   3.556   0.743   5.805 -0.2041 -2.1762  1.1918
18704TIP3    H277604   3.453   0.770   5.697  2.3893  1.5706 -0.4602
18705TIP3   OH277605   3.022   5.170   1.435  0.1534  0.1362  0.4831
18705TIP3    H177606   3.026   5.180   1.340  0.9510  1.0636  0.5978
18705TIP3    H277607   2.939   5.125   1.452 -0.9073  1.6565 -0.5285
18706TIP3   OH277608   1.792   1.549  16.477  0.3843 -0.6422  0.3154
18706TIP3    H177609   1.852   1.493  16.429  1.1955  0.2933  0.2240
18706TIP3    H277610   1.706   1.511  16.461  0.7709 -1.0187 -0.9417
18707TIP3   OH277611   5.812   0.176  17.182  0.0182  0.4821  0.0554
18707TIP3    H177612   5.744   0.156  17.247  0.7820 -0.1640  0.6603
18707TIP3    H277613   5.787   0.125  17.105 -0.3340  0.4641  0.1795
18708TIP3   OH277614   5.907   2.880  15.967  0.5798 -0.0990  0.4140
18708TIP3    H177615   5.974   2.912  16.027  0.4416  2.1285 -0.5790
18708TIP3    H277616   5.828   2.930  15.990 -0.1940 -1.1993  0.1894
18709TIP3   OH277617   1.127   4.874  15.791  0.0480 -0.1853  0.1909
18709TIP3    H177618   1.181   4.867  15.870  0.7559 -2.1344 -0.4331
18709TIP3    H277619   1.161   4.806  15.733 -1.2971  0.3957 -1.3008
18710TIP3   OH277620   1.436   2.510   3.698  0.3105  0.0935 -0.5151
18710TIP3    H177621   1.428   2.416   3.682 -0.3600  0.1826 -0.7214
18710TIP3    H277622   1.351   2.535   3.734  1.1956  0.2293  1.5760
18711TIP3   OH277623   0.138   3.108  13.573  0.3337 -0.3396  0.5989
18711TIP3    H177624   0.140   3.092  13.479 -0.4893 -0.7559  0.6493
18711TIP3    H277625   0.230   3.118  13.597  0.4953  0.6390 -0.3888
18712TIP3   OH277626   4.636   4.974   1.076 -1.0639  0.1584 -0.4869
18712TIP3    H177627   4.580   4.954   1.150  2.4598  0.1503  2.3416
18712TIP3    H277628   4.643   4.891   1.028  1.2267 -1.5191  2.5501
18713TIP3   OH277629   6.660   2.927  12.597  0.3874 -0.0336 -0.2814
18713TIP3    H177630   6.570   2.896  12.607  1.0979 -2.0340  0.1508
18713TIP3    H277631   6.704   2.860  12.545  1.1982  1.8158 -2.0763
18714TIP3   OH277632   2.317   1.203  15.882  0.0431 -0.0927 -0.5394
18714TIP3    H177633   2.231   1.171  15.857 -0.2251 -0.2135  0.5224
18714TIP3    H277634   2.303   1.251  15.964  0.9904 -0.1860 -0.3107
18715TIP3   OH277635   0.144   2.434   5.532  0.2182 -0.1611  0.3214
18715TIP3    H177636   0.170   2.373   5.601 -1.3055 -0.2910  0.8075
18715TIP3    H277637   0.107   2.509   5.580 -0.1634  0.0704 -0.3356
18716TIP3   OH277638   2.931   6.484   3.661 -0.7086 -0.2174  0.3606
18716TIP3    H177639   2.857   6.439   3.621 -0.2252  0.1787 -0.9905
18716TIP3    H277640   2.906   6.577   3.661 -1.2365 -0.3301  2.1390
18717TIP3   OH277641   3.830   2.200   0.698 -0.0475 -0.8000 -0.3434
18717TIP3    H177642   3.750   2.147   0.698 -1.8581  1.6877  3.0904
18717TIP3    H277643   3.857   2.201   0.790  1.3822  2.0367 -0.7527
18718TIP3   OH277644   5.093   5.632  10.743  0.0095 -0.9424 -0.0839
18718TIP3    H177645   5.024   5.575  10.776  0.1185 -1.6630 -1.0879
18718TIP3    H277646   5.134   5.582  10.673 -0.2846  0.6155 -1.3959
18719TIP3   OH277647   4.463   3.632  13.715 -0.0757 -0.1471 -0.0662
18719TIP3    H177648   4.394   3.653  13.779 -0.0729  0.9326 -0.4126
18719TIP3    H277649   4.476   3.713  13.667  0.5004 -0.7362 -0.9042
18720TIP3   OH277650   0.146   4.969   3.465  0.0393  0.3896 -0.1899
18720TIP3    H177651   0.102   4.924   3.538  2.1092  0.1581  0.9434
18720TIP3    H277652   0.233   4.991   3.499  1.4520 -0.7091 -2.9514
18721TIP3   OH277653   6.176   4.874  14.818 -0.2473  0.3503 -0.0887
18721TIP3    H177654   6.237   4.804  14.799  1.8952  0.9277  4.1029
18721TIP3    H277655   6.221   4.954  14.790 -1.3724  0.3496 -1.9586
18722TIP3   OH277656   1.073   4.973   4.220 -0.3511  0.6863  0.3994
18722TIP3    H177657   1.027   4.896   4.253  0.2073  1.4855  3.1472
18722TIP3    H277658   1.133   4.939   4.154  0.3641 -1.3460  2.0363
18723TIP3   OH277659   0.921   4.747   4.281 -0.2078  0.0597  0.7998
18723TIP3    H177660   0.850   4.796   4.239 -0.2223 -0.9339 -0.3485
18723TIP3    H277661   0.876   4.685   4.339 -0.3867 -1.5852 -1.0149
18724TIP3   OH277662   0.572   6.531  17.040 -0.4689 -0.0215  0.3270
18724TIP3    H177663   0.620   6.486  17.110  0.2385 -1.6702 -1.1765
18724TIP3    H277664   0.620   6.509  16.961 -1.8862  0.9562 -0.8224
18725TIP3   OH277665   5.403   1.899   0.321  0.5446  0.3881  0.0064
18725TIP3    H177666   5.378   1.975   0.374 -1.1619  2.9605 -4.2452
18725TIP3    H277667   5.496   1.887   0.340  0.3195  2.0588  2.4679
18726TIP3   OH277668   5.278   6.614  17.273 -0.7806  0.2676  0.0475
18726TIP3    H177669   5.268   6.638  17.365  2.1903  1.0051  0.2467
18726TIP3    H277670   5.322   6.529  17.275 -1.5947 -0.1776 -0.6886
18727TIP3   OH277671   2.178   0.742  12.620  0.7061 -0.5029  0.6758
18727TIP3    H177672   2.201   0.714  12.709 -0.6246 -2.2296  0.5033
18727TIP3    H277673   2.092   0.703  12.604  0.3609  0.8445 -0.9094
18728TIP3   OH277674   2.729   0.564  12.362  0.0580  0.2403 -0.4845
18728TIP3    H177675   2.738   0.658  12.345 -0.6471  0.5790  0.9655
18728TIP3    H277676   2.726   0.524  12.275  3.0655  1.2807 -1.1310
18729TIP3   OH277677   6.694   2.640   3.495 -0.5368  0.0534  0.5171
18729TIP3    H177678   6.624   2.609   3.552 -1.0854  0.7193  0.2089
18729TIP3    H277679   6.689   2.583   3.418 -2.0282  1.3586 -0.3789
18730TIP3   OH277680   5.183   5.904   0.650 -0.1544 -0.3076  0.5878
18730TIP3    H177681   5.158   5.950   0.570  0.9980 -0.5507  0.0790
18730TIP3    H277682   5.272   5.872   0.632 -0.8958 -2.6301  0.9697
18731TIP3   OH277683   5.160   3.323   3.832  0.1915  0.0597  0.0072
18731TIP3    H177684   5.227   3.381   3.868  0.2439 -0.5096  0.8465
18731TIP3    H277685   5.142   3.358   3.745  0.8397  0.8240  0.1755
18732TIP3   OH277686   2.286   1.207  14.434 -0.2494  0.1293 -0.4015
18732TIP3    H177687   2.203   1.195  14.480 -0.6175 -0.4801 -1.2123
18732TIP3    H277688   2.349   1.156  14.486 -0.4219  0.3998  0.0814
18733TIP3   OH277689   3.908   4.913  10.569  0.3625  0.4014  0.1181
18733TIP3    H177690   3.993   4.940  10.534  0.4901 -0.4431 -0.2438
18733TIP3    H277691   3.919   4.820  10.588 -1.0974 -0.1973 -1.8366
18734TIP3   OH277692   1.762   0.509   3.548  0.4371 -0.0721  0.4000
18734TIP3    H177693   1.828   0.541   3.487  1.0242 -0.8751  0.6085
18734TIP3    H277694   1.810   0.490   3.629 -0.3000  0.7924  1.0581
18735TIP3   OH277695   1.791   1.341   0.394 -0.4793 -0.3790  0.0555
18735TIP3    H177696   1.696   1.345   0.405 -0.1569  0.8553  2.8918
18735TIP3    H277697   1.822   1.289   0.468  1.1537  0.3398 -0.0887
18736TIP3   OH277698   2.822   0.238   3.211  0.0049 -0.3842  0.8832
18736TIP3    H177699   2.892   0.261   3.151 -2.3355  1.8666 -1.1390
18736TIP3    H277700   2.861   0.176   3.272  2.9351 -1.4235 -1.9305
18737TIP3   OH277701   1.420   5.467  15.419  0.0701  0.6948 -0.5205
18737TIP3    H177702   1.403   5.438  15.329 -0.6153  0.7039 -0.3974
18737TIP3    H277703   1.512   5.445  15.434  0.1248  0.4795 -1.1435
18738TIP3   OH277704   2.200   4.563  16.676  0.5898  0.4582  0.2372
18738TIP3    H177705   2.222   4.571  16.769  0.4899  1.4578  0.1758
18738TIP3    H277706   2.150   4.482  16.670  0.2754  0.5898  1.1136
18739TIP3   OH277707   4.766   2.219   1.489 -0.3238  0.2867  0.3384
18739TIP3    H177708   4.808   2.300   1.518 -1.7492  0.8686  0.7911
18739TIP3    H277709   4.694   2.205   1.551  0.5233 -1.8676  0.8920
18740TIP3   OH277710   1.349   6.762   1.981 -0.5444  0.0027  0.1354
18740TIP3    H177711   1.440   6.788   1.996 -0.6750  0.9688 -0.7112
18740TIP3    H277712   1.320   6.729   2.066  0.6710 -0.5555  0.3534
18741TIP3   OH277713   1.821   0.004   0.846  0.2806  0.2438  0.1414
18741TIP3    H177714   1.909   0.008   0.883  0.0879 -0.8393  0.7390
18741TIP3    H277715   1.834  -0.032   0.758  0.4306 -0.0526  0.2816
18742TIP3   OH277716   4.164   3.615  10.684  0.1284  0.3464  0.1419
18742TIP3    H177717   4.207   3.551  10.740  1.5198  0.5755 -0.6149
18742TIP3    H277718   4.211   3.697  10.701  0.0845  0.5773 -0.7861
18743TIP3   OH277719   6.486   1.841   2.221 -0.6525 -0.1550 -0.3343
18743TIP3    H177720   6.408   1.860   2.273 -1.5110  0.4242 -1.7996
18743TIP3    H277721   6.509   1.751   2.245  0.1069  0.7311  2.4338
18744TIP3   OH277722   1.562   2.843  12.692 -0.1866 -0.7613  0.2522
18744TIP3    H177723   1.479   2.797  12.686 -0.1610 -1.1069  2.0151
18744TIP3    H277724   1.544   2.931  12.660 -0.8189 -1.3187 -0.9280
18745TIP3   OH277725   4.882   0.067  15.858  0.0189  0.0202  0.0422
18745TIP3    H177726   4.897   0.031  15.946  0.8112 -1.1273 -0.5438
18745TIP3    H277727   4.938   0.144  15.853 -0.9859  0.8347  0.9848
18746TIP3   OH277728   3.232   0.340  15.462 -0.0617 -0.4871 -0.2090
18746TIP3    H177729   3.267   0.251  15.450  0.5737 -0.4577  1.2755
18746TIP3    H277730   3.295   0.383  15.520 -1.1069  0.4664  0.2503
18747TIP3   OH277731   3.148   4.080   5.091  0.1370  0.2789 -0.6997
18747TIP3    H177732   3.130   4.054   5.182  0.1550  1.0067 -0.4901
18747TIP3    H277733   3.138   3.998   5.041 -0.3397 -0.0300 -0.1135
18748TIP3   OH277734   0.177   5.129  14.722 -0.0221 -0.0501 -0.9074
18748TIP3    H177735   0.171   5.198  14.655 -1.2306 -0.3013 -1.0613
18748TIP3    H277736   0.086   5.111  14.746  0.4120  0.2736  1.0455
18749TIP3   OH277737   1.673   4.029  16.259  0.7050  0.2549 -0.1229
18749TIP3    H177738   1.749   4.015  16.316 -1.2516 -0.0368  2.5398
18749TIP3    H277739   1.629   4.105  16.297 -2.2117 -1.6844  0.5800
18750TIP3   OH277740   2.234   3.617  11.487  0.4762 -0.2790  0.0631
18750TIP3    H177741   2.195   3.531  11.503 -1.2280  0.4159 -0.2363
18750TIP3    H277742   2.264   3.646  11.573 -0.6305 -0.3828  0.4959
18751TIP3   OH277743   6.255   3.759  12.982  0.2173 -0.5384 -0.2807
18751TIP3    H177744   6.344   3.761  12.947 -0.1350  1.2990 -1.1363
18751TIP3    H277745   6.243   3.846  13.021 -1.6291 -0.3317 -1.2587
18752TIP3   OH277746   4.009   0.694   4.019 -0.0514  0.2347  0.1278
18752TIP3    H177747   4.024   0.701   4.114 -0.9168 -0.7238  0.3430
18752TIP3    H277748   3.914   0.682   4.011  0.0742 -0.1601 -0.8382
18753TIP3   OH277749   2.305   3.414  16.216 -0.9772 -0.0695 -0.2640
18753TIP3    H177750   2.306   3.507  16.193 -1.3060  0.0779  0.3058
18753TIP3    H277751   2.377   3.405  16.279  0.3661 -0.6069 -1.8207
18754TIP3   OH277752   3.015   0.615   0.150  0.4131  0.2542 -0.2782
18754TIP3    H177753   3.110   0.620   0.156  0.5576 -0.6493 -1.6521
18754TIP3    H277754   2.998   0.531   0.107 -1.0331  0.0629  0.6113
18755TIP3   OH277755   5.417   1.268  13.816 -0.0286  0.5348  0.2936
18755TIP3    H177756   5.467   1.338  13.775  0.8567 -1.1544 -1.6150
18755TIP3    H277757   5.325   1.290  13.799  0.2949  0.5052 -1.5741
18756TIP3   OH277758   1.570   1.608  12.323 -0.2453 -0.0261  0.2426
18756TIP3    H177759   1.497   1.608  12.262  0.8521  1.7032 -1.1508
18756TIP3    H277760   1.614   1.692  12.308  2.3221 -1.2267  0.6392
18757TIP3   OH277761   5.850   3.563   0.071 -0.1342  0.3221 -0.7543
18757TIP3    H177762   5.781   3.549   0.135  0.1194  1.1784 -0.2824
18757TIP3    H277763   5.877   3.654   0.084  0.7591  0.1387 -1.2476
18758TIP3   OH277764   3.310   6.079   5.054 -0.1812 -0.0661 -0.2815
18758TIP3    H177765   3.256   6.150   5.088 -0.3851  1.1924 -3.0804
18758TIP3    H277766   3.247   6.011   5.029 -0.0745 -0.7125  1.1363
18759TIP3   OH277767   5.736   1.346   4.097 -0.1827 -0.2025 -0.6446
18759TIP3    H177768   5.827   1.361   4.070 -0.3344 -0.3665 -1.2676
18759TIP3    H277769   5.742   1.291   4.175  0.3010  0.9670  0.1506
18760TIP3   OH277770   3.321   6.736   1.707 -1.1082  0.6931  0.3929
18760TIP3    H177771   3.264   6.726   1.631  1.1058  0.6181 -1.3214
18760TIP3    H277772   3.393   6.676   1.691 -0.5816  0.6970  2.5634
18761TIP3   OH277773   5.537   0.083  15.541  0.0913  0.8572  0.0088
18761TIP3    H177774   5.597   0.144  15.497  0.3839  0.0203 -0.7618
18761TIP3    H277775   5.475   0.140  15.588 -1.5144  1.8476 -3.1661
18762TIP3   OH277776   3.653   0.849  14.695  0.0948 -0.5159 -0.2054
18762TIP3    H177777   3.561   0.824  14.687  0.5904 -2.4636 -0.0775
18762TIP3    H277778   3.672   0.840  14.788 -0.2626  2.4400  0.1909
18763TIP3   OH277779   1.546   6.646   3.207 -0.0139 -0.0525 -0.7346
18763TIP3    H177780   1.482   6.600   3.153 -0.0589  0.5974 -1.2348
18763TIP3    H277781   1.500   6.664   3.289 -0.2247 -0.2509 -0.8074
18764TIP3   OH277782   3.270   2.094  12.581  0.2355 -0.6692  0.2097
18764TIP3    H177783   3.225   2.030  12.525 -1.5872  0.3936  0.4099
18764TIP3    H277784   3.320   2.041  12.643 -0.3892 -1.8893 -0.3089
18765TIP3   OH277785   5.763   0.665  10.442  0.1860 -0.0945 -0.1201
18765TIP3    H177786   5.763   0.578  10.402 -0.4302  0.3628 -1.1178
18765TIP3    H277787   5.821   0.656  10.518 -0.8215 -1.6835  0.4762
18766TIP3   OH277788   5.536   2.124  13.604  0.1786  0.0020  0.4164
18766TIP3    H177789   5.518   2.109  13.511 -1.5347  1.6496  0.4598
18766TIP3    H277790   5.626   2.094  13.616  1.0818  1.5031 -2.1930
18767TIP3   OH277791   6.116   0.666  12.004  0.3605  0.5031 -0.1676
18767TIP3    H177792   6.193   0.628  11.962 -0.3073 -0.6150 -0.4187
18767TIP3    H277793   6.094   0.742  11.950  0.2721 -0.1783 -1.1059
18768TIP3   OH277794   0.207   6.491  11.428  0.2955 -0.2902 -0.6643
18768TIP3    H177795   0.201   6.559  11.361  0.3803 -0.7974 -1.1855
18768TIP3    H277796   0.168   6.414  11.388  0.4523 -0.6301 -0.1712
18769TIP3   OH277797   6.389   4.868   3.898 -0.2576 -0.0424 -0.3671
18769TIP3    H177798   6.446   4.817   3.839 -0.5027 -0.0195 -0.6255
18769TIP3    H277799   6.368   4.947   3.848 -0.0741  0.2056 -0.0589
18770TIP3   OH277800   1.000   0.124  14.135  0.5041  0.5597 -0.4429
18770TIP3    H177801   0.958   0.150  14.217 -0.6620  1.4452 -1.3057
18770TIP3    H277802   0.927   0.107  14.075  1.3203 -1.3519 -0.9312
18771TIP3   OH277803   0.924   1.924   6.809 -0.1549 -0.6751 -0.0356
18771TIP3    H177804   0.876   1.943   6.890 -0.9081 -2.5541 -0.0116
18771TIP3    H277805   0.888   1.985   6.745  0.0286  0.4288  0.8842
18772TIP3   OH277806   1.679   3.155  11.747 -0.0819  0.3271  0.3321
18772TIP3    H177807   1.633   3.190  11.671  1.3131 -0.2350 -0.7751
18772TIP3    H277808   1.683   3.229  11.808 -0.1596  1.1260 -0.6218
18773TIP3   OH277809   1.024   2.862  13.760  0.1676 -0.4171 -0.0845
18773TIP3    H177810   0.955   2.928  13.763 -0.5855 -1.1852 -0.3275
18773TIP3    H277811   1.044   2.844  13.852  0.6057  0.3796 -0.0196
18774TIP3   OH277812   5.600   1.410  12.147 -0.5202  0.8164 -0.4237
18774TIP3    H177813   5.660   1.343  12.181 -1.9075  0.0633  0.5914
18774TIP3    H277814   5.534   1.361  12.099 -0.1879  1.6697 -1.7887
18775TIP3   OH277815   2.496   0.661   2.536 -0.0515  0.0187  0.4288
18775TIP3    H177816   2.459   0.580   2.500 -0.0438 -1.4670  3.5867
18775TIP3    H277817   2.425   0.725   2.528 -0.9779 -1.0077  0.2572
18776TIP3   OH277818   4.206   3.856  12.171 -0.2114 -0.1599 -0.1997
18776TIP3    H177819   4.298   3.829  12.163 -0.0510  0.3661 -0.1211
18776TIP3    H277820   4.195   3.923  12.103 -0.5530 -0.2586 -0.2424
18777TIP3   OH277821   1.772   0.286   2.218  1.0202 -0.4517  0.3659
18777TIP3    H177822   1.760   0.368   2.266 -1.4182 -0.4826 -0.1016
18777TIP3    H277823   1.838   0.306   2.152  0.4861  1.1437  0.2892
18778TIP3   OH277824   6.762   3.806  10.302 -0.8081  0.1383 -0.2905
18778TIP3    H177825   6.724   3.854  10.229 -0.4942  0.5433 -0.1890
18778TIP3    H277826   6.851   3.785  10.272 -1.6616 -2.3650 -1.2558
18779TIP3   OH277827   3.641   1.229   3.443  0.1372 -0.2893 -0.3502
18779TIP3    H177828   3.558   1.191   3.472  0.3872 -1.0814 -0.6647
18779TIP3    H277829   3.674   1.168   3.378  0.9469  0.0460 -0.2626
18780TIP3   OH277830   4.948   1.519   0.476 -0.1425  0.4478 -0.3536
18780TIP3    H177831   4.906   1.605   0.466 -0.1003  0.5018 -0.0780
18780TIP3    H277832   4.998   1.507   0.396 -0.9137  0.2544 -0.8109
18781TIP3   OH277833   0.676   0.358   3.491  0.2720  0.0415 -0.2610
18781TIP3    H177834   0.693   0.424   3.424  0.3917 -0.0114 -0.2827
18781TIP3    H277835   0.761   0.343   3.532  0.5090 -1.0218 -1.1039
18782TIP3   OH277836   1.804   6.776   1.470 -0.2863 -0.0294  0.1088
18782TIP3    H177837   1.742   6.792   1.541 -1.9420 -0.5220 -1.1925
18782TIP3    H277838   1.821   6.863   1.434 -0.4250  0.0824  0.3106
18783TIP3   OH277839   3.799   6.728  11.577  0.0083  0.2386  0.4266
18783TIP3    H177840   3.791   6.636  11.604 -1.0923 -0.2296 -1.4557
18783TIP3    H277841   3.885   6.755  11.611  1.0759 -1.9751 -0.4000
18784TIP3   OH277842   3.322   4.191  16.162 -0.4066 -0.3456 -0.1608
18784TIP3    H177843   3.371   4.111  16.142  0.3159  0.3504 -1.2020
18784TIP3    H277844   3.348   4.253  16.095  1.2858  1.7350  2.3101
18785TIP3   OH277845   5.940   5.596  11.455  0.5210 -0.2033  0.6931
18785TIP3    H177846   6.031   5.596  11.423  0.9939  0.4483  1.9605
18785TIP3    H277847   5.910   5.686  11.439  0.4335 -0.1482  1.1763
18786TIP3   OH277848   6.491   3.609  12.300 -0.5417 -0.0999 -0.8314
18786TIP3    H177849   6.437   3.669  12.353 -0.6003 -0.3955 -0.5580
18786TIP3    H277850   6.528   3.548  12.363  0.8769  0.6679 -0.8844
18787TIP3   OH277851   3.285   6.022   6.386  0.1778  0.0780  0.3035
18787TIP3    H177852   3.373   6.060   6.388 -0.5679  1.8233  1.1339
18787TIP3    H277853   3.300   5.928   6.375  2.1643  0.2971  0.8715
18788TIP3   OH277854   2.380   3.192   5.457  0.2056  0.1111 -0.5720
18788TIP3    H177855   2.316   3.207   5.527  0.3386  1.7015 -0.7616
18788TIP3    H277856   2.415   3.105   5.475 -1.7948 -0.6589 -0.2986
18789TIP3   OH277857   5.676   3.504   1.803 -0.2815  0.0637  0.5502
18789TIP3    H177858   5.734   3.427   1.808 -0.8870 -0.4538 -0.2070
18789TIP3    H277859   5.718   3.560   1.738 -1.2139 -0.8340 -0.8535
18790TIP3   OH277860   4.604   6.455   4.824  0.3114 -0.4121  0.4098
18790TIP3    H177861   4.569   6.413   4.902  2.2059 -0.6384  1.1751
18790TIP3    H277862   4.625   6.383   4.764 -1.5866 -0.2131 -0.5203
18791TIP3   OH277863   5.656   5.072   3.329  0.2241  0.7787  0.4989
18791TIP3    H177864   5.694   5.141   3.274 -1.0478 -1.2965 -3.1029
18791TIP3    H277865   5.562   5.087   3.325 -0.3869 -3.0085 -3.1527
18792TIP3   OH277866   4.865   6.517   3.969  0.2153 -0.0530 -0.1497
18792TIP3    H177867   4.893   6.586   3.908 -1.0988  1.3433  0.7658
18792TIP3    H277868   4.770   6.528   3.973  0.1269 -1.1839  0.9013
18793TIP3   OH277869   3.152   5.405   0.663 -0.2404 -0.1507 -0.3189
18793TIP3    H177870   3.113   5.317   0.662 -0.0103 -0.2650  0.4453
18793TIP3    H277871   3.192   5.414   0.577 -1.2454 -0.3514 -0.8125
18794TIP3   OH277872   2.400   0.848  12.086 -0.1390  0.4904 -0.3246
18794TIP3    H177873   2.306   0.831  12.093 -0.1721  0.6074 -0.4640
18794TIP3    H277874   2.408   0.944  12.089  0.2173  0.4184  2.4012
18795TIP3   OH277875   1.631   4.805  11.505  0.3965  0.1817  0.4273
18795TIP3    H177876   1.575   4.880  11.485  0.6183  0.3180  0.3141
18795TIP3    H277877   1.705   4.843  11.552  0.4865  0.0274  0.4093
18796TIP3   OH277878   0.018   2.803  15.312  0.3662 -0.0059  0.5699
18796TIP3    H177879   0.059   2.716  15.317  0.9261  0.2601  0.5965
18796TIP3    H277880  -0.076   2.785  15.315  0.4797 -0.6189  0.5080
18797TIP3   OH277881   4.463   2.137  12.441 -0.1098 -0.1490  0.2180
18797TIP3    H177882   4.406   2.198  12.394  0.8623 -0.7030 -1.7620
18797TIP3    H277883   4.517   2.193  12.497 -0.4892  0.6509 -0.2066
18798TIP3   OH277884   1.534   3.872  11.474 -0.2157  0.3510  0.0556
18798TIP3    H177885   1.508   3.858  11.565  0.4701 -1.7362 -0.0491
18798TIP3    H277886   1.525   3.786  11.433  2.0879  0.6889 -1.2058
18799TIP3   OH277887   2.479   5.257  11.846 -0.2473  0.6087  0.1829
18799TIP3    H177888   2.534   5.190  11.805 -0.4049  0.1772  0.6691
18799TIP3    H277889   2.477   5.328  11.782 -0.1761  0.1038 -0.3901
18800TIP3   OH277890   2.884   0.733   1.063  0.0999  0.0298  0.3370
18800TIP3    H177891   2.921   0.695   1.143  0.1499  0.2508  0.4199
18800TIP3    H277892   2.862   0.658   1.009  0.2492 -0.1170  0.4782
18801TIP3   OH277893   3.713   1.137  11.699 -0.1283  0.2485 -0.0151
18801TIP3    H177894   3.737   1.165  11.611 -1.5942 -1.3189 -0.9388
18801TIP3    H277895   3.635   1.084  11.687 -1.1920  1.1867  2.3995
18802TIP3   OH277896   1.393   4.880  10.703 -0.2055  0.4922 -0.0387
18802TIP3    H177897   1.390   4.946  10.634  0.7008  1.9994  1.3357
18802TIP3    H277898   1.302   4.854  10.715 -0.5091  1.1182 -0.9466
18803TIP3   OH277899   1.422   5.118  15.403  0.4296  0.3921 -0.1382
18803TIP3    H177900   1.487   5.187  15.411  2.0913 -0.7070 -3.2751
18803TIP3    H277901   1.345   5.163  15.368  0.9325  0.9446 -0.5491
18804TIP3   OH277902   2.246   2.760  11.151 -0.0363  0.2297 -0.5596
18804TIP3    H177903   2.298   2.705  11.093  0.3390  0.1807 -0.1783
18804TIP3    H277904   2.269   2.849  11.127 -1.4532  0.2542 -1.9165
18805TIP3   OH277905   4.251   0.554  16.817 -0.1439  0.0720  0.3736
18805TIP3    H177906   4.278   0.463  16.824 -0.4519 -0.1344 -0.9970
18805TIP3    H277907   4.236   0.568  16.724 -2.0589  0.9686  0.7993
18806TIP3   OH277908   3.866   1.645   2.738  0.2961 -0.3294 -0.2427
18806TIP3    H177909   3.891   1.658   2.646  1.4208 -0.0808  0.0905
18806TIP3    H277910   3.906   1.561   2.762 -1.2010 -1.1124 -0.3856
18807TIP3   OH277911   5.471   0.929   4.377  0.4247  0.7853  0.6121
18807TIP3    H177912   5.474   0.892   4.465  1.0903  1.6171  0.9527
18807TIP3    H277913   5.479   0.854   4.318  0.0327  0.2345  1.2621
18808TIP3   OH277914   1.974   5.393  13.949  0.0123 -0.4937 -0.0232
18808TIP3    H177915   2.043   5.327  13.942 -1.6651 -2.2178 -1.3223
18808TIP3    H277916   1.971   5.433  13.862 -1.4389 -1.3489 -0.3951
18809TIP3   OH277917   6.756   5.264   4.242 -0.2723  0.4206  0.0072
18809TIP3    H177918   6.826   5.226   4.296  0.4364 -0.0249 -1.2028
18809TIP3    H277919   6.754   5.356   4.268  0.5576  0.3712  0.2723
18810TIP3   OH277920   6.232   1.715  16.438 -0.1331 -0.4167 -0.0217
18810TIP3    H177921   6.289   1.754  16.504 -0.2655 -1.0516  0.4681
18810TIP3    H277922   6.170   1.662  16.487 -2.2971  1.6641 -0.4039
18811TIP3   OH277923   1.427   1.288  14.867 -0.0828 -0.0973 -0.3018
18811TIP3    H177924   1.493   1.219  14.859 -0.0402 -0.0704 -0.1836
18811TIP3    H277925   1.378   1.284  14.785 -0.2646 -0.4612 -0.1819
18812TIP3   OH277926   3.848   5.229  12.706  0.6757 -0.3105  0.4702
18812TIP3    H177927   3.776   5.278  12.746  0.8092 -0.9210  1.4745
18812TIP3    H277928   3.907   5.296  12.671 -1.0187  0.1906 -1.5310
18813TIP3   OH277929   4.426   4.911   6.122  0.3405  0.4949 -0.0919
18813TIP3    H177930   4.478   4.833   6.142  0.9625  1.1302  0.8226
18813TIP3    H277931   4.423   4.959   6.205 -2.0685  0.2664 -0.0076
18814TIP3   OH277932   3.081   0.360  10.995 -0.3573  0.2676  0.3642
18814TIP3    H177933   3.030   0.360  11.076 -2.9530 -1.3687 -1.2126
18814TIP3    H277934   3.021   0.391  10.928  0.7338 -1.4847 -1.5037
18815TIP3   OH277935   5.902   5.030  10.706 -0.1830  0.1309 -0.2348
18815TIP3    H177936   5.878   4.962  10.769  2.1847  0.8378  1.5129
18815TIP3    H277937   5.832   5.095  10.713 -0.0228  0.1199  1.5732
18816TIP3   OH277938   6.531   5.583   1.843 -0.1525  0.3609  0.0174
18816TIP3    H177939   6.570   5.545   1.922  2.3932 -0.4425 -1.5458
18816TIP3    H277940   6.582   5.663   1.827  0.3897 -0.2876 -1.6290
18817TIP3   OH277941   3.360   2.892  12.921  0.7629  0.2710  0.1601
18817TIP3    H177942   3.418   2.847  12.983 -0.1940 -0.8863  0.2106
18817TIP3    H277943   3.297   2.938  12.976  0.3890 -0.1203  0.0556
18818TIP3   OH277944   6.683   0.360   6.664  0.9006  0.0366 -0.1807
18818TIP3    H177945   6.702   0.277   6.619 -0.0692  0.3747 -1.2439
18818TIP3    H277946   6.664   0.422   6.593 -0.7633  0.5548  0.6798
18819TIP3   OH277947   5.223   4.782  12.427  0.1885  0.6865  0.1428
18819TIP3    H177948   5.254   4.873  12.428 -1.6870  1.3500  0.5506
18819TIP3    H277949   5.223   4.756  12.519 -1.4947  1.0938  0.2874
18820TIP3   OH277950   3.144   0.666   5.012  0.6304  0.3121 -0.4023
18820TIP3    H177951   3.053   0.642   4.995  0.8624 -0.2484 -0.8702
18820TIP3    H277952   3.152   0.666   5.107  0.4087 -0.6570 -0.3855
18821TIP3   OH277953   3.163   3.092  13.073 -0.1826 -0.2400  0.1377
18821TIP3    H177954   3.107   3.167  13.053 -0.1153  0.1326  1.2743
18821TIP3    H277955   3.116   3.017  13.036 -1.0963  0.1517  0.4696
18822TIP3   OH277956   0.153   0.855  11.807  0.0727 -0.4702  0.0045
18822TIP3    H177957   0.203   0.782  11.771 -0.7666 -0.7930 -0.5188
18822TIP3    H277958   0.177   0.930  11.752  1.7061 -0.1138  1.1720
18823TIP3   OH277959   1.595   2.412   5.406  0.2562  0.0448  0.1280
18823TIP3    H177960   1.619   2.500   5.375  1.8159 -0.0105  1.1025
18823TIP3    H277961   1.515   2.425   5.457 -0.1634  0.7217 -0.6937
18824TIP3   OH277962   1.176   5.187  13.162  0.3782  0.2931 -0.3922
18824TIP3    H177963   1.158   5.131  13.238 -3.2984  1.9853  0.0735
18824TIP3    H277964   1.144   5.137  13.088 -0.9744  0.8969 -0.2158
18825TIP3   OH277965   2.614   6.571  15.836 -0.1347 -0.1837 -0.3494
18825TIP3    H177966   2.532   6.620  15.828  0.2305  0.6676  1.0583
18825TIP3    H277967   2.587   6.483  15.861 -0.5344  0.5979  2.0560
18826TIP3   OH277968   3.296   6.786  11.588  0.0748  0.1683 -0.7836
18826TIP3    H177969   3.260   6.795  11.676  1.6134 -2.0905  0.1108
18826TIP3    H277970   3.223   6.755  11.535 -0.3127 -0.5435  0.1603
18827TIP3   OH277971   1.845   0.906   1.983  0.1794  0.2226  0.5906
18827TIP3    H177972   1.825   0.997   2.004  0.4111  0.1694  1.0318
18827TIP3    H277973   1.770   0.877   1.929  1.4063  1.4834 -1.8671
18828TIP3   OH277974   0.653   0.988   0.428  0.0743  0.3798 -0.7182
18828TIP3    H177975   0.727   0.941   0.466  0.3119 -0.0851 -1.7323
18828TIP3    H277976   0.693   1.051   0.368 -0.3389  0.4376 -0.9321
18829TIP3   OH277977   3.312   2.153  12.288  0.3502 -0.4080  0.5001
18829TIP3    H177978   3.244   2.086  12.278 -1.0728  0.9163  1.1802
18829TIP3    H277979   3.273   2.218  12.346  1.8022  0.9080  0.0153
18830TIP3   OH277980   1.857   5.162  15.239 -0.4376 -0.1296  0.6485
18830TIP3    H177981   1.840   5.075  15.275  1.6583 -0.2815  1.3113
18830TIP3    H277982   1.863   5.148  15.145 -1.2781 -0.5125  0.6483
18831TIP3   OH277983   0.854   4.309  16.294 -0.3090  0.3402 -0.1577
18831TIP3    H177984   0.809   4.318  16.211 -1.3422 -3.3991 -0.0733
18831TIP3    H277985   0.784   4.292  16.358  0.9190 -2.5011  0.4847
18832TIP3   OH277986   6.272   2.073  14.284  0.0047  0.9323 -0.1750
18832TIP3    H177987   6.316   2.020  14.351 -0.5301  0.9703  0.2089
18832TIP3    H277988   6.313   2.046  14.202  1.2252  1.4575  0.2469
18833TIP3   OH277989   5.843   6.640   3.455  0.2950  0.2431  0.4187
18833TIP3    H177990   5.781   6.579   3.414 -0.2610 -0.2422  1.9670
18833TIP3    H277991   5.807   6.727   3.436  0.4107  0.0566 -0.7088
18834TIP3   OH277992   3.515   3.609  14.385  0.2811  0.1097 -0.2454
18834TIP3    H177993   3.593   3.555  14.373  0.2060 -0.3733  1.4278
18834TIP3    H277994   3.515   3.631  14.478 -2.0007 -0.5240 -0.0734
18835TIP3   OH277995   5.054   4.107   3.872  0.2640 -0.3648  0.0503
18835TIP3    H177996   5.026   4.199   3.876 -1.7498 -0.9786  1.2434
18835TIP3    H277997   4.991   4.066   3.813  0.0964 -1.2957  0.8511
18836TIP3   OH277998   5.793   5.923   0.029  0.3013  0.2400  0.4062
18836TIP3    H177999   5.707   5.882   0.023  1.0752 -1.4468  0.5067
18836TIP3    H278000   5.798   5.954   0.119  0.4111 -1.0994  0.8793
18837TIP3   OH278001   0.641   0.815   5.229  0.3500 -0.1215  0.1029
18837TIP3    H178002   0.689   0.749   5.279 -2.5585 -1.4429  1.2709
18837TIP3    H278003   0.619   0.772   5.147 -0.7992 -0.3074  0.5055
18838TIP3   OH278004   1.478   4.642  12.402 -0.6216 -0.1024 -0.2118
18838TIP3    H178005   1.392   4.648  12.362 -0.5760  1.1923 -0.1303
18838TIP3    H278006   1.514   4.731  12.397  0.7652 -0.6522 -0.3655
18839TIP3   OH278007   0.620   5.885  12.143  0.3661  0.3459  0.3941
18839TIP3    H178008   0.654   5.883  12.233 -1.2716 -0.9534  1.0043
18839TIP3    H278009   0.550   5.950  12.145 -2.1368 -2.2806  1.0036
18840TIP3   OH278010   6.700   5.698  16.703  0.1459 -0.2711  1.0205
18840TIP3    H178011   6.786   5.734  16.725  0.6196 -1.9271  1.9634
18840TIP3    H278012   6.695   5.703  16.607  0.9273  0.6041  1.0219
18841TIP3   OH278013   6.788   6.229  15.423  0.3291 -0.2223 -0.1356
18841TIP3    H178014   6.833   6.150  15.452 -0.6946 -0.7607  0.0213
18841TIP3    H278015   6.744   6.261  15.502 -0.4503 -0.3177 -0.5302
18842TIP3   OH278016   6.638   3.034   0.368 -0.4403 -0.3753 -0.3972
18842TIP3    H178017   6.614   3.016   0.459  0.1519 -0.8384 -0.3289
18842TIP3    H278018   6.582   2.977   0.316  0.4445 -1.4060 -0.2402
18843TIP3   OH278019   1.062   2.860   2.867 -0.2780 -0.1076 -0.1208
18843TIP3    H178020   1.062   2.768   2.840  0.8346 -0.1182 -0.0878
18843TIP3    H278021   1.099   2.860   2.955 -1.4499  0.2373  0.3836
18844TIP3   OH278022   5.004   1.207   5.806  0.1957  0.1232  0.2122
18844TIP3    H178023   4.987   1.142   5.875 -1.1730  0.4475  0.1928
18844TIP3    H278024   4.997   1.291   5.850 -1.7388  0.3685 -0.5218
18845TIP3   OH278025   6.274   2.083   5.995  0.3172  0.3290  0.0544
18845TIP3    H178026   6.338   2.014   5.981 -0.3807 -0.3579  0.2123
18845TIP3    H278027   6.291   2.113   6.084 -1.5582 -1.9714  1.2484
18846TIP3   OH278028   2.008   2.848   5.513 -0.0985 -0.0106  0.0008
18846TIP3    H178029   2.088   2.815   5.553 -0.4726 -0.9831 -0.0148
18846TIP3    H278030   1.969   2.771   5.472 -2.6555 -0.2947  2.7190
18847TIP3   OH278031   3.189   5.747   5.590  0.7008 -0.1255 -0.0333
18847TIP3    H178032   3.235   5.795   5.521 -1.1621  0.3583 -0.9557
18847TIP3    H278033   3.102   5.786   5.593 -0.0280 -1.7854  0.9305
18848TIP3   OH278034   4.778   5.424  15.756 -0.1463  0.4272 -0.5780
18848TIP3    H178035   4.729   5.504  15.773 -0.9893 -0.2173  0.0331
18848TIP3    H278036   4.773   5.413  15.661 -0.5208  0.7848 -0.6000
18849TIP3   OH278037   1.160   0.236   2.741 -0.3130 -0.4205 -0.0972
18849TIP3    H178038   1.101   0.248   2.815  0.2340 -1.5878  0.5423
18849TIP3    H278039   1.154   0.142   2.721 -1.0547  0.0043 -2.0440
18850TIP3   OH278040   5.247   0.535  11.722  0.2424 -0.0891 -0.0961
18850TIP3    H178041   5.183   0.592  11.762  0.3723 -1.4101  2.0776
18850TIP3    H278042   5.331   0.577  11.739  0.1909  0.0554 -0.2004
18851TIP3   OH278043   1.461   6.654  13.427  0.1729 -0.2025  0.4660
18851TIP3    H178044   1.538   6.637  13.373  1.9180  0.2880  2.7087
18851TIP3    H278045   1.444   6.747  13.416  1.6235  0.2787  2.0974
18852TIP3   OH278046   0.589   2.882  15.154 -0.4225  0.0782 -0.5568
18852TIP3    H178047   0.611   2.952  15.216 -1.2645  0.3471 -0.5580
18852TIP3    H278048   0.672   2.861  15.111  0.1027  0.1289  0.4179
18853TIP3   OH278049   0.044   0.124  11.003  0.1966 -0.1359  0.2132
18853TIP3    H178050  -0.036   0.113  10.951  0.9714  0.3078 -1.0768
18853TIP3    H278051   0.082   0.206  10.972  0.6139  0.1993  1.5646
18854TIP3   OH278052   6.377   5.835  16.702  0.1362 -0.3467  0.5895
18854TIP3    H178053   6.410   5.911  16.653  0.0278  0.2221  1.3947
18854TIP3    H278054   6.456   5.785  16.724  0.0684 -1.3238 -1.3450
18855TIP3   OH278055   2.289   3.124   5.826 -0.3810  0.3186 -0.0955
18855TIP3    H178056   2.228   3.067   5.778 -1.4180  0.4869  1.0218
18855TIP3    H278057   2.288   3.090   5.915  0.2742  1.0608  0.1941
18856TIP3   OH278058   2.783   1.676  17.271 -0.0947  0.7632 -0.5174
18856TIP3    H178059   2.698   1.631  17.264  0.2744 -0.0692  0.2266
18856TIP3    H278060   2.781   1.718  17.357  0.2272  0.7950 -0.5276
18857TIP3   OH278061   4.047   2.549  14.593 -0.1435 -0.5578 -0.2078
18857TIP3    H178062   3.997   2.575  14.670 -1.2969  0.0834 -1.1678
18857TIP3    H278063   3.983   2.542  14.523  1.2488  1.4400 -1.7522
18858TIP3   OH278064   6.484   5.484   0.282  0.9775 -0.0139 -0.0982
18858TIP3    H178065   6.444   5.568   0.304  0.2343 -0.8058  1.6517
18858TIP3    H278066   6.577   5.503   0.273  0.7433  1.0913 -0.2343
18859TIP3   OH278067   6.781   6.562   3.035 -0.5078  0.1545  0.3182
18859TIP3    H178068   6.757   6.580   3.126  0.8480  0.0142  0.7128
18859TIP3    H278069   6.802   6.648   2.999  2.0882 -0.1377  1.0681
18860TIP3   OH278070   6.377   2.871  12.015 -0.1832  0.0598 -0.1134
18860TIP3    H178071   6.411   2.914  12.094 -0.7680  0.6861 -0.1960
18860TIP3    H278072   6.287   2.905  12.006 -0.9629 -1.8269  0.3001
18861TIP3   OH278073   3.721   5.000  13.604  0.5453  0.5121  0.4396
18861TIP3    H178074   3.701   4.987  13.511  1.7593  2.8566 -0.1759
18861TIP3    H278075   3.684   4.922  13.647 -0.6190 -0.2898 -1.9012
18862TIP3   OH278076   3.973   5.659   5.284 -0.4279  0.0414  0.1714
18862TIP3    H178077   3.985   5.679   5.191  0.5909  2.3383  0.7718
18862TIP3    H278078   3.994   5.566   5.291 -0.0871 -0.0541 -1.8224
18863TIP3   OH278079   2.111   6.808   4.209  0.0027 -0.7544 -0.1735
18863TIP3    H178080   2.025   6.831   4.246 -0.1690 -0.4850 -0.7363
18863TIP3    H278081   2.159   6.771   4.282 -0.5142 -0.6822  0.2060
18864TIP3   OH278082   6.528   0.487  15.636  0.3468 -0.2610 -0.1351
18864TIP3    H178083   6.506   0.501  15.728  0.2343 -1.0755 -0.0382
18864TIP3    H278084   6.508   0.571  15.594  2.0363  0.6835  0.8758
18865TIP3   OH278085   0.892   1.204   0.701 -0.4389 -0.2897  0.1539
18865TIP3    H178086   0.841   1.172   0.775 -2.1194  0.5148 -0.6350
18865TIP3    H278087   0.856   1.290   0.682  1.3396  0.3758 -0.3163
18866TIP3   OH278088   1.057   6.368  14.637 -0.3236 -0.1552 -0.0460
18866TIP3    H178089   1.000   6.292  14.628 -0.0728 -0.3784  0.2543
18866TIP3    H278090   1.088   6.386  14.548 -1.5023  0.4656 -0.3463
18867TIP3   OH278091   0.913   2.132  11.006  0.5131  0.3086  0.1931
18867TIP3    H178092   0.925   2.152  11.098  0.3204 -0.1696  0.3243
18867TIP3    H278093   0.829   2.171  10.983 -0.6367 -1.7079  0.8552
18868TIP3   OH278094   6.601   4.682   5.676 -0.1984  0.0145 -0.3165
18868TIP3    H178095   6.580   4.759   5.623  0.3459 -0.0200 -0.5848
18868TIP3    H278096   6.538   4.685   5.748 -2.3272 -1.1290 -2.0894
18869TIP3   OH278097   0.928   0.493   5.062  0.0105 -0.1874  0.8180
18869TIP3    H178098   0.846   0.477   5.108 -0.2343  1.0510  0.8448
18869TIP3    H278099   0.968   0.566   5.109  0.0665  0.6723 -0.5273
18870TIP3   OH278100   2.350   1.460  14.902 -0.0445 -0.6427 -0.4152
18870TIP3    H178101   2.320   1.492  14.816 -0.5155 -0.7984 -0.3078
18870TIP3    H278102   2.440   1.432  14.887  1.4992  3.6393  0.1721
18871TIP3   OH278103   2.671   1.144   0.873  0.1758 -0.6627 -0.1272
18871TIP3    H178104   2.661   1.197   0.952  1.2580  1.2208 -1.2266
18871TIP3    H278105   2.663   1.054   0.904 -1.2993  0.0963  1.8445
18872TIP3   OH278106   0.897   2.697  15.802  0.1040  0.6072  0.2517
18872TIP3    H178107   0.884   2.610  15.839 -2.2441  0.1880 -1.4200
18872TIP3    H278108   0.876   2.687  15.709  1.9599  2.4864 -0.4059
18873TIP3   OH278109   4.340   3.773  11.472  0.3573  0.0319  0.5904
18873TIP3    H178110   4.307   3.686  11.493 -0.8737  0.5064  0.6686
18873TIP3    H278111   4.402   3.759  11.400 -0.8106 -0.7624 -0.2687
18874TIP3   OH278112   1.690   4.955   1.205 -0.5855  0.2595  0.3864
18874TIP3    H178113   1.773   4.909   1.218 -0.1002  0.7707 -0.8592
18874TIP3    H278114   1.624   4.887   1.211 -0.0218 -0.2665  0.6714
18875TIP3   OH278115   5.411   6.636  11.610 -0.0339  0.3242  0.6428
18875TIP3    H178116   5.410   6.544  11.586  1.2599  0.4909 -0.0403
18875TIP3    H278117   5.471   6.641  11.685 -1.9453  0.2433  2.2496
18876TIP3   OH278118   2.416   6.439   5.765  0.5067  0.6555 -0.7107
18876TIP3    H178119   2.375   6.493   5.832  1.1174  0.0897  0.1230
18876TIP3    H278120   2.508   6.467   5.765  1.0331 -1.0342  0.3887
18877TIP3   OH278121   5.165   3.317   6.443 -0.6318 -0.3983  0.0078
18877TIP3    H178122   5.140   3.234   6.401 -1.3367 -0.6386  0.8834
18877TIP3    H278123   5.127   3.312   6.531  1.3702 -0.1940  0.9339
18878TIP3   OH278124   3.597   3.902   0.234 -0.2594 -0.7280 -0.6754
18878TIP3    H178125   3.530   3.968   0.220  1.4041  1.1738  0.0609
18878TIP3    H278126   3.673   3.934   0.186  1.7590 -0.1319  2.7258
18879TIP3   OH278127   0.235   2.634  14.917 -0.2215 -0.0289  0.1581
18879TIP3    H178128   0.155   2.591  14.946  1.1613 -0.4993  3.5141
18879TIP3    H278129   0.244   2.709  14.976 -0.3396  2.4104 -2.8589
18880TIP3   OH278130   1.069   1.395  11.211 -0.1490 -0.2879  0.5590
18880TIP3    H178131   1.079   1.465  11.146  0.1789 -0.6575  0.2065
18880TIP3    H278132   1.021   1.436  11.283  0.9941  0.6043  0.8258
18881TIP3   OH278133   5.758   6.231   1.750  0.1893  0.5604  0.1240
18881TIP3    H178134   5.745   6.136   1.755  1.9434  0.2592 -0.7035
18881TIP3    H278135   5.733   6.254   1.660  0.8852  0.7092 -0.0269
18882TIP3   OH278136   5.511   0.472   4.092  0.6388  0.3541  0.2498
18882TIP3    H178137   5.422   0.506   4.105  0.6587  0.6229 -0.2920
18882TIP3    H278138   5.498   0.378   4.078  0.5879  0.1237  1.8205
18883TIP3   OH278139   1.372   5.949  13.551 -0.6335 -0.1605  0.0960
18883TIP3    H178140   1.292   5.959  13.501 -1.2633 -2.0494  0.6620
18883TIP3    H278141   1.343   5.931  13.640  0.4173 -0.2163  0.4445
18884TIP3   OH278142   6.241   5.772   1.970  0.2115  0.2882  0.8091
18884TIP3    H178143   6.264   5.846   1.914  1.8902 -0.7588  0.0554
18884TIP3    H278144   6.181   5.720   1.917  1.5355 -0.5265  0.0705
18885TIP3   OH278145   3.119   0.942   1.500 -0.4016 -0.1642  0.1526
18885TIP3    H178146   3.144   0.931   1.408 -0.1308  1.7279 -0.0174
18885TIP3    H278147   3.103   0.853   1.531 -0.4572 -0.8320 -1.7141
18886TIP3   OH278148   6.622   0.537  14.379  0.2665  0.0312  0.3561
18886TIP3    H178149   6.551   0.599  14.397  0.8095  0.0319  2.5593
18886TIP3    H278150   6.698   0.576  14.421  1.0876 -1.0852 -0.0978
18887TIP3   OH278151   4.703   4.767   3.854 -0.0316 -0.1322 -0.8634
18887TIP3    H178152   4.636   4.720   3.903  0.2507  0.6597  0.3095
18887TIP3    H278153   4.676   4.761   3.763 -1.9778  0.6027 -0.3481
18888TIP3   OH278154   6.152   0.378   1.394 -0.8091  0.0789 -0.0696
18888TIP3    H178155   6.195   0.333   1.467 -0.6161  2.5308  1.4185
18888TIP3    H278156   6.215   0.374   1.323 -0.0052 -0.3444  0.6584
18889TIP3   OH278157   5.147   1.994   3.347  0.3523 -0.0347 -0.1836
18889TIP3    H178158   5.061   2.027   3.321  0.3161  0.1067  0.1062
18889TIP3    H278159   5.135   1.901   3.361 -0.3192  0.3689  2.1471
18890TIP3   OH278160   3.420   0.270   1.186 -0.2762 -0.2645 -0.3295
18890TIP3    H178161   3.361   0.259   1.111  0.5486 -0.7022 -0.9306
18890TIP3    H278162   3.502   0.301   1.147  0.1065 -0.3258  0.4183
18891TIP3   OH278163   0.951   1.810  15.168 -0.1642 -0.0069 -0.4121
18891TIP3    H178164   0.893   1.771  15.234 -0.3884 -0.3226 -0.7949
18891TIP3    H278165   0.992   1.884  15.213 -1.6774  0.8716 -0.4675
18892TIP3   OH278166   0.095   4.056  13.209 -0.4017 -0.4018  0.2768
18892TIP3    H178167   0.138   4.105  13.139 -1.7618  0.1216 -0.2212
18892TIP3    H278168   0.036   4.120  13.250 -1.7914 -1.4744 -0.0322
18893TIP3   OH278169   3.734   4.620   1.204 -0.3449  1.1892  0.1979
18893TIP3    H178170   3.682   4.633   1.125  0.3511 -0.6885 -0.5916
18893TIP3    H278171   3.735   4.706   1.246 -2.5359  1.6879 -0.7033
18894TIP3   OH278172   3.908   5.946   4.658 -0.0485  0.2314 -0.1910
18894TIP3    H178173   3.997   5.971   4.683  0.1415  1.5706 -2.0610
18894TIP3    H278174   3.854   6.019   4.688 -0.2392  0.3695 -0.8743
18895TIP3   OH278175   3.061   1.081   1.851 -0.0577 -0.2468 -0.4661
18895TIP3    H178176   3.102   1.135   1.919 -0.0557 -0.7776 -0.0357
18895TIP3    H278177   3.125   1.079   1.780  0.1033  0.0040 -0.3288
18896TIP3   OH278178   4.881   3.931  16.421  0.4971  0.2199 -0.1608
18896TIP3    H178179   4.789   3.958  16.418  1.1206  2.5955  0.7862
18896TIP3    H278180   4.882   3.857  16.482 -0.8837 -0.3474 -0.7933
18897TIP3   OH278181   2.199   1.844  16.940 -0.5121 -0.1973  0.0865
18897TIP3    H178182   2.161   1.931  16.925 -0.2700 -0.0412  0.3726
18897TIP3    H278183   2.204   1.804  16.853 -0.2745  0.2208 -0.0920
18898TIP3   OH278184   0.608   4.845   3.819 -0.5039 -0.4800  0.1942
18898TIP3    H178185   0.641   4.876   3.904 -0.3644  0.8243 -0.3150
18898TIP3    H278186   0.562   4.764   3.839 -1.3554  0.3491  1.6685
18899TIP3   OH278187   1.720   6.131  12.873  0.0504 -0.0489  0.1625
18899TIP3    H178188   1.698   6.119  12.781  1.2404  0.6540 -0.2170
18899TIP3    H278189   1.638   6.160  12.913 -0.0672  1.2460 -0.9872
18900TIP3   OH278190   0.791   1.525   6.096 -0.2298 -0.1628  0.6419
18900TIP3    H178191   0.713   1.495   6.050 -1.3982  0.9971  1.8310
18900TIP3    H278192   0.824   1.446   6.140 -0.8815 -0.6024  0.3578
18901TIP3   OH278193   4.433   5.255   3.088  0.8092 -0.0407  0.1933
18901TIP3    H178194   4.472   5.232   3.173  0.2888 -0.6967  0.2593
18901TIP3    H278195   4.362   5.192   3.077 -0.6747  1.5800  0.3725
18902TIP3   OH278196   3.159   0.591  16.546  0.1533 -0.3220 -0.1321
18902TIP3    H178197   3.110   0.556  16.620  0.3697 -0.7934 -0.2060
18902TIP3    H278198   3.161   0.685  16.560  1.1328 -0.5039  1.0440
18903TIP3   OH278199   2.108   5.345   3.080 -0.2727  0.5772  0.1470
18903TIP3    H178200   2.092   5.439   3.086  1.8820  0.9109  1.2492
18903TIP3    H278201   2.130   5.319   3.170 -0.7606 -0.9569 -0.1662
18904TIP3   OH278202   3.520   0.252  11.508 -0.0881 -0.3236  0.2380
18904TIP3    H178203   3.604   0.272  11.549 -0.4247 -1.9125  1.7710
18904TIP3    H278204   3.509   0.158  11.520 -1.8974 -0.2090 -0.3071
18905TIP3   OH278205   0.663   6.754   3.746  0.0658 -0.2128 -0.4089
18905TIP3    H178206   0.755   6.773   3.726  0.4868 -1.5758  0.1838
18905TIP3    H278207   0.616   6.783   3.668  0.8823  1.4797 -0.2780
18906TIP3   OH278208   4.098   1.768   1.877 -0.2998  0.3505 -0.1900
18906TIP3    H178209   4.038   1.762   1.952 -0.8509  0.8954 -0.5864
18906TIP3    H278210   4.185   1.749   1.914 -0.7858 -1.0665  0.2733
18907TIP3   OH278211   4.556   3.784   1.033  0.1498 -0.2430  0.1552
18907TIP3    H178212   4.470   3.744   1.044 -0.5319  0.5109 -2.1037
18907TIP3    H278213   4.565   3.841   1.109 -1.5923  0.0621  0.1729
18908TIP3   OH278214   4.433   0.539  15.594  0.1922  0.4898  0.2539
18908TIP3    H178215   4.344   0.530  15.630  0.1891 -0.4518  0.0206
18908TIP3    H278216   4.419   0.548  15.500  0.2897  1.3905  0.3214
18909TIP3   OH278217   5.496   2.322   0.950  0.0890  0.3934  0.5684
18909TIP3    H178218   5.557   2.329   0.876  0.0161  1.3289  0.5967
18909TIP3    H278219   5.531   2.381   1.016 -0.0705 -0.1426  1.1356
18910TIP3   OH278220   2.196   0.376  16.918  0.0205  0.3197 -0.2187
18910TIP3    H178221   2.115   0.425  16.931  2.4908  4.2482  1.0379
18910TIP3    H278222   2.204   0.366  16.823 -0.9767  1.5469 -0.4324
18911TIP3   OH278223   1.472   1.283   4.839  0.2625 -0.3779 -0.2801
18911TIP3    H178224   1.399   1.339   4.866  0.0519 -0.4513 -0.6917
18911TIP3    H278225   1.516   1.260   4.920  1.1351  1.4570 -0.2076
18912TIP3   OH278226   3.400   5.675  15.105 -0.7105 -0.2743  0.5424
18912TIP3    H178227   3.309   5.668  15.134 -0.8119 -2.1813 -0.2124
18912TIP3    H278228   3.442   5.727  15.174 -2.5536  1.4701  0.4135
18913TIP3   OH278229   6.350   2.946  11.698  0.1581 -0.2497 -1.0483
18913TIP3    H178230   6.364   2.941  11.793 -1.1558 -0.6402 -0.8528
18913TIP3    H278231   6.425   2.995  11.665  1.2922 -1.2244  0.0233
18914TIP3   OH278232   1.241   5.447   0.270 -0.7090  0.1409 -0.1193
18914TIP3    H178233   1.290   5.375   0.309 -0.1301 -1.1985 -3.1517
18914TIP3    H278234   1.208   5.497   0.344  1.3476 -1.5808  2.0290
18915TIP3   OH278235   1.037   1.093   5.400  0.0136  0.4670 -0.2434
18915TIP3    H178236   0.993   1.108   5.317  0.1936 -1.6986 -0.7549
18915TIP3    H278237   1.037   0.998   5.411  1.0632  0.6497  1.6477
18916TIP3   OH278238   1.425   6.703  14.057 -0.7601  0.2114 -0.3612
18916TIP3    H178239   1.459   6.773  14.112  0.2077  0.2673 -1.0111
18916TIP3    H278240   1.347   6.740  14.016 -0.3288  0.8646 -0.6022
18917TIP3   OH278241   5.510   4.720  11.691  0.2043  0.0312  0.1347
18917TIP3    H178242   5.467   4.657  11.633 -1.2743  0.7396  0.4407
18917TIP3    H278243   5.523   4.798  11.638  0.9369 -0.1049  0.1052
18918TIP3   OH278244   6.653   1.027   0.734 -0.2172 -0.0398  0.2038
18918TIP3    H178245   6.617   1.032   0.645  0.1511  0.5649  0.0849
18918TIP3    H278246   6.696   1.111   0.746  0.5480 -0.4913  0.6086
18919TIP3   OH278247   3.976   5.604  14.333 -0.2839 -0.6860  0.1348
18919TIP3    H178248   3.943   5.694  14.329 -0.0679 -0.5809  0.6870
18919TIP3    H278249   3.897   5.550  14.343 -0.4329 -0.5819 -0.4243
18920TIP3   OH278250   4.784   0.525   0.698  0.1909  0.0902 -0.1516
18920TIP3    H178251   4.840   0.447   0.694  1.1544  0.7425  0.4659
18920TIP3    H278252   4.806   0.573   0.618  1.1108  0.7378  0.4780
18921TIP3   OH278253   2.132   5.913  11.548  0.0261  0.1469 -0.8125
18921TIP3    H178254   2.041   5.886  11.563  0.5328 -0.5199  1.2966
18921TIP3    H278255   2.129   6.009  11.550 -0.5576  0.1221 -0.1255
18922TIP3   OH278256   3.316   0.335   0.001  0.2424 -0.0096  0.0893
18922TIP3    H178257   3.355   0.252   0.028 -0.5101 -0.2532  0.4598
18922TIP3    H278258   3.223   0.326   0.023  0.2173  1.0758  0.4919
18923TIP3   OH278259   6.138   1.480  16.818  0.6042  0.2973  0.5569
18923TIP3    H178260   6.174   1.558  16.776  0.6312  0.0809  0.1811
18923TIP3    H278261   6.059   1.459  16.767 -0.3820  1.1030  1.7169
18924TIP3   OH278262   3.751   1.591  16.536 -0.6001  0.4730  0.5748
18924TIP3    H178263   3.722   1.682  16.547 -1.1799  0.2488  0.9319
18924TIP3    H278264   3.724   1.547  16.617  1.7041  0.4908  1.3836
18925TIP3   OH278265   1.634   6.205   2.515 -0.2570 -0.6450  0.6476
18925TIP3    H178266   1.618   6.122   2.471  1.4373 -0.5551 -0.2136
18925TIP3    H278267   1.626   6.186   2.608 -2.9386 -1.0625  0.3520
18926TIP3   OH278268   6.596   2.532   5.478  0.4232  0.2332  0.2114
18926TIP3    H178269   6.590   2.450   5.528  3.4880 -0.4371 -0.4585
18926TIP3    H278270   6.548   2.595   5.531 -0.3460 -1.5297  1.6903
18927TIP3   OH278271   6.520   2.427   5.083 -0.2762  0.2103 -0.2686
18927TIP3    H178272   6.534   2.341   5.043  0.9167  0.6638 -0.8370
18927TIP3    H278273   6.429   2.424   5.114 -0.9672 -0.4637 -2.2574
18928TIP3   OH278274   4.740   3.259   2.163  0.1183 -0.2211 -0.2692
18928TIP3    H178275   4.753   3.287   2.073 -1.2859 -0.4649 -0.5520
18928TIP3    H278276   4.696   3.333   2.206  0.3556 -0.2867  0.0950
18929TIP3   OH278277   1.442   6.775  11.822 -0.1949  0.5653 -0.5003
18929TIP3    H178278   1.462   6.735  11.737  0.6201  0.9892 -0.5058
18929TIP3    H278279   1.485   6.720  11.886 -1.6290 -0.3181 -0.2793
18930TIP3   OH278280   3.182   2.434  11.300  0.3451 -0.6587  0.8191
18930TIP3    H178281   3.261   2.459  11.252 -0.3935  0.5173  0.1704
18930TIP3    H278282   3.137   2.517  11.317 -1.0615 -1.3530  0.6038
18931TIP3   OH278283   6.073   4.326   5.629 -0.2650 -0.0968  0.6845
18931TIP3    H178284   6.111   4.388   5.691  2.0531 -1.2341  0.4557
18931TIP3    H278285   6.019   4.380   5.571  0.8147  1.5550  1.1692
18932TIP3   OH278286   5.973   4.891  14.640  0.2030  0.4497  0.2778
18932TIP3    H178287   6.004   4.808  14.604 -1.4624 -0.6994  1.3949
18932TIP3    H278288   6.022   4.901  14.721  0.9995  0.9937 -0.2600
18933TIP3   OH278289   1.877   4.118   2.952 -0.5573 -0.6280 -0.0563
18933TIP3    H178290   1.807   4.053   2.944 -2.7234  1.5822  0.3948
18933TIP3    H278291   1.833   4.197   2.985  2.1282  0.8612  0.0938
18934TIP3   OH278292   4.229   4.107   5.743  0.8437 -0.2627  0.0715
18934TIP3    H178293   4.148   4.157   5.749  0.9870 -0.0158 -0.0374
18934TIP3    H278294   4.256   4.116   5.651  0.2514 -1.5109 -0.2349
18935TIP3   OH278295   0.025   3.988  11.289  0.3936  0.1370 -0.3933
18935TIP3    H178296   0.084   3.915  11.310 -0.6547 -0.4641  0.5010
18935TIP3    H278297  -0.053   3.946  11.254 -0.9264  0.7045  1.7834
18936TIP3   OH278298   6.472   2.021  10.859  0.1851 -0.0902 -0.5439
18936TIP3    H178299   6.402   2.083  10.838 -0.7412 -1.6072 -1.9815
18936TIP3    H278300   6.541   2.076  10.896 -1.5722  1.4852  0.5088
18937TIP3   OH278301   3.916   0.249   6.406  0.0121  0.4970  0.3975
18937TIP3    H178302   3.859   0.204   6.343 -1.6416  1.0398  1.4621
18937TIP3    H278303   3.873   0.333   6.421  2.1463  1.7560 -0.2278
18938TIP3   OH278304   1.043   6.078   4.171  0.2452 -0.2280 -0.2711
18938TIP3    H178305   1.092   6.069   4.089 -0.4172 -0.7203 -0.6169
18938TIP3    H278306   1.105   6.050   4.238  0.2155 -1.5506 -0.7689
18939TIP3   OH278307   1.155   1.730   3.341 -0.0406 -0.5515 -0.4901
18939TIP3    H178308   1.127   1.649   3.383 -1.0491  0.5823  1.0596
18939TIP3    H278309   1.206   1.775   3.407 -1.1987  1.0053 -0.6389
18940TIP3   OH278310   5.274   3.217  17.262  0.0548 -0.2324 -0.3969
18940TIP3    H178311   5.241   3.167  17.337  1.6604  2.1625  1.9953
18940TIP3    H278312   5.369   3.207  17.268  0.1819 -0.1631 -2.2513
18941TIP3   OH278313   4.058   2.073   1.403 -0.1311  0.1218  0.5147
18941TIP3    H178314   4.031   2.029   1.484  1.0646 -1.6924 -0.0359
18941TIP3    H278315   3.976   2.094   1.358 -0.7377 -1.4672  0.8557
18942TIP3   OH278316   0.317   6.019  12.974 -0.3898  0.5172 -0.3606
18942TIP3    H178317   0.383   6.046  12.910 -2.0995  1.0866 -1.9041
18942TIP3    H278318   0.290   6.101  13.016  0.7884  0.1395  1.1936
18943TIP3   OH278319   4.713   6.273  14.558 -0.1751 -0.0722 -0.0862
18943TIP3    H178320   4.636   6.264  14.503 -1.2641  1.7938  1.0728
18943TIP3    H278321   4.692   6.345  14.618  1.4922 -1.1199  1.8553
18944TIP3   OH278322   4.327   6.435  13.009  0.3016 -0.2677  0.0569
18944TIP3    H178323   4.388   6.362  13.011  1.2394  0.5187  0.6355
18944TIP3    H278324   4.373   6.505  12.964 -0.6404 -0.0687 -0.6206
18945TIP3   OH278325   2.203   5.342  17.204  0.5024  0.9886 -0.2332
18945TIP3    H178326   2.207   5.267  17.144  1.8307  2.2930 -1.8377
18945TIP3    H278327   2.279   5.331  17.261 -1.3547 -0.8263  1.9790
18946TIP3   OH278328   5.263   6.147   4.256  0.3191  0.9701 -0.3282
18946TIP3    H178329   5.174   6.167   4.285 -0.1868 -0.8131 -0.5706
18946TIP3    H278330   5.258   6.150   4.160  0.0337 -0.9199 -0.4055
18947TIP3   OH278331   2.512   4.753   0.192 -0.1482 -0.1818 -0.1839
18947TIP3    H178332   2.517   4.746   0.288  0.7625 -1.8728 -0.3310
18947TIP3    H278333   2.485   4.665   0.164  0.7845 -0.0344 -1.5605
18948TIP3   OH278334   3.005   2.576   6.607  0.3272  0.2802  0.8062
18948TIP3    H178335   2.995   2.671   6.615  1.4685  0.2692  2.7889
18948TIP3    H278336   3.073   2.565   6.541 -0.2113  0.8270  0.1556
18949TIP3   OH278337   2.499   0.984  14.050  0.6232 -0.4652  0.0721
18949TIP3    H178338   2.572   1.000  13.990 -0.7118 -0.7081 -1.6557
18949TIP3    H278339   2.524   1.030  14.130  3.8170 -2.6245  0.4074
18950TIP3   OH278340   6.079   6.764  13.478  0.4629 -0.9256 -0.5099
18950TIP3    H178341   6.042   6.787  13.563  1.5343 -1.2252  0.0542
18950TIP3    H278342   6.056   6.673  13.465 -1.0419 -0.4530 -1.2735
18951TIP3   OH278343   3.407   4.499   5.400 -0.0999 -0.2624  0.2761
18951TIP3    H178344   3.390   4.524   5.491  0.5844 -0.7292  0.5339
18951TIP3    H278345   3.402   4.582   5.352 -0.8102 -0.0600  0.6845
18952TIP3   OH278346   2.014   6.034   4.788 -0.4828 -0.3053 -0.3888
18952TIP3    H178347   2.088   5.992   4.831 -0.7365  0.8416  1.2234
18952TIP3    H278348   2.039   6.036   4.695  0.8083 -1.3234 -0.0864
18953TIP3   OH278349   4.024   3.882  15.959  0.0005 -0.5382 -0.5089
18953TIP3    H178350   3.965   3.839  15.896 -1.9563 -0.1525  1.0158
18953TIP3    H278351   4.076   3.811  15.995 -1.1450 -1.2259 -0.1890
18954TIP3   OH278352   6.389   6.769  11.598 -0.3015 -0.0189  0.4704
18954TIP3    H178353   6.308   6.718  11.604  1.2531 -2.7483 -0.7804
18954TIP3    H278354   6.381   6.817  11.516 -0.6517 -0.2608  0.3629
18955TIP3   OH278355   4.182   1.934   0.660  0.6486  0.1616 -0.2708
18955TIP3    H178356   4.123   1.969   0.594  0.3863  2.0556  0.9515
18955TIP3    H278357   4.269   1.939   0.621  0.2435 -0.8248 -1.3206
18956TIP3   OH278358   0.035   1.196  14.701 -0.0355  0.0170  0.1746
18956TIP3    H178359   0.094   1.219  14.773  2.0042  0.8955 -1.7021
18956TIP3    H278360  -0.044   1.164  14.744  1.9118 -1.5041  2.7925
18957TIP3   OH278361   5.910   1.358  13.350  0.0330  0.3794  0.0210
18957TIP3    H178362   5.849   1.377  13.278 -0.9455  1.6019  1.1596
18957TIP3    H278363   5.915   1.262  13.352 -1.4764  0.2808 -0.3974
18958TIP3   OH278364   3.017   0.003  15.574  0.0915  0.0140  0.3705
18958TIP3    H178365   3.026   0.012  15.479  1.7724 -0.6508  0.4587
18958TIP3    H278366   3.006   0.092  15.606  0.4949  0.3206 -0.3403
18959TIP3   OH278367   1.470   4.653   3.686 -0.0879  0.0011  0.3748
18959TIP3    H178368   1.563   4.651   3.710  0.1055  1.0767 -0.2638
18959TIP3    H278369   1.458   4.576   3.630  0.3727 -0.2321  0.5877
18960TIP3   OH278370   0.601   3.183   2.990 -0.3822  0.5162 -0.0703
18960TIP3    H178371   0.652   3.122   2.937 -1.6684 -1.2944  0.7289
18960TIP3    H278372   0.511   3.172   2.959 -0.7260  1.5626  0.5210
18961TIP3   OH278373   4.236   0.906  14.662  0.5469  0.0680  0.5687
18961TIP3    H178374   4.166   0.920  14.725 -0.5127 -1.1626 -0.3094
18961TIP3    H278375   4.196   0.855  14.592  2.6889 -2.1101  0.8266
18962TIP3   OH278376   4.732   6.473  11.550 -0.2434  0.3349  0.5083
18962TIP3    H178377   4.641   6.456  11.522  0.3299 -0.9507 -0.6440
18962TIP3    H278378   4.779   6.394  11.525  0.7245 -0.0271  3.3551
18963TIP3   OH278379   5.318   0.935   2.909  0.0190 -0.4068  0.4813
18963TIP3    H178380   5.375   0.974   2.842 -0.4911 -1.1490 -0.3978
18963TIP3    H278381   5.358   0.850   2.928 -1.6853 -1.6801 -1.3852
18964TIP3   OH278382   0.851   4.770  16.017 -0.2720 -0.0969  0.2743
18964TIP3    H178383   0.790   4.844  16.018 -0.0461  0.1142 -1.0067
18964TIP3    H278384   0.936   4.808  16.038 -0.0978  0.0693 -0.7116
18965TIP3   OH278385   4.769   6.174   6.619 -0.2578 -0.3347  0.4167
18965TIP3    H178386   4.748   6.142   6.707  2.3197  0.6907  1.4367
18965TIP3    H278387   4.738   6.264   6.619 -0.2905 -0.3454  0.2465
18966TIP3   OH278388   6.563   0.736  11.697 -0.0309  0.3939  0.5773
18966TIP3    H178389   6.554   0.690  11.614 -1.4845  0.4051  0.7112
18966TIP3    H278390   6.593   0.824  11.674 -1.6742  0.8028 -0.0484
18967TIP3   OH278391   3.316   2.727   3.175 -0.1117 -0.0023 -0.2686
18967TIP3    H178392   3.288   2.776   3.098  0.0027  0.2196 -0.1714
18967TIP3    H278393   3.302   2.787   3.248  0.4461  0.0486 -0.2015
18968TIP3   OH278394   3.944   0.071   1.829 -0.9640  0.2837  0.1536
18968TIP3    H178395   4.028   0.028   1.844 -0.6263  0.4698 -1.1264
18968TIP3    H278396   3.902   0.019   1.761 -1.0123  1.3630 -0.6547
18969TIP3   OH278397   5.168   0.372  13.258 -0.8035 -0.2891 -0.4593
18969TIP3    H178398   5.138   0.353  13.169 -0.5759 -0.2932 -0.5351
18969TIP3    H278399   5.251   0.418  13.246  0.0390 -1.7269 -0.2147
18970TIP3   OH278400   2.957   5.759  15.363  0.0101  0.5422  0.3454
18970TIP3    H178401   2.964   5.762  15.458  2.6582  2.8282  0.1509
18970TIP3    H278402   2.883   5.816  15.343 -0.0858  0.6457  0.9787
18971TIP3   OH278403   1.271   4.351   0.849  0.1676  0.3840  0.0844
18971TIP3    H178404   1.202   4.324   0.789  0.1046 -1.0507  0.7857
18971TIP3    H278405   1.346   4.296   0.826 -0.2290 -1.0380  2.1018
18972TIP3   OH278406   5.851   3.651   5.818 -0.1757  0.5002 -0.6383
18972TIP3    H178407   5.912   3.641   5.891 -1.0928  1.9999  0.3576
18972TIP3    H278408   5.873   3.580   5.758  1.5490  0.1345  0.4151
18973TIP3   OH278409   5.202   2.261   2.053 -0.0112  0.3499  0.5418
18973TIP3    H178410   5.286   2.216   2.053 -1.1962 -2.0199 -0.7893
18973TIP3    H278411   5.153   2.221   2.125  0.0880  1.8910  1.4749
18974TIP3   OH278412   2.297   1.708  11.891 -0.2914 -0.3093 -0.4136
18974TIP3    H178413   2.379   1.738  11.930 -0.8239  0.5157  0.0826
18974TIP3    H278414   2.324   1.641  11.828  0.6717 -0.8363  0.5379
18975TIP3   OH278415   4.356   5.373   0.803 -0.6987  0.1621 -0.0864
18975TIP3    H178416   4.435   5.421   0.781 -0.8991  0.7814  0.4959
18975TIP3    H278417   4.386   5.285   0.823 -0.0678  0.5381  0.6926
18976TIP3   OH278418   4.980   3.116  15.845  0.0766 -0.1931  0.5252
18976TIP3    H178419   4.968   3.048  15.911 -0.6868 -0.9393 -0.3743
18976TIP3    H278420   4.986   3.197  15.895  2.0028 -1.0084  1.6795
18977TIP3   OH278421   3.207   5.548  16.686 -0.3477  0.2293  0.4550
18977TIP3    H178422   3.186   5.603  16.762 -2.3997 -0.4267  0.3817
18977TIP3    H278423   3.189   5.604  16.611 -0.4160  0.1333  0.4022
18978TIP3   OH278424   3.995   0.586  12.866 -0.5817 -0.2791 -0.3849
18978TIP3    H178425   4.080   0.602  12.824 -0.3603  0.8840  0.4822
18978TIP3    H278426   3.983   0.661  12.925 -1.5490 -1.1666  0.5611
18979TIP3   OH278427   1.704   5.275   3.881 -0.4466 -0.3045 -0.2876
18979TIP3    H178428   1.796   5.283   3.906  0.4414  0.6519 -3.5300
18979TIP3    H278429   1.695   5.183   3.855  0.5022  0.2731 -2.9101
18980TIP3   OH278430   4.411   1.774   6.183 -0.1678 -0.3439 -0.2847
18980TIP3    H178431   4.420   1.837   6.255 -1.8940 -0.6464  0.2344
18980TIP3    H278432   4.373   1.824   6.112  0.1132 -0.3968 -0.4715
18981TIP3   OH278433   6.400   5.697  13.646 -0.6857  0.2954 -0.0960
18981TIP3    H178434   6.321   5.728  13.602 -0.6004  2.6400  1.3469
18981TIP3    H278435   6.368   5.632  13.709 -1.3845  0.7389  0.0143
18982TIP3   OH278436   2.753   3.145   3.205 -0.1621  0.3628 -0.1151
18982TIP3    H178437   2.754   3.164   3.299  1.2794  0.6883 -0.1799
18982TIP3    H278438   2.751   3.049   3.201  1.4400  0.2912  0.2781
18983TIP3   OH278439   1.408   1.804   1.624  0.4333 -0.3948 -0.0603
18983TIP3    H178440   1.489   1.753   1.618 -0.4668 -1.8252 -0.3155
18983TIP3    H278441   1.413   1.847   1.709  1.5541 -0.3241 -0.1550
18984TIP3   OH278442   1.545   0.383   2.105  0.6891  0.3102 -0.1451
18984TIP3    H178443   1.515   0.414   2.191  2.0786  1.3724 -0.0234
18984TIP3    H278444   1.625   0.333   2.124 -0.5744 -1.9147 -0.5305
18985TIP3   OH278445   0.324   4.001  14.853 -0.2676  0.3791 -0.2325
18985TIP3    H178446   0.337   3.906  14.853  1.5097  0.6160 -0.2023
18985TIP3    H278447   0.339   4.027  14.944  2.4459  1.0998 -0.8517
18986TIP3   OH278448   4.798   1.484   5.339  1.1251 -0.5023 -0.8162
18986TIP3    H178449   4.841   1.492   5.254  0.8687  0.3732 -0.8641
18986TIP3    H278450   4.854   1.532   5.399  1.1115 -0.8082 -0.5611
18987TIP3   OH278451   2.929   0.337  13.956  0.0993 -0.5102  0.1051
18987TIP3    H178452   2.977   0.408  14.000  2.3098 -2.1515  0.3934
18987TIP3    H278453   2.903   0.278  14.026 -1.0751 -0.4107 -0.2282
18988TIP3   OH278454   2.555   5.572  14.305 -1.0631  0.4177 -0.1250
18988TIP3    H178455   2.574   5.548  14.214 -0.1957  0.6618 -0.0124
18988TIP3    H278456   2.640   5.569  14.349 -1.6222 -0.6175  0.9032
18989TIP3   OH278457   0.616   0.384   1.463  0.2907  0.4259 -0.0001
18989TIP3    H178458   0.577   0.431   1.537 -0.4388  0.4879 -0.4271
18989TIP3    H278459   0.579   0.426   1.385  2.1096  1.2805 -0.4236
18990TIP3   OH278460   2.860   0.703   2.280 -0.1306 -0.6446  0.1637
18990TIP3    H178461   2.920   0.660   2.340 -0.2853 -0.6540  0.3127
18990TIP3    H278462   2.806   0.758   2.336  2.2823  2.3679 -0.3761
18991TIP3   OH278463   0.663   0.630  13.264 -0.4996  0.3895  0.6082
18991TIP3    H178464   0.613   0.691  13.210 -1.4789 -1.3426 -0.5096
18991TIP3    H278465   0.753   0.640  13.235 -0.9741 -0.3239 -1.2276
18992TIP3   OH278466   6.238   2.811   0.643  0.1519 -0.2775  0.0902
18992TIP3    H178467   6.194   2.871   0.582  2.4388  0.1547 -1.1761
18992TIP3    H278468   6.196   2.828   0.728 -0.4650  1.8083 -0.6119
18993TIP3   OH278469   1.086   0.489   3.316 -0.4753 -0.6813  0.3257
18993TIP3    H178470   1.159   0.544   3.347  0.6318 -2.1704  0.4410
18993TIP3    H278471   1.055   0.532   3.237 -0.2815  0.6669  0.9811
18994TIP3   OH278472   3.443   2.609   3.578  0.6659  0.5163  0.7432
18994TIP3    H178473   3.492   2.689   3.600  0.5573  1.2055 -1.3661
18994TIP3    H278474   3.486   2.576   3.500 -0.6396 -0.2967  0.3589
18995TIP3   OH278475   1.863   2.283  13.950  0.4872 -0.6047  0.1115
18995TIP3    H178476   1.915   2.351  13.908  2.0894 -1.5272  0.5541
18995TIP3    H278477   1.772   2.311  13.937  1.1034  1.4464  0.0323
18996TIP3   OH278478   3.705   1.112  14.025  0.5149  0.9892  0.2930
18996TIP3    H178479   3.799   1.099  14.031  0.3683 -0.0640  0.2995
18996TIP3    H278480   3.673   1.096  14.114  0.2569  0.7340  0.1561
18997TIP3   OH278481   0.568   6.663  14.386 -0.9508  0.1935 -0.4944
18997TIP3    H178482   0.550   6.701  14.472 -1.5204  0.9663 -0.9527
18997TIP3    H278483   0.486   6.673  14.338 -0.8326 -0.8169 -0.9256
18998TIP3   OH278484   4.676   0.047  16.925 -0.2480  0.4974 -0.2723
18998TIP3    H178485   4.588   0.022  16.952 -0.0809  0.5013  0.2899
18998TIP3    H278486   4.732   0.022  16.999  0.2492  0.3026 -0.7050
18999TIP3   OH278487   4.286   4.738   1.034  0.1586  0.7263 -0.1990
18999TIP3    H178488   4.330   4.772   1.112 -0.7204  1.9482 -0.2168
18999TIP3    H278489   4.244   4.815   0.995 -0.1994 -0.0428 -1.3593
19000TIP3   OH278490   1.128   6.452  14.369  0.1543 -0.5040 -0.0833
19000TIP3    H178491   1.065   6.433  14.300  1.7771  0.0774 -1.7507
19000TIP3    H278492   1.128   6.547  14.377 -0.5216 -0.5939  1.2226
19001TIP3   OH278493   1.534   3.201  10.570 -0.0992 -0.0693  0.0206
19001TIP3    H178494   1.566   3.251  10.495 -1.5615  0.8326 -0.0260
19001TIP3    H278495   1.536   3.264  10.642 -0.4487 -0.3986  0.3136
19002TIP3   OH278496   0.364   6.456  11.770  0.0597 -0.2320 -0.0747
19002TIP3    H178497   0.381   6.391  11.838 -0.3949 -0.8144 -0.5125
19002TIP3    H278498   0.446   6.461  11.720  0.4153  0.2443  0.5447
19003TIP3   OH278499   1.867   1.338  12.851 -0.7028 -0.2294  0.3764
19003TIP3    H178500   1.931   1.273  12.880 -0.6318 -0.1123  0.4820
19003TIP3    H278501   1.827   1.371  12.932 -0.2179  0.3877  0.3654
19004TIP3   OH278502   3.148   1.637  12.848 -0.1653  0.7264  0.2952
19004TIP3    H178503   3.120   1.638  12.757 -1.5634 -0.6467  0.6715
19004TIP3    H278504   3.086   1.578  12.891  1.0873  0.5586  1.9328
19005TIP3   OH278505   5.299   5.968   4.470  0.2816 -0.2971 -0.1934
19005TIP3    H178506   5.306   6.033   4.400 -0.8456  0.2611  0.1962
19005TIP3    H278507   5.283   6.020   4.549  1.4851 -0.9172  0.4791
19006TIP3   OH278508   0.873   4.341  15.473 -0.2057 -0.2483 -0.2512
19006TIP3    H178509   0.857   4.427  15.512 -0.8667 -0.1392 -0.7423
19006TIP3    H278510   0.787   4.315  15.438 -0.2631 -1.5773  0.8304
19007TIP3   OH278511   0.439   1.253  14.781 -0.2340 -0.1978  0.6569
19007TIP3    H178512   0.532   1.268  14.766  0.1851 -1.9268  1.4715
19007TIP3    H278513   0.395   1.321  14.729  1.4575  0.4577  0.0655
19008TIP3   OH278514   5.598   1.080   3.405 -0.4122  0.2160  0.5506
19008TIP3    H178515   5.508   1.048   3.398 -0.4104  0.4268 -0.5237
19008TIP3    H278516   5.596   1.142   3.477 -1.1146  0.1596  0.5830
19009TIP3   OH278517   5.786   1.057  15.750 -0.2361  0.2949 -0.0414
19009TIP3    H178518   5.711   1.046  15.692  0.4566 -0.6088 -0.7825
19009TIP3    H278519   5.749   1.052  15.838 -1.1597  0.7428 -0.3937
19010TIP3   OH278520   5.713   5.538  16.855  0.0467 -0.1974 -0.4174
19010TIP3    H178521   5.760   5.457  16.834 -1.1593 -1.3191  1.0858
19010TIP3    H278522   5.765   5.579  16.923  0.6193  0.2538 -1.1264
19011TIP3   OH278523   4.505   5.518   0.488 -0.4287 -0.2476  0.8058
19011TIP3    H178524   4.557   5.438   0.483  0.0365  0.1580 -0.9401
19011TIP3    H278525   4.416   5.488   0.509 -0.1509 -1.1672  0.6632
19012TIP3   OH278526   3.936   4.481   5.181 -0.3779  1.0306 -0.5027
19012TIP3    H178527   3.887   4.478   5.263  1.1434 -0.7525  0.3568
19012TIP3    H278528   4.014   4.533   5.201  0.5783 -0.3963 -0.4878
19013TIP3   OH278529   2.711   6.788  15.314  0.2219 -0.6124  0.2444
19013TIP3    H178530   2.651   6.800  15.387  0.1616  1.4155 -0.1156
19013TIP3    H278531   2.798   6.793  15.353  0.1914 -2.2707  0.5681
19014TIP3   OH278532   3.690   4.709  14.507 -0.1141 -0.4727  0.1012
19014TIP3    H178533   3.698   4.801  14.532  1.1827 -0.6175  0.2418
19014TIP3    H278534   3.634   4.711  14.429 -0.2963  0.4118  0.2479
19015TIP3   OH278535   2.905   3.500   2.954  0.0793  0.3290 -0.0495
19015TIP3    H178536   2.933   3.424   3.004  0.0225  1.1004  1.1730
19015TIP3    H278537   2.810   3.500   2.960  0.1401  1.3739  1.3099
19016TIP3   OH278538   6.544   4.287  13.171 -0.7357  0.0860  0.0584
19016TIP3    H178539   6.474   4.321  13.115 -1.0252  3.0014  2.1016
19016TIP3    H278540   6.602   4.361  13.185  0.6682 -1.2609  1.6072
19017TIP3   OH278541   1.789   3.294  13.930  0.5339  0.8266  0.1954
19017TIP3    H178542   1.725   3.304  14.000 -0.1245  0.9438 -0.4143
19017TIP3    H278543   1.866   3.341  13.961  0.7674 -0.3448  1.4702
19018TIP3   OH278544   2.393   5.803   3.358 -0.0089 -0.2820  0.2531
19018TIP3    H178545   2.477   5.800   3.312 -0.3966  0.3793 -0.5145
19018TIP3    H278546   2.400   5.736   3.425  1.0004 -0.4799 -0.0391
19019TIP3   OH278547   0.432   5.222  13.665 -0.2324  0.2599  0.0831
19019TIP3    H178548   0.353   5.242  13.615  0.2503  0.9564 -0.4283
19019TIP3    H278549   0.401   5.190  13.749 -1.0707 -1.1922 -0.7571
19020TIP3   OH278550   5.344   6.599   4.038  0.0989 -0.1965 -0.0061
19020TIP3    H178551   5.297   6.671   4.080  0.8609 -0.2424  0.9354
19020TIP3    H278552   5.368   6.634   3.952 -0.6163  0.2390 -0.0328
19021TIP3   OH278553   4.641   5.985  15.539  0.0521  0.0297 -0.8593
19021TIP3    H178554   4.627   5.899  15.501 -0.0759 -0.6566  0.7143
19021TIP3    H278555   4.555   6.012  15.572  0.5398 -0.2742  0.7282
19022TIP3   OH278556   3.245   1.504   2.731 -0.1739  0.3592  0.4332
19022TIP3    H178557   3.311   1.440   2.759 -1.4684 -1.3928 -0.4325
19022TIP3    H278558   3.163   1.473   2.769 -0.6104  2.3321  1.2023
19023TIP3   OH278559   3.520   0.568  14.289 -0.1684 -0.6703  0.4740
19023TIP3    H178560   3.481   0.496  14.240  0.5840 -0.6297 -0.1838
19023TIP3    H278561   3.538   0.636  14.224  0.0982 -0.2988  0.9251
19024TIP3   OH278562   1.193   2.054  13.414  0.0990 -0.0072 -0.0917
19024TIP3    H178563   1.164   2.101  13.337 -1.0332  1.8146  1.4105
19024TIP3    H278564   1.192   1.962  13.388  0.7497  0.6311 -2.5424
19025TIP3   OH278565   5.798   2.100  15.176  0.2521  0.1828  0.7364
19025TIP3    H178566   5.787   2.194  15.187 -0.4718  0.2197 -0.1991
19025TIP3    H278567   5.865   2.076  15.239  0.8650  1.4211  0.5752
19026TIP3   OH278568   5.666   1.127   4.324  0.3766  0.0179  0.1337
19026TIP3    H178569   5.665   1.197   4.389 -1.7261  0.5603 -0.4428
19026TIP3    H278570   5.598   1.066   4.353  0.1262 -0.2500 -0.9763
19027TIP3   OH278571   3.215   3.566  15.395 -0.0423 -0.2749  0.1804
19027TIP3    H178572   3.288   3.568  15.456 -1.0262 -0.7156  1.4031
19027TIP3    H278573   3.140   3.598  15.446 -0.6456  0.4319 -1.1239
19028TIP3   OH278574   3.789   2.696   4.766 -0.8528  0.1606 -0.2689
19028TIP3    H178575   3.881   2.685   4.743 -0.5708 -0.7104  1.2080
19028TIP3    H278576   3.776   2.639   4.842 -2.6268  0.2167 -0.5022
19029TIP3   OH278577   1.189   6.221  12.522  0.2342  0.6694  0.2917
19029TIP3    H178578   1.131   6.146  12.536 -0.3652  0.3614 -3.3492
19029TIP3    H278579   1.242   6.197  12.446  1.3851  3.1322  0.2718
19030TIP3   OH278580   0.157   1.651  13.021  0.1626  0.0233  0.1202
19030TIP3    H178581   0.098   1.578  13.038 -0.3285  0.4133  0.0938
19030TIP3    H278582   0.106   1.729  13.043  0.0164  0.4654 -1.7312
19031TIP3   OH278583   5.981   1.639   3.802 -0.1724 -0.1323  0.0707
19031TIP3    H178584   5.987   1.734   3.807  0.0719 -0.1912  1.0033
19031TIP3    H278585   5.925   1.622   3.726 -1.1194  0.7715  0.5551
19032TIP3   OH278586   4.453   5.858  11.536 -0.5913 -0.0495 -0.3089
19032TIP3    H178587   4.372   5.819  11.567 -0.9928 -0.6289 -2.0206
19032TIP3    H278588   4.453   5.840  11.442  1.8578 -0.7133 -0.2214
19033TIP3   OH278589   1.212   3.173  12.041 -0.1564 -0.3825 -0.3516
19033TIP3    H178590   1.220   3.224  12.122  2.4187 -1.3037  0.0326
19033TIP3    H278591   1.259   3.224  11.975  1.1306 -1.4734 -0.3180
19034TIP3   OH278592   5.603   1.464   4.818 -0.2159 -0.6488 -0.3614
19034TIP3    H178593   5.581   1.557   4.824 -0.4532 -0.6624 -1.0002
19034TIP3    H278594   5.688   1.461   4.774 -0.1982 -0.7308 -0.3236
19035TIP3   OH278595   6.359   5.755   4.536 -0.9058 -0.3462 -0.2718
19035TIP3    H178596   6.414   5.834   4.538  0.2933 -1.1410 -1.0973
19035TIP3    H278597   6.278   5.781   4.579  0.4283  0.6280  1.7442
19036TIP3   OH278598   1.662   0.518  12.557  0.8657 -0.1482 -0.3495
19036TIP3    H178599   1.658   0.433  12.602 -1.4916 -0.2453 -0.6677
19036TIP3    H278600   1.722   0.504  12.484 -1.5886 -2.3719 -2.0174
19037TIP3   OH278601   3.820   6.345  12.433  0.0597 -0.0991  0.2540
19037TIP3    H178602   3.825   6.310  12.344 -0.0936  1.9827 -0.5931
19037TIP3    H278603   3.743   6.303  12.471 -0.4548 -0.2567 -0.9451
19038TIP3   OH278604   6.034   3.399  14.818 -0.4301 -0.3595 -0.1008
19038TIP3    H178605   6.086   3.392  14.738 -0.3436  1.2722 -0.2028
19038TIP3    H278606   6.052   3.487  14.851 -2.3903 -0.1139  0.3730
19039TIP3   OH278607   3.486   5.127   2.747 -0.0275  0.2045  0.1514
19039TIP3    H178608   3.535   5.045   2.751 -0.0848  0.1721  0.2072
19039TIP3    H278609   3.398   5.104   2.778 -0.3674  0.0475 -0.9110
19040TIP3   OH278610   5.129   6.785  16.263  0.4900  0.3225  0.1968
19040TIP3    H178611   5.182   6.789  16.343  1.6719 -0.2670 -0.5488
19040TIP3    H278612   5.146   6.698  16.227 -0.9286  0.1632 -0.1023
19041TIP3   OH278613   6.191   4.382   0.894  0.0074  0.4518 -0.0530
19041TIP3    H178614   6.220   4.464   0.935  0.5540 -0.1254  0.7374
19041TIP3    H278615   6.272   4.340   0.865 -0.2116 -0.1090  0.1402
19042TIP3   OH278616   0.741   1.202   4.891  0.6018 -0.1575 -0.0950
19042TIP3    H178617   0.796   1.144   4.943  1.5368  0.7028 -0.0917
19042TIP3    H278618   0.690   1.144   4.835  0.3664 -1.0370  1.0273
19043TIP3   OH278619   4.423   3.046  14.145  0.1827 -0.0079 -0.1687
19043TIP3    H178620   4.469   3.059  14.062  1.8428 -0.6178  0.6286
19043TIP3    H278621   4.460   3.112  14.204 -0.2998 -0.1871  0.3403
19044TIP3   OH278622   5.196   5.741   0.878  0.4158  1.0006  0.0959
19044TIP3    H178623   5.180   5.785   0.795 -1.3325 -0.0674 -0.1616
19044TIP3    H278624   5.151   5.795   0.943 -1.4077 -0.1470 -0.1706
19045TIP3   OH278625   1.479   0.279   2.567 -0.2278 -0.3815  0.4230
19045TIP3    H178626   1.569   0.259   2.594 -0.6594 -0.3190  1.9715
19045TIP3    H278627   1.460   0.364   2.608 -1.4661 -1.0636  1.3025
19046TIP3   OH278628   2.124   4.016   5.101 -1.0770 -0.0812  0.5294
19046TIP3    H178629   2.126   4.032   5.195  2.0817  2.0120  0.2058
19046TIP3    H278630   2.100   4.101   5.063 -3.2610 -1.1338 -0.5744
19047TIP3   OH278631   1.057   4.347   0.104  0.3896  0.2965 -0.3841
19047TIP3    H178632   1.147   4.334   0.074  0.2311  0.7263 -1.0624
19047TIP3    H278633   1.028   4.426   0.059 -0.5760 -0.2539 -0.7515
19048TIP3   OH278634   5.823   4.360  11.987  0.0166  0.2795  0.0008
19048TIP3    H178635   5.839   4.415  12.064 -0.0174  1.3398 -0.7484
19048TIP3    H278636   5.852   4.273  12.014 -3.5745 -0.2627  2.6115
19049TIP3   OH278637   6.234   1.828   2.424 -0.3438 -0.2361 -0.3681
19049TIP3    H178638   6.154   1.879   2.408 -0.5682 -0.0366  1.3164
19049TIP3    H278639   6.282   1.878   2.489  0.7800 -0.7798 -0.7717
19050TIP3   OH278640   3.467   6.528  11.611 -0.3225 -0.7893  0.2736
19050TIP3    H178641   3.425   6.445  11.590  0.7964 -1.0850 -0.9095
19050TIP3    H278642   3.411   6.595  11.572  0.4412 -1.1979 -1.5783
19051TIP3   OH278643   5.793   6.010   0.309 -0.2696 -0.8017  0.1068
19051TIP3    H178644   5.850   6.067   0.360  2.0782 -3.1843  0.2278
19051TIP3    H278645   5.759   5.948   0.374 -0.6153 -1.2605 -0.5159
19052TIP3   OH278646   4.689   4.073   3.466 -0.9812 -0.0810 -0.1790
19052TIP3    H178647   4.694   4.008   3.395  1.1228  1.4453 -1.4927
19052TIP3    H278648   4.603   4.114   3.455 -1.0733 -0.5408 -1.2276
19053TIP3   OH278649   3.312   2.551   4.610 -0.7114  0.3107  0.5195
19053TIP3    H178650   3.398   2.513   4.591 -1.1961 -0.2542 -0.5841
19053TIP3    H278651   3.317   2.576   4.702  0.4584 -0.2100  0.6073
19054TIP3   OH278652   3.152   5.324  13.165 -0.6779 -0.1966 -0.5883
19054TIP3    H178653   3.240   5.290  13.185 -0.4044  0.6401 -0.3366
19054TIP3    H278654   3.150   5.410  13.207 -1.3011  0.1668 -1.3621
19055TIP3   OH278655   6.697   4.188  15.279 -0.1280 -0.0494 -0.5542
19055TIP3    H178656   6.754   4.136  15.223 -1.2454  1.6881 -3.4189
19055TIP3    H278657   6.653   4.124  15.335  1.0424 -1.8404 -1.6437
19056TIP3   OH278658   3.068   4.561   5.219 -0.2646 -0.4350  0.1722
19056TIP3    H178659   3.041   4.651   5.235 -0.6214 -0.8247  1.9006
19056TIP3    H278660   3.152   4.569   5.174 -1.3297  0.7506 -1.6671
19057TIP3   OH278661   1.897   5.907  13.732 -0.1778  0.6811 -0.1580
19057TIP3    H178662   1.805   5.894  13.713 -0.3643  0.6690  0.7062
19057TIP3    H278663   1.897   5.957  13.814  0.6007 -2.5351  1.8994
19058TIP3   OH278664   6.704   3.834  14.116 -0.3602  0.4186 -0.2851
19058TIP3    H178665   6.636   3.885  14.160 -0.3581  1.3490 -1.3481
19058TIP3    H278666   6.734   3.772  14.182 -1.3158  0.8929  0.5989
19059TIP3   OH278667   1.421   6.618   3.609 -0.0065  0.3410 -0.0648
19059TIP3    H178668   1.485   6.572   3.554  1.6413  1.3127  0.9851
19059TIP3    H278669   1.407   6.702   3.564 -0.1835  0.3246 -0.0412
19060TIP3   OH278670   6.552   0.980  13.288  0.2548  0.2691  0.3923
19060TIP3    H178671   6.592   1.055  13.333  1.5907 -0.0564 -0.2265
19060TIP3    H278672   6.594   0.904  13.326  1.1870 -0.0238 -1.1762
19061TIP3   OH278673   0.102   6.104   5.520 -0.3870 -0.2377 -0.3794
19061TIP3    H178674   0.099   6.023   5.571 -0.4890  0.5139  0.8066
19061TIP3    H278675   0.181   6.095   5.466 -0.1779 -0.9517  0.0341
19062TIP3   OH278676   4.104   5.901   2.994  0.0145 -0.1023 -0.2733
19062TIP3    H178677   4.130   5.846   3.068 -0.7121  1.8884  1.5178
19062TIP3    H278678   4.009   5.904   2.998 -0.0714 -0.4863 -1.6899
19063TIP3   OH278679   4.976   2.419   6.119  0.3694  0.2609 -0.0035
19063TIP3    H178680   4.997   2.438   6.210  1.1320 -2.2301  0.3939
19063TIP3    H278681   4.881   2.414   6.116  0.4368 -2.9890  1.4354
19064TIP3   OH278682   1.314   5.081   4.821 -0.0303  0.2408 -0.3803
19064TIP3    H178683   1.363   5.052   4.898 -0.3094 -0.1469 -0.3489
19064TIP3    H278684   1.295   5.001   4.773 -2.7596  0.0846  0.8516
19065TIP3   OH278685   6.325   2.652  11.657  0.6265 -0.3176  0.0032
19065TIP3    H178686   6.297   2.743  11.651  0.0997 -0.3282  2.0026
19065TIP3    H278687   6.394   2.651  11.723  0.5138 -1.3766  0.1303
19066TIP3   OH278688   0.144   0.769  14.994 -0.2354 -0.0516  0.2947
19066TIP3    H178689   0.227   0.803  15.031 -0.1524 -1.4870  1.4648
19066TIP3    H278690   0.081   0.779  15.066 -0.5235 -1.1531  0.1890
19067TIP3   OH278691   1.524   4.258   0.768  0.0335 -0.5682 -0.0531
19067TIP3    H178692   1.565   4.301   0.692 -0.5120 -0.4987 -0.3087
19067TIP3    H278693   1.580   4.182   0.785  0.0524 -0.6921 -0.6472
19068TIP3   OH278694   2.654   5.328   0.789  0.2471 -0.1828  0.3792
19068TIP3    H178695   2.743   5.363   0.777  0.2758 -0.7491 -1.2300
19068TIP3    H278696   2.597   5.405   0.783  0.4318 -0.1676 -1.4788
19069TIP3   OH278697   0.134   2.533   0.543 -0.3270 -0.4397 -0.5325
19069TIP3    H178698   0.059   2.591   0.534 -0.2427 -0.3725 -0.8249
19069TIP3    H278699   0.194   2.561   0.474 -0.4149 -1.0743 -0.8665
19070TIP3   OH278700   5.521   0.879  10.997  0.0407 -0.5216  0.2384
19070TIP3    H178701   5.438   0.913  11.031  0.3843 -0.4092  0.9464
19070TIP3    H278702   5.579   0.954  10.994  0.0022 -0.5144 -0.6523
19071TIP3   OH278703   3.101   5.625  16.929  0.0303  0.0010 -0.7519
19071TIP3    H178704   3.112   5.714  16.962  1.3201  0.8966 -3.4447
19071TIP3    H278705   3.014   5.624  16.890 -0.4396 -0.2798  0.2846
19072TIP3   OH278706   4.748   5.759  10.429 -0.1803 -0.2132 -0.3864
19072TIP3    H178707   4.830   5.712  10.415 -0.3453 -1.9330  3.6763
19072TIP3    H278708   4.759   5.803  10.513 -3.0396  0.4055 -0.2793
19073TIP3   OH278709   2.292   5.468   5.291  0.4183  0.0566  0.4330
19073TIP3    H178710   2.243   5.432   5.365  2.3474 -0.9469  1.2503
19073TIP3    H278711   2.315   5.392   5.238 -1.1143  0.7871 -1.3499
19074TIP3   OH278712   1.775   0.265   5.648  0.0041 -0.8779  0.2023
19074TIP3    H178713   1.819   0.275   5.733 -0.9777 -0.0549  0.6257
19074TIP3    H278714   1.683   0.282   5.667  0.1609  2.1985 -1.5659
19075TIP3   OH278715   2.536   3.082  16.470 -0.4040  0.2368 -0.1129
19075TIP3    H178716   2.450   3.121  16.485  0.0902  1.4153 -0.3117
19075TIP3    H278717   2.549   3.086  16.376 -1.6680 -3.2779 -0.5124
19076TIP3   OH278718   4.403   0.310  12.115 -0.0181  0.0110  0.4983
19076TIP3    H178719   4.379   0.386  12.167 -1.2703  0.2217 -0.3501
19076TIP3    H278720   4.331   0.301  12.052  0.8271 -1.0035 -0.3381
19077TIP3   OH278721   1.602   3.758   3.868 -0.2807  0.7236  0.2572
19077TIP3    H178722   1.523   3.706   3.856  0.4426 -0.5474  0.9276
19077TIP3    H278723   1.670   3.695   3.888  0.7630  1.8699  0.4029
19078TIP3   OH278724   6.771   6.284  11.232  0.3749  0.4946  0.2064
19078TIP3    H178725   6.852   6.240  11.256 -0.1858 -0.9323 -0.4052
19078TIP3    H278726   6.792   6.331  11.151  0.4117 -0.5046 -0.3817
19079TIP3   OH278727   4.564   4.537   1.139 -0.2698  0.2820  0.3381
19079TIP3    H178728   4.656   4.565   1.146 -0.9406  3.0716 -1.6342
19079TIP3    H278729   4.523   4.568   1.220  0.8043 -2.3433  1.9683
19080TIP3   OH278730   4.751   4.580   4.767  0.6743  0.2662 -0.1824
19080TIP3    H178731   4.748   4.533   4.684 -0.5802  1.0136 -0.5818
19080TIP3    H278732   4.739   4.672   4.742  0.3139  0.4930  0.8239
19081TIP3   OH278733   3.819   4.104  17.249  0.7331 -0.3812 -0.5671
19081TIP3    H178734   3.724   4.114  17.256  0.5371 -2.0808 -0.6663
19081TIP3    H278735   3.836   4.096  17.156  0.8881 -0.9029 -0.4958
19082TIP3   OH278736   0.626   5.881   3.387  0.1632  0.3998 -0.0023
19082TIP3    H178737   0.603   5.974   3.398 -2.1875 -0.0336 -0.9770
19082TIP3    H278738   0.559   5.834   3.437  1.2462 -0.8027  0.3455
19083TIP3   OH278739   6.372   1.567  15.445 -0.0217 -0.0046 -0.0879
19083TIP3    H178740   6.382   1.478  15.478  0.1283  0.0656  0.0571
19083TIP3    H278741   6.376   1.622  15.523  1.4383  0.2489 -0.3159
19084TIP3   OH278742   4.054   5.387   0.253 -0.0047 -0.1895  0.6323
19084TIP3    H178743   4.017   5.318   0.199 -2.2389  2.1036 -0.9120
19084TIP3    H278744   4.044   5.356   0.343 -0.7754 -1.9479 -0.0501
19085TIP3   OH278745   1.896   5.922  16.617  0.3565  0.1178 -0.0613
19085TIP3    H178746   1.957   5.866  16.665  0.0304  1.5080  2.0406
19085TIP3    H278747   1.942   5.943  16.536  1.1959 -1.7405 -0.0992
19086TIP3   OH278748   6.678   5.963   4.549  0.4401 -0.5093  1.0160
19086TIP3    H178749   6.699   5.891   4.609  0.2139 -0.7647  0.7934
19086TIP3    H278750   6.749   6.026   4.561  0.0998 -0.3006  1.9546
19087TIP3   OH278751   1.237   0.419   6.207 -0.0336  0.0680  0.0093
19087TIP3    H178752   1.200   0.479   6.142 -0.6722 -0.2840  0.0436
19087TIP3    H278753   1.207   0.333   6.179  0.9642 -0.2470 -0.0944
19088TIP3   OH278754   6.606   0.450   3.539 -0.6729  0.7023 -0.1879
19088TIP3    H178755   6.642   0.404   3.615  1.7514  0.9623 -1.1545
19088TIP3    H278756   6.525   0.489   3.572 -1.4389 -2.0081  1.3534
19089TIP3   OH278757   3.350   6.805  13.426 -0.0654  0.3035  0.1450
19089TIP3    H178758   3.345   6.835  13.335  0.1773  0.2930  0.1274
19089TIP3    H278759   3.430   6.843  13.460  0.1833 -0.2210  0.1587
19090TIP3   OH278760   2.933   1.257   4.098  0.3561  0.4732 -0.0518
19090TIP3    H178761   2.861   1.318   4.111 -1.6868 -1.6270 -1.1609
19090TIP3    H278762   2.999   1.284   4.162 -1.5416  2.2344  1.2179
19091TIP3   OH278763   1.060   5.696   3.902  0.0805  1.0947 -0.6289
19091TIP3    H178764   0.982   5.746   3.927 -1.0356 -0.1905 -1.4933
19091TIP3    H278765   1.063   5.702   3.807  0.9671  1.0188 -0.6096
19092TIP3   OH278766   5.269   1.311  15.718 -0.1439  0.0890  0.0162
19092TIP3    H178767   5.248   1.400  15.746  2.7275  1.1986 -1.1464
19092TIP3    H278768   5.285   1.319  15.624  0.3226 -1.6214 -0.0585
19093TIP3   OH278769   2.162   3.305   4.044  0.4195 -0.6515 -0.5037
19093TIP3    H178770   2.117   3.380   4.083  0.9623 -0.5344 -0.0996
19093TIP3    H278771   2.151   3.318   3.949 -2.8545 -2.1297 -0.3874
19094TIP3   OH278772   0.482   4.912  13.410  0.7770 -0.1069  0.3560
19094TIP3    H178773   0.456   4.846  13.344 -0.1993  1.0717 -0.4611
19094TIP3    H278774   0.560   4.875  13.451  0.3135 -1.7323 -0.1730
19095TIP3   OH278775   5.583   6.667  17.269  0.0941 -0.8523 -0.7464
19095TIP3    H178776   5.542   6.585  17.298 -0.4769 -0.7077 -1.1457
19095TIP3    H278777   5.577   6.725  17.346  0.8978 -1.3282 -0.3176
19096TIP3   OH278778   4.669   5.520  11.964 -0.1701 -0.1282 -0.2405
19096TIP3    H178779   4.741   5.458  11.961 -0.9470 -1.0935  0.4879
19096TIP3    H278780   4.697   5.594  11.910  1.9395  0.1409  1.1938
19097TIP3   OH278781   3.575   1.614   1.997  0.4326 -0.0410  0.1178
19097TIP3    H178782   3.585   1.678   2.068  0.3378 -0.0542  0.1438
19097TIP3    H278783   3.654   1.624   1.944  0.7837 -0.4465  0.5601
19098TIP3   OH278784   1.441   4.697   5.005  0.2497 -0.0485 -0.6238
19098TIP3    H178785   1.510   4.693   5.072 -0.4099  0.2969  0.0804
19098TIP3    H278786   1.429   4.606   4.978 -0.6637 -0.4074  0.9437
19099TIP3   OH278787   2.041   6.282  15.840  0.1966 -0.5099  0.2315
19099TIP3    H178788   2.035   6.278  15.745  0.8847 -2.9685  0.2528
19099TIP3    H278789   1.950   6.272  15.870 -0.0693  0.6508 -0.1553
19100TIP3   OH278790   6.792   0.581  14.836 -0.2790  0.5407  0.4816
19100TIP3    H178791   6.700   0.606  14.850  0.0824  1.5073  1.1142
19100TIP3    H278792   6.842   0.639  14.893  0.7972  0.6651 -0.5722
19101TIP3   OH278793   1.579   4.874   2.573 -0.0537 -0.3964  0.5317
19101TIP3    H178794   1.644   4.843   2.636  0.7130  1.3140  0.6166
19101TIP3    H278795   1.564   4.799   2.515  1.8635 -0.8879  0.6360
19102TIP3   OH278796   1.438   5.592  11.459 -0.2061  0.7644  0.5311
19102TIP3    H178797   1.358   5.599  11.510  0.2220 -0.0594  1.3240
19102TIP3    H278798   1.413   5.542  11.381 -0.7325  1.5644  0.1774
19103TIP3   OH278799   6.282   2.398  15.866 -0.4302 -0.3945  0.5325
19103TIP3    H178800   6.243   2.447  15.793 -0.4714 -0.4574  0.5120
19103TIP3    H278801   6.298   2.311  15.831  1.2583  0.0838  0.0139
19104TIP3   OH278802   6.087   3.839  15.698 -0.0877  0.3212  0.0781
19104TIP3    H178803   6.097   3.744  15.689  3.0029  0.6352 -0.4776
19104TIP3    H278804   6.052   3.851  15.787 -0.6274 -1.3290  0.1081
19105TIP3   OH278805   2.341   4.766   3.262 -0.0109 -0.1374  0.5004
19105TIP3    H178806   2.401   4.777   3.188 -0.3590 -0.0728  0.2246
19105TIP3    H278807   2.373   4.688   3.308  0.1957 -0.1872  0.2732
19106TIP3   OH278808   6.208   6.334  13.314 -0.1585 -0.6722  0.2028
19106TIP3    H178809   6.135   6.272  13.322 -0.6169 -0.0012  1.3903
19106TIP3    H278810   6.224   6.364  13.404  1.1839 -0.3512 -0.1305
19107TIP3   OH278811   1.676   3.016   3.858 -0.5007 -0.5126  0.2128
19107TIP3    H178812   1.730   2.957   3.806 -0.5199  0.3813 -0.8632
19107TIP3    H278813   1.599   2.965   3.880  1.2664 -2.2001  2.7848
19108TIP3   OH278814   6.149   1.641  15.265  0.2499  0.0352  0.8725
19108TIP3    H178815   6.217   1.625  15.331  0.6634  0.7365  0.6223
19108TIP3    H278816   6.068   1.612  15.307  0.5491  0.2053  1.5884
19109TIP3   OH278817   0.936   2.928   0.957 -0.6647  0.1323 -0.6307
19109TIP3    H178818   0.897   2.915   0.870  0.6936  1.1127 -1.4028
19109TIP3    H278819   0.976   2.844   0.978 -1.5580 -0.3085 -0.6547
19110TIP3   OH278820   0.751   1.981   0.219 -0.4667  0.3608  0.7846
19110TIP3    H178821   0.657   1.984   0.199 -0.6474  0.5127  1.6173
19110TIP3    H278822   0.757   2.013   0.309  0.1894 -1.3601  1.3627
19111TIP3   OH278823   2.412   4.954   6.501 -0.1790  0.1326  0.2728
19111TIP3    H178824   2.327   4.915   6.524  0.6771 -1.0914  1.4038
19111TIP3    H278825   2.435   5.006   6.578 -0.0270  0.6708 -0.1406
19112TIP3   OH278826   1.232   4.406  11.668  0.1528 -0.5904  0.2545
19112TIP3    H178827   1.156   4.463  11.657 -0.3567 -1.1830  0.6893
19112TIP3    H278828   1.305   4.466  11.679 -0.0712 -0.0051 -1.3369
19113TIP3   OH278829   5.157   1.336   0.465 -0.2532 -0.1437 -0.2779
19113TIP3    H178830   5.209   1.391   0.523 -0.5650 -0.1607  0.0178
19113TIP3    H278831   5.155   1.383   0.382 -0.9375  0.5260  0.1190
19114TIP3   OH278832   0.638   0.090  13.360 -0.7100  0.2187  0.8343
19114TIP3    H178833   0.657   0.103  13.267  0.1794  1.4907  1.1824
19114TIP3    H278834   0.572   0.020  13.361 -0.2389 -0.2669 -0.7043
19115TIP3   OH278835   0.389   4.860  15.015  0.1517 -0.0449  0.8159
19115TIP3    H178836   0.426   4.778  15.047 -0.2696 -0.6961 -0.3569
19115TIP3    H278837   0.333   4.890  15.087  2.6970  0.8132  2.4880
19116TIP3   OH278838   4.772   5.645  13.685 -0.3279  0.0843  1.2431
19116TIP3    H178839   4.712   5.660  13.612  0.2777 -0.7951  0.5500
19116TIP3    H278840   4.859   5.664  13.649 -0.0407 -0.1978  1.7762
19117TIP3   OH278841   2.237   2.482   6.249 -0.0911 -0.3839 -0.4353
19117TIP3    H178842   2.146   2.457   6.265 -0.5949  1.5834 -0.1303
19117TIP3    H278843   2.233   2.576   6.230  1.8387 -0.3485 -0.7114
19118TIP3   OH278844   5.096   2.296  12.652 -0.0460  0.2495 -0.1269
19118TIP3    H178845   5.070   2.265  12.565 -1.1608  0.5730  0.0823
19118TIP3    H278846   5.190   2.316  12.643  0.1186 -0.8302 -0.9246
19119TIP3   OH278847   5.584   4.792  16.057 -0.0782  0.0620 -0.3930
19119TIP3    H178848   5.673   4.817  16.083 -0.4942  1.1443  0.0164
19119TIP3    H278849   5.583   4.805  15.962 -0.2182  1.4424 -0.2205
19120TIP3   OH278850   0.997   1.473  15.654 -0.9228 -0.0763 -0.4651
19120TIP3    H178851   0.981   1.380  15.673 -1.8395  0.2645  0.4781
19120TIP3    H278852   0.911   1.510  15.638 -0.5242  0.5435 -1.2142
19121TIP3   OH278853   6.632   0.975   2.161 -0.4618  0.5133 -0.5023
19121TIP3    H178854   6.615   0.992   2.253 -0.8280 -0.7748 -0.3125
19121TIP3    H278855   6.662   0.884   2.159 -0.7690  0.4295 -1.6839
19122TIP3   OH278856   5.190   3.634  14.146 -0.5967  0.1314 -0.0205
19122TIP3    H178857   5.200   3.634  14.242 -0.7549  0.3392 -0.0051
19122TIP3    H278858   5.096   3.640  14.132 -0.5597  0.2961 -0.1917
19123TIP3   OH278859   1.576   6.301   3.103 -0.1589 -0.6269 -0.1984
19123TIP3    H178860   1.566   6.304   3.008 -1.1734 -0.8808 -0.0964
19123TIP3    H278861   1.494   6.264   3.136  0.0714 -0.2798  0.7974
19124TIP3   OH278862   4.872   2.675  15.415 -0.1994  0.3867  0.4384
19124TIP3    H178863   4.954   2.636  15.446  1.3825  2.4804 -0.9283
19124TIP3    H278864   4.813   2.601  15.404  0.8546 -0.9599  3.3481
19125TIP3   OH278865   5.508   2.673   2.197  0.2026  0.0266  0.1481
19125TIP3    H178866   5.541   2.604   2.254 -0.2834  0.6122  1.1459
19125TIP3    H278867   5.441   2.718   2.249 -0.8788  0.0103 -1.1775
19126TIP3   OH278868   1.592   6.330  15.310 -0.1376 -0.1325  0.2387
19126TIP3    H178869   1.545   6.322  15.393 -2.0817  2.3815 -0.5591
19126TIP3    H278870   1.528   6.367  15.249  2.2840  1.5595 -1.3970
19127TIP3   OH278871   2.966   6.342  15.147  0.0155  0.5820  0.1421
19127TIP3    H178872   2.901   6.304  15.207  1.1673  0.6611  1.4536
19127TIP3    H278873   2.952   6.437  15.155  0.8103  0.6256  1.0068
19128TIP3   OH278874   3.484   0.178   4.799  0.1086  0.1385  0.3205
19128TIP3    H178875   3.402   0.201   4.842 -0.2577  0.5764 -0.5956
19128TIP3    H278876   3.543   0.155   4.871 -0.6563  0.3136  1.0171
19129TIP3   OH278877   3.423   0.042  12.868  0.3114 -0.2350 -0.1894
19129TIP3    H178878   3.387  -0.046  12.884  1.6273 -0.7994 -0.2932
19129TIP3    H278879   3.517   0.029  12.864  0.7596  1.6072  2.6770
19130TIP3   OH278880   4.122   1.220   4.954  1.1074 -0.2652 -0.9702
19130TIP3    H178881   4.140   1.126   4.942 -1.0548 -0.7756 -0.2702
19130TIP3    H278882   4.035   1.233   4.918  0.3860  1.0036  1.1361
19131TIP3   OH278883   6.483   1.974   3.293 -0.1890  0.3184  0.3593
19131TIP3    H178884   6.547   1.935   3.232 -0.8672 -0.7054  0.2909
19131TIP3    H278885   6.464   1.904   3.355 -1.0957  0.6858  0.4955
19132TIP3   OH278886   6.667   1.569   1.916  0.4431 -0.4334  0.7709
19132TIP3    H178887   6.672   1.620   1.835  0.8493 -2.1866 -0.3306
19132TIP3    H278888   6.574   1.545   1.922  0.5285 -0.8265  0.5014
19133TIP3   OH278889   6.442   6.478   2.648  0.4330 -0.4566  0.0633
19133TIP3    H178890   6.527   6.435   2.650 -0.3335 -1.9793  0.4998
19133TIP3    H278891   6.462   6.571   2.654  2.0579 -0.8130  0.3165
19134TIP3   OH278892   4.897   0.506   2.763  0.6066  0.2084  0.5679
19134TIP3    H178893   4.876   0.532   2.853 -0.1306 -0.2881  0.5446
19134TIP3    H278894   4.840   0.560   2.709  0.9661  0.4226  0.4015
19135TIP3   OH278895   1.244   2.363   4.140  0.3353 -0.5374  0.8104
19135TIP3    H178896   1.240   2.420   4.217  0.4651  1.5658 -0.6941
19135TIP3    H278897   1.153   2.334   4.128  0.1125  0.0362  1.0843
19136TIP3   OH278898   3.434   0.613  16.644  0.2592  0.4096  0.1181
19136TIP3    H178899   3.482   0.634  16.564  1.1342 -0.7588  0.3297
19136TIP3    H278900   3.357   0.565  16.614  0.3155  0.4313 -0.0617
19137TIP3   OH278901   1.728   0.515  17.263 -0.2321  0.7277 -0.5492
19137TIP3    H178902   1.667   0.575  17.219 -1.1536 -0.5558 -1.0631
19137TIP3    H278903   1.743   0.446  17.199  0.0728 -0.0809  0.3821
19138TIP3   OH278904   0.446   0.213  12.296  0.1312 -0.8532  0.7387
19138TIP3    H178905   0.370   0.187  12.349  0.1574 -1.4229  0.4952
19138TIP3    H278906   0.431   0.173  12.211 -0.6880  1.3527 -0.1802
19139TIP3   OH278907   4.283   3.907  15.420  0.0316  0.9117 -0.4442
19139TIP3    H178908   4.340   3.982  15.400  1.1601  0.3870  0.7133
19139TIP3    H278909   4.287   3.900  15.515 -1.1363  0.1961 -0.4476
19140TIP3   OH278910   4.808   4.309  13.853  0.1679  0.3221  0.0764
19140TIP3    H178911   4.723   4.304  13.809 -0.3159  0.0763  1.0194
19140TIP3    H278912   4.843   4.394  13.826  0.6068 -0.5202 -2.0518
19141TIP3   OH278913   6.759   1.321   2.410 -0.4960 -0.3561  0.6277
19141TIP3    H178914   6.666   1.331   2.432 -0.5361  2.7109 -0.7379
19141TIP3    H278915   6.804   1.375   2.475  0.0362  1.1515 -0.9706
19142TIP3   OH278916   5.222   0.017  16.523  0.4185  0.2304 -0.0592
19142TIP3    H178917   5.286   0.032  16.593  1.8641  0.1167 -1.3202
19142TIP3    H278918   5.209   0.103  16.483 -1.3800  0.5415  1.1341
19143TIP3   OH278919   4.807   4.385   5.363 -0.5286  0.1242 -0.3096
19143TIP3    H178920   4.838   4.314   5.418  0.2702  1.0517  0.4573
19143TIP3    H278921   4.840   4.365   5.276 -1.4592 -1.1464 -0.3728
19144TIP3   OH278922   6.153   4.160  11.463  0.6417  0.3396  0.5376
19144TIP3    H178923   6.233   4.126  11.423 -1.0033 -1.7816 -1.0494
19144TIP3    H278924   6.175   4.251  11.485  3.3682 -0.0899 -0.1500
19145TIP3   OH278925   0.825   5.359   5.556 -0.2163  0.6282  0.1446
19145TIP3    H178926   0.806   5.441   5.512 -0.1552  0.9930  0.7978
19145TIP3    H278927   0.918   5.363   5.576 -0.3200  0.6217  0.6340
19146TIP3   OH278928   4.937   5.111  15.494  0.3021 -0.4193 -0.2608
19146TIP3    H178929   4.931   5.163  15.414 -0.9206  1.2369  0.8675
19146TIP3    H278930   4.999   5.160  15.550  0.0793 -0.8174  0.3386
19147TIP3   OH278931   1.994   4.189   1.633  0.3628 -0.2876 -0.3034
19147TIP3    H178932   1.992   4.187   1.728 -0.0646  0.4573 -0.2919
19147TIP3    H278933   1.904   4.213   1.607  0.9774  1.5675 -0.8163
19148TIP3   OH278934   4.009   5.456   4.483  0.3166 -0.6655  0.1069
19148TIP3    H178935   4.079   5.399   4.514  0.0816 -0.6922  0.5958
19148TIP3    H278936   3.940   5.396   4.454  0.3749 -0.6349 -0.1016
19149TIP3   OH278937   0.677   6.742   0.367  0.5830 -0.0301 -0.4725
19149TIP3    H178938   0.754   6.790   0.400  2.1609 -1.1432 -2.4066
19149TIP3    H278939   0.626   6.808   0.321  2.1873  0.0701 -2.1772
19150TIP3   OH278940   0.010   3.406  15.203  0.7296 -0.3486  0.0590
19150TIP3    H178941   0.057   3.325  15.186 -0.0666 -0.8011 -0.0125
19150TIP3    H278942  -0.046   3.418  15.127  0.5701  0.0747  0.2381
19151TIP3   OH278943   6.463   3.767   4.149 -0.0884 -0.1013 -0.4399
19151TIP3    H178944   6.402   3.829   4.189  0.6280  0.3716 -0.0493
19151TIP3    H278945   6.439   3.765   4.057 -1.6855 -1.1126 -0.0156
19152TIP3   OH278946   4.509   6.439  13.302 -0.0466 -0.0953  0.2627
19152TIP3    H178947   4.465   6.410  13.382 -2.5449  1.9475 -0.3297
19152TIP3    H278948   4.504   6.534  13.304  1.2047  0.0484 -1.5971
19153TIP3   OH278949   5.151   6.021   0.423  0.4252 -0.5655 -0.2163
19153TIP3    H178950   5.099   6.023   0.342  1.2145 -0.6174 -0.7341
19153TIP3    H278951   5.105   6.079   0.483 -2.6950 -3.8924  0.8494
19154TIP3   OH278952   4.274   5.518  16.167  0.6618  0.4138 -0.2615
19154TIP3    H178953   4.231   5.535  16.083 -0.6514  1.7034  0.6447
19154TIP3    H278954   4.238   5.435  16.196  0.8650  0.1303 -0.8156
19155TIP3   OH278955   2.037   5.534  16.209  0.1048  0.2352  0.1674
19155TIP3    H178956   2.080   5.607  16.164  0.6244  0.2186  0.6237
19155TIP3    H278957   1.959   5.515  16.157  0.5472  0.4063 -0.5616
19156TIP3   OH278958   1.050   6.292   2.150 -0.1482  0.6157  0.3820
19156TIP3    H178959   1.059   6.233   2.225 -0.3445  1.3391  0.9855
19156TIP3    H278960   0.981   6.252   2.097  1.3113 -0.9044 -0.3836
19157TIP3   OH278961   0.458   3.179  15.120  0.1822  0.3257 -0.0085
19157TIP3    H178962   0.459   3.105  15.181  2.0675 -0.5699 -1.1053
19157TIP3    H278963   0.533   3.165  15.063 -0.7539  1.9067 -1.6784
19158TIP3   OH278964   2.542   2.856  15.380 -0.2884  0.2645 -0.4129
19158TIP3    H178965   2.548   2.888  15.470  2.0430 -1.8526  0.2513
19158TIP3    H278966   2.466   2.901  15.343 -0.2159  2.5079  2.0485
19159TIP3   OH278967   4.609   2.805  14.137 -0.5230 -0.2514 -0.2437
19159TIP3    H178968   4.527   2.853  14.128 -0.7663 -0.8767 -1.3773
19159TIP3    H278969   4.585   2.725  14.184 -0.7026 -0.7831 -1.2304
19160TIP3   OH278970   1.106   1.457   5.306 -0.6732  1.0615  0.1664
19160TIP3    H178971   1.027   1.510   5.298 -1.0258  0.3608 -1.0350
19160TIP3    H278972   1.133   1.469   5.397 -2.5729  0.7122  0.7937
19161TIP3   OH278973   4.584   4.669  11.091 -0.0214  0.8253  0.2913
19161TIP3    H178974   4.493   4.668  11.119  0.0364  1.3726  0.5045
19161TIP3    H278975   4.627   4.604  11.147 -0.9259 -1.9071 -2.0515
19162TIP3   OH278976   1.522   1.383  16.402  0.0445  0.0591 -0.0396
19162TIP3    H178977   1.475   1.301  16.408  2.8275 -1.5976 -0.0016
19162TIP3    H278978   1.496   1.432  16.481 -1.1068 -1.0548  0.2710
19163TIP3   OH278979   2.563   4.261   5.629  0.2784 -0.0949 -0.5483
19163TIP3    H178980   2.582   4.271   5.536 -1.6493  0.6359 -0.8755
19163TIP3    H278981   2.580   4.169   5.648 -0.4029 -0.4956 -1.8748
19164TIP3   OH278982   0.399   1.585  13.702 -0.3932  0.2782  0.2764
19164TIP3    H178983   0.463   1.607  13.635 -1.2479  0.4973 -0.4788
19164TIP3    H278984   0.372   1.669  13.738  1.7458  0.0640  2.5213
19165TIP3   OH278985   4.840   6.016   0.655  0.2499  0.0268  0.4886
19165TIP3    H178986   4.780   6.057   0.717 -1.8525 -3.6952  1.1002
19165TIP3    H278987   4.783   5.970   0.593  2.3885 -2.4275  0.2277
19166TIP3   OH278988   3.434   5.838  14.851  0.0626 -0.0879 -0.3419
19166TIP3    H178989   3.355   5.888  14.830  0.2810  0.1182 -0.6667
19166TIP3    H278990   3.415   5.800  14.937 -0.1707  0.4174 -0.1663
19167TIP3   OH278991   5.237   6.128   0.106  0.1931  0.0744 -0.1809
19167TIP3    H178992   5.280   6.153   0.024 -0.4373 -0.5470 -0.7148
19167TIP3    H278993   5.309   6.110   0.167  0.6976 -1.1584 -1.1201
19168TIP3   OH278994   5.709   5.244   6.329 -0.0167 -0.0727 -0.1874
19168TIP3    H178995   5.793   5.222   6.289  0.0363 -1.3266  0.5705
19168TIP3    H278996   5.699   5.338   6.313  0.3416 -0.3777 -2.4729
19169TIP3   OH278997   6.437   5.442   2.439 -0.1295 -0.5902 -0.3881
19169TIP3    H178998   6.483   5.513   2.483 -0.8102  0.4496 -1.3318
19169TIP3    H278999   6.418   5.379   2.509 -1.6349  1.2630  0.9276
19170TIP3   OH279000   0.795   0.330  11.508 -0.3800  1.0412 -0.8100
19170TIP3    H179001   0.762   0.293  11.426 -2.6941 -0.1762  0.6182
19170TIP3    H279002   0.849   0.260  11.545 -1.7964  0.4365  0.1396
19171TIP3   OH279003   2.555   2.194   3.219 -0.2523 -0.4073  0.0427
19171TIP3    H179004   2.533   2.287   3.207 -0.5557 -0.5670 -0.6381
19171TIP3    H279005   2.624   2.177   3.155 -0.0981 -0.6217  0.2641
19172TIP3   OH279006   2.708   5.706  16.160 -0.2712  0.0021 -0.3168
19172TIP3    H179007   2.615   5.725  16.175  0.2021  1.3139  0.9903
19172TIP3    H279008   2.717   5.707  16.064 -1.9055 -1.7049 -0.5384
19173TIP3   OH279009   4.640   5.075   1.883  0.0327  0.1293 -0.1920
19173TIP3    H179010   4.632   5.170   1.879 -1.1052  0.2777  3.4597
19173TIP3    H279011   4.551   5.042   1.874  0.5859 -0.7266 -2.9762
19174TIP3   OH279012   6.762   1.970  16.702 -0.6857  0.3500 -0.1599
19174TIP3    H179013   6.750   2.039  16.767 -0.1429 -0.7008  1.0948
19174TIP3    H279014   6.754   1.889  16.753 -0.7352 -0.4960 -1.5033
19175TIP3   OH279015   1.659   5.769  16.575  0.5509  0.0216 -0.3809
19175TIP3    H179016   1.682   5.857  16.604 -1.1779  0.4685 -0.3178
19175TIP3    H279017   1.739   5.735  16.537  0.9135  2.0999 -1.5633
19176TIP3   OH279018   1.638   6.802   5.572 -0.2033  0.7685  0.0259
19176TIP3    H179019   1.725   6.823   5.539  0.3516 -0.7560  0.4741
19176TIP3    H279020   1.649   6.799   5.667  0.0636 -2.7327 -0.0460
19177TIP3   OH279021   5.456   4.146   3.121 -0.2412  0.4007  0.2457
19177TIP3    H179022   5.517   4.181   3.187 -1.3114 -1.5151  2.3139
19177TIP3    H279023   5.505   4.151   3.039  1.1132  2.9234  1.1385
19178TIP3   OH279024   3.140   2.679  13.278  0.2029 -0.0489 -0.2249
19178TIP3    H179025   3.069   2.615  13.289 -2.1247  2.6591  1.0914
19178TIP3    H279026   3.115   2.730  13.201  0.5974  1.0673  0.3766
19179TIP3   OH279027   4.260   0.539   2.245 -0.3328  0.1526  0.2215
19179TIP3    H179028   4.328   0.599   2.212 -0.1336 -1.3250 -2.1746
19179TIP3    H279029   4.284   0.524   2.336  2.3980 -0.0718 -0.4811
19180TIP3   OH279030   5.616   4.929   3.556 -0.1801  0.2970  0.4284
19180TIP3    H179031   5.648   4.974   3.478 -0.1389  2.0154  1.3904
19180TIP3    H279032   5.607   4.999   3.621 -2.0092 -0.8096  1.3876
19181TIP3   OH279033   2.081   2.537   5.959 -0.5795  0.0344 -0.5176
19181TIP3    H179034   2.174   2.533   5.984  0.0378  0.6246 -2.5506
19181TIP3    H279035   2.042   2.598   6.022  0.0881 -1.3422  1.2555
19182TIP3   OH279036   2.823   0.639  11.868  0.5220 -0.8034 -0.0199
19182TIP3    H179037   2.865   0.717  11.831  0.3776 -0.3730  0.7062
19182TIP3    H279038   2.741   0.672  11.907  0.3496 -1.3535  0.0936
19183TIP3   OH279039   3.974   0.340  11.873 -0.3709  0.0657  0.2070
19183TIP3    H179040   3.885   0.376  11.871 -1.0590 -1.6705 -1.6614
19183TIP3    H279041   4.022   0.393  11.808 -0.0504  0.9030  1.1078
19184TIP3   OH279042   4.146   1.071   4.655 -0.1973  0.5906 -0.6371
19184TIP3    H179043   4.240   1.055   4.671 -0.0659  0.5237 -1.4681
19184TIP3    H279044   4.142   1.164   4.631 -0.6020  1.1148  1.3656
19185TIP3   OH279045   1.233   4.707   1.896 -0.4897 -0.0441 -0.1723
19185TIP3    H179046   1.259   4.616   1.882  0.7449  0.1623  0.6884
19185TIP3    H279047   1.314   4.751   1.920 -1.4054  0.8947  1.2631
19186TIP3   OH279048   5.103   0.027   5.589 -0.4403  0.4082  0.2677
19186TIP3    H179049   5.122   0.013   5.496 -0.5480 -0.5076  0.3830
19186TIP3    H279050   5.094   0.122   5.597 -1.1162  0.4378 -0.7844
19187TIP3   OH279051   4.315   5.998  14.952 -0.0395  0.3230  0.1632
19187TIP3    H179052   4.283   6.021  15.040 -0.9006  0.4987 -0.1922
19187TIP3    H279053   4.410   6.010  14.957 -0.0204 -0.2028  1.2380
19188TIP3   OH279054   3.278   6.022  15.539 -0.6073  0.2136  0.1135
19188TIP3    H179055   3.234   6.100  15.504 -0.6208 -0.5131 -1.5172
19188TIP3    H279056   3.238   5.949  15.491  1.7559 -0.5312 -0.7777
19189TIP3   OH279057   1.491   1.377   0.401  0.1099 -0.4621 -0.7394
19189TIP3    H179058   1.546   1.455   0.397  1.7645 -1.4843  0.9572
19189TIP3    H279059   1.401   1.410   0.396  0.7682  1.5919  0.3767
19190TIP3   OH279060   0.844   4.735   4.523  0.7590 -0.5869 -0.1213
19190TIP3    H179061   0.903   4.811   4.528 -0.7037  0.6337 -1.0224
19190TIP3    H279062   0.894   4.664   4.562  2.4962  0.6388 -0.0398
19191TIP3   OH279063   1.039   4.205   5.846 -0.2017 -0.5791  0.1355
19191TIP3    H179064   0.981   4.182   5.774 -0.9976 -1.5097  1.0424
19191TIP3    H279065   0.993   4.277   5.891 -1.1640 -1.9435  1.4130
19192TIP3   OH279066   0.206   3.175   2.056 -0.0013  0.3636 -0.0668
19192TIP3    H179067   0.297   3.193   2.079  0.8064 -0.2213 -2.6111
19192TIP3    H279068   0.210   3.099   1.999 -2.0984  0.3773 -0.2918
19193TIP3   OH279069   0.860   3.594  16.717 -0.7148  0.5690 -0.2297
19193TIP3    H179070   0.838   3.555  16.632 -0.3774  0.5550 -0.3110
19193TIP3    H279071   0.942   3.642  16.701  0.0290 -0.4879  0.3973
19194TIP3   OH279072   3.554   5.669  12.603  0.2860  0.1386 -0.6049
19194TIP3    H179073   3.568   5.575  12.589 -0.8384 -0.1494  0.1684
19194TIP3    H279074   3.459   5.680  12.600  0.3235  1.0056  0.8409
19195TIP3   OH279075   0.903   3.704   6.131 -0.0529  0.0176  0.6708
19195TIP3    H179076   0.842   3.630   6.131 -0.0409  0.0097 -0.6292
19195TIP3    H279077   0.980   3.673   6.084  0.6910  0.2697  1.6879
19196TIP3   OH279078   0.458   5.338   4.646  0.3009  0.4022  0.9907
19196TIP3    H179079   0.431   5.416   4.694 -0.0557  0.2408  1.0593
19196TIP3    H279080   0.414   5.265   4.690  0.0512  0.2418  0.4908
19197TIP3   OH279081   5.204   0.421   0.593  0.6207  0.3347  0.0402
19197TIP3    H179082   5.157   0.380   0.665 -0.5673  0.6798 -0.5382
19197TIP3    H279083   5.137   0.442   0.528  1.4696  1.3938 -0.5262
19198TIP3   OH279084   5.065   3.033  14.690 -0.0152 -0.4503 -0.0854
19198TIP3    H179085   5.017   3.115  14.692 -0.4375 -0.6861 -0.4162
19198TIP3    H279086   5.157   3.059  14.689 -0.0522 -0.0312  2.8549
19199TIP3   OH279087   6.343   1.242   5.047  0.0483  0.2052  0.2044
19199TIP3    H179088   6.267   1.216   4.994  0.2369 -2.2259  1.0619
19199TIP3    H279089   6.306   1.271   5.130 -0.0409  0.7084 -0.0103
19200TIP3   OH279090   4.299   3.412   1.602 -0.4029  0.1577  0.4132
19200TIP3    H179091   4.313   3.485   1.663  0.0859 -0.9047  1.5986
19200TIP3    H279092   4.371   3.419   1.539  0.6827 -0.3232  1.5640
19201TIP3   OH279093   3.911   3.916  12.792  0.3283  0.2873  0.2928
19201TIP3    H179094   3.949   3.928  12.705 -0.2910 -0.1661 -0.0426
19201TIP3    H279095   3.833   3.971  12.792 -1.2609 -1.9040 -0.4545
19202TIP3   OH279096   2.493   5.807  14.696 -0.3731  0.4507 -0.1776
19202TIP3    H179097   2.499   5.713  14.716 -2.3841  0.5099  0.8444
19202TIP3    H279098   2.557   5.821  14.626  0.5313 -1.5223  0.2278
19203TIP3   OH279099   5.721   0.635   4.521  0.6764  0.3312 -0.2364
19203TIP3    H179100   5.682   0.646   4.434 -0.7684 -0.2345  0.3323
19203TIP3    H279101   5.772   0.715   4.534  0.3590  0.7260 -1.3212
19204TIP3   OH279102   5.041   2.850   2.563  0.3121 -0.6750 -0.0521
19204TIP3    H179103   5.089   2.847   2.481 -1.1289  0.7442 -0.9897
19204TIP3    H279104   5.091   2.910   2.619  0.1331  0.0722 -0.6883
19205TIP3   OH279105   0.849   5.508  11.372  0.0846 -0.0292 -0.2384
19205TIP3    H179106   0.892   5.518  11.287 -1.4032 -0.0920 -0.9981
19205TIP3    H279107   0.797   5.429  11.364 -0.3703  0.1804  0.5995
19206TIP3   OH279108   6.268   0.190  14.795  0.6806  0.3416  0.2604
19206TIP3    H179109   6.259   0.208  14.701  0.5175 -0.4663  0.1176
19206TIP3    H279110   6.353   0.145  14.802  0.7907  0.5943  0.5237
19207TIP3   OH279111   5.260   3.248   3.535  0.0979 -0.5384  0.2622
19207TIP3    H179112   5.331   3.254   3.471 -0.5596 -0.9851 -0.5229
19207TIP3    H279113   5.190   3.202   3.488 -1.7458  2.3707  0.0763
19208TIP3   OH279114   4.033   2.869   1.361  0.8629 -0.4056  0.3252
19208TIP3    H179115   4.086   2.842   1.436  1.7387  0.6535  0.1022
19208TIP3    H279116   3.968   2.929   1.398 -0.0463 -1.5060  0.5569
19209TIP3   OH279117   6.491   1.386  14.571 -0.2157  0.1817 -0.2913
19209TIP3    H179118   6.559   1.414  14.632 -1.0315 -0.9849  1.2008
19209TIP3    H279119   6.534   1.325  14.511 -0.2791 -1.9153  1.7199
19210TIP3   OH279120   5.205   6.808   4.125 -0.1994 -0.2764 -0.3452
19210TIP3    H179121   5.210   6.895   4.163 -0.8956  1.1381 -3.3012
19210TIP3    H279122   5.135   6.765   4.173  0.4078  0.6582  1.4018
19211TIP3   OH279123   6.126   5.472  15.159 -0.0947 -0.0444  0.0090
19211TIP3    H179124   6.129   5.401  15.095  2.5125  1.9955 -2.2528
19211TIP3    H279125   6.168   5.436  15.237 -0.5465 -1.5809 -0.4339
19212TIP3   OH279126   1.195   5.441   1.252  0.6847 -0.3808 -0.5566
19212TIP3    H179127   1.260   5.512   1.258  0.8939 -0.4178 -2.1727
19212TIP3    H279128   1.134   5.459   1.323  0.4526  1.7367 -1.2466
19213TIP3   OH279129   6.748   3.440   0.305 -0.2821  0.4967  0.3420
19213TIP3    H179130   6.743   3.529   0.271 -0.2289  0.4937  0.3265
19213TIP3    H279131   6.830   3.405   0.268 -1.5451 -0.3982 -1.7162
19214TIP3   OH279132   2.678   6.198  12.241 -0.4868  0.6560  0.2074
19214TIP3    H179133   2.584   6.213  12.245 -1.1988 -2.6440 -2.2471
19214TIP3    H279134   2.696   6.177  12.149  2.7715  1.7301  0.5075
19215TIP3   OH279135   5.802   2.171   2.692  0.1028 -0.0634 -1.0422
19215TIP3    H179136   5.894   2.165   2.666  0.3535 -0.3241 -0.1142
19215TIP3    H279137   5.805   2.190   2.785 -0.7846  1.9303 -1.3980
19216TIP3   OH279138   0.438   1.378  11.195 -0.5047  0.3014 -0.2151
19216TIP3    H179139   0.456   1.454  11.249 -1.9271 -0.3593  1.2281
19216TIP3    H279140   0.368   1.406  11.137  0.4863  0.7661 -1.2033
19217TIP3   OH279141   4.113   2.666  13.190 -0.0772  0.1017  0.0044
19217TIP3    H179142   4.178   2.736  13.203 -0.2042  0.2031  0.1054
19217TIP3    H279143   4.132   2.603  13.260  0.0796  0.0023 -0.1259
19218TIP3   OH279144   4.657   2.728   3.190  0.4475  0.1111  0.5357
19218TIP3    H179145   4.652   2.688   3.103 -1.1443 -0.8243  1.0244
19218TIP3    H279146   4.705   2.665   3.244 -1.2587 -0.7791  1.0747
19219TIP3   OH279147   1.112   4.348  10.983 -0.2342  0.1303 -0.1358
19219TIP3    H179148   1.118   4.441  10.960  1.4226  0.7658  2.5440
19219TIP3    H279149   1.168   4.303  10.920  3.9354  1.7588  2.1548
19220TIP3   OH279150   3.193   2.235   1.491 -0.1488 -0.4395  0.1824
19220TIP3    H179151   3.219   2.297   1.560 -0.9123  1.8708 -1.5499
19220TIP3    H279152   3.265   2.237   1.428 -0.7187 -0.3942 -0.4784
19221TIP3   OH279153   5.929   5.977  11.227  0.2051  0.1933 -0.3130
19221TIP3    H179154   6.015   6.009  11.200 -0.0226  0.7018 -0.4385
19221TIP3    H279155   5.868   6.047  11.202 -0.2423 -0.1580 -0.2136
19222TIP3   OH279156   4.427   6.286   2.064  0.5388  0.2841  0.6897
19222TIP3    H179157   4.458   6.203   2.101  0.2575  0.1032  0.5268
19222TIP3    H279158   4.495   6.312   2.002 -0.4322 -0.9926 -0.9444
19223TIP3   OH279159   2.373   5.908   3.047 -0.3284  0.1721  0.8034
19223TIP3    H179160   2.392   5.978   3.110  1.6166 -0.5822  1.1044
19223TIP3    H279161   2.290   5.870   3.078  0.4004  0.0720  2.6966
19224TIP3   OH279162   4.832   3.750   4.332  0.0547 -0.0566 -0.3323
19224TIP3    H179163   4.801   3.816   4.394 -1.3096 -0.9989  0.0314
19224TIP3    H279164   4.752   3.704   4.305  1.0909 -2.3346  0.3693
19225TIP3   OH279165   3.260   1.527   0.706 -0.0974 -0.3528 -0.3271
19225TIP3    H179166   3.168   1.550   0.724 -0.4223 -2.9729  1.5663
19225TIP3    H279167   3.257   1.481   0.623 -0.4389 -0.0840 -0.4658
19226TIP3   OH279168   1.465   4.448   2.268 -0.2007  0.9633  0.3924
19226TIP3    H179169   1.508   4.363   2.283 -1.0200  0.2185 -1.4157
19226TIP3    H279170   1.526   4.496   2.213 -0.5532  0.8703 -0.0754
19227TIP3   OH279171   1.639   5.263   3.092  0.3795  0.1210  0.1883
19227TIP3    H179172   1.647   5.253   2.997 -0.9254  0.6268  0.0179
19227TIP3    H279173   1.635   5.357   3.105  1.0167  0.0661  0.7946
19228TIP3   OH279174   5.945   0.404  12.582 -0.2269  0.2846  0.0799
19228TIP3    H179175   5.964   0.357  12.664  1.0173 -1.3017 -1.0941
19228TIP3    H279176   5.857   0.374  12.557  1.1170 -2.6276 -1.4224
19229TIP3   OH279177   4.748   5.010   3.173 -0.4577 -0.2785 -0.3523
19229TIP3    H179178   4.693   5.003   3.094 -0.1062 -0.6788 -0.5661
19229TIP3    H279179   4.835   5.031   3.139 -0.5110  0.5257 -0.0027
19230TIP3   OH279180   5.012   3.402  14.149 -0.4133 -0.4075 -0.7265
19230TIP3    H179181   5.029   3.318  14.192  1.0517  0.6086  0.7369
19230TIP3    H279182   4.962   3.452  14.214 -0.1702  0.3156 -1.0918
19231TIP3   OH279183   2.886   4.553  16.851 -0.5947  0.6259 -0.2836
19231TIP3    H179184   2.810   4.529  16.799 -1.2326 -1.6509  1.6062
19231TIP3    H279185   2.851   4.569  16.939  0.9816  0.4104  0.4049
19232TIP3   OH279186   5.840   5.063  16.695  0.4641 -0.4480  0.1087
19232TIP3    H179187   5.824   5.036  16.604 -0.0197 -1.0005  0.3521
19232TIP3    H279188   5.833   4.982  16.745  0.0289 -0.0224  0.7318
19233TIP3   OH279189   2.986   5.910  14.760  0.0809  0.3484 -0.7058
19233TIP3    H179190   2.929   5.981  14.788 -0.6489 -0.9545  1.2516
19233TIP3    H279191   3.074   5.939  14.782 -0.1215  1.0132 -0.7614
19234TIP3   OH279192   0.214   1.729  14.597 -0.8279  0.1265  0.4159
19234TIP3    H179193   0.175   1.761  14.515 -0.3553 -1.1339 -0.3264
19234TIP3    H279194   0.154   1.661  14.627 -0.0912 -0.6525  0.1567
19235TIP3   OH279195   3.109   6.221  14.929  0.0278 -1.5897  1.2855
19235TIP3    H179196   3.058   6.205  14.849  0.4078  1.4705  0.3702
19235TIP3    H279197   3.046   6.262  14.989  1.1862  1.9517  0.2509
19236TIP3   OH279198   3.564   5.041   4.235 -0.2176 -0.0029  0.0070
19236TIP3    H179199   3.547   4.959   4.188 -0.2758  0.1910 -0.3136
19236TIP3    H279200   3.575   5.106   4.165  1.0441  0.0323  0.2350
19237TIP3   OH279201   5.700   3.023   4.133  0.1825 -0.3552  0.5086
19237TIP3    H179202   5.654   2.957   4.185  0.5768 -0.9043  0.1559
19237TIP3    H279203   5.649   3.103   4.146 -2.2446 -1.4712 -1.7454
19238TIP3   OH279204   1.139   3.998   2.338 -0.0976  0.6861 -0.1782
19238TIP3    H179205   1.132   3.980   2.432  1.1920  0.5367 -0.0946
19238TIP3    H279206   1.088   4.078   2.325  0.7901  1.4521  0.9009
19239TIP3   OH279207   6.256   2.857   1.095 -1.2348  0.0921  0.2981
19239TIP3    H179208   6.312   2.930   1.122 -0.4530 -0.4150  0.0781
19239TIP3    H279209   6.241   2.871   1.002  1.6130 -1.7355 -0.5281
19240TIP3   OH279210   6.381   5.833   2.744  0.2230  0.6333 -0.0038
19240TIP3    H179211   6.292   5.840   2.776  0.2096 -0.5747  0.2413
19240TIP3    H279212   6.392   5.909   2.686 -0.7758  1.0745  0.3820
19241TIP3   OH279213   2.331   6.167   4.500 -0.6112  0.5595 -0.5167
19241TIP3    H179214   2.280   6.230   4.551 -0.7178 -0.7265  0.9678
19241TIP3    H279215   2.321   6.084   4.546  3.5602  0.4518  0.3377
19242TIP3   OH279216   0.265   3.830  11.385 -0.5038 -0.1430 -0.2132
19242TIP3    H179217   0.292   3.892  11.453 -0.0204  0.3841 -0.8801
19242TIP3    H279218   0.314   3.857  11.308  1.6471 -2.9154  0.1120
19243TIP3   OH279219   0.040   0.049   2.538 -0.5454  0.2293 -0.4130
19243TIP3    H179220   0.056   0.113   2.469  2.1346 -0.3792 -0.4319
19243TIP3    H279221  -0.008   0.096   2.605 -0.9473  1.5188 -1.5999
19244TIP3   OH279222   3.586   1.010  15.590  0.0605 -0.2515 -0.6524
19244TIP3    H179223   3.627   1.040  15.671 -0.2218  1.1804 -1.0421
19244TIP3    H279224   3.578   1.088  15.536  0.6643 -1.2858 -2.2580
19245TIP3   OH279225   4.411   3.024  15.806  0.3163 -0.7750 -0.1979
19245TIP3    H179226   4.426   2.937  15.770  0.0439 -1.1358  0.5740
19245TIP3    H279227   4.475   3.033  15.877 -1.2491 -1.2747  1.3102
19246TIP3   OH279228   4.945   1.171   0.366  0.4409 -0.3593  0.0708
19246TIP3    H179229   4.891   1.234   0.318  0.5328 -0.4176 -0.1090
19246TIP3    H279230   5.022   1.220   0.394 -0.2773  0.0423  1.3929
19247TIP3   OH279231   0.596   4.688   4.432  0.0797 -0.0432  0.1763
19247TIP3    H179232   0.632   4.640   4.357  0.3770 -1.6368  1.3025
19247TIP3    H279233   0.670   4.739   4.466 -0.1422  0.9570 -0.7998
19248TIP3   OH279234   3.447   0.093   3.214  0.2313 -0.5057  0.0531
19248TIP3    H179235   3.470   0.157   3.147 -0.7442 -0.0132  0.1868
19248TIP3    H279236   3.507   0.020   3.199  0.5706 -0.0502 -0.8258
19249TIP3   OH279237   2.874   4.062   5.640  0.5878  0.0283 -0.1229
19249TIP3    H179238   2.782   4.044   5.660  0.3246  0.7510 -0.6529
19249TIP3    H279239   2.876   4.072   5.545  0.7854  2.3445  0.0902
19250TIP3   OH279240   5.411   6.262  16.446  0.1153  0.1734  0.0427
19250TIP3    H179241   5.426   6.218  16.362  2.0737  2.3639 -0.7879
19250TIP3    H279242   5.492   6.309  16.463 -0.6872  0.6760  2.6350
19251TIP3   OH279243   3.788   6.559  11.906  0.1415 -0.1401 -0.2063
19251TIP3    H179244   3.834   6.520  11.831 -2.3714  1.2145 -2.5480
19251TIP3    H279245   3.696   6.540  11.889 -0.5781  1.3713  1.8862
19252TIP3   OH279246   6.731   4.254  12.114 -0.1521 -0.2500  0.4604
19252TIP3    H179247   6.653   4.306  12.096  1.4273  1.5183 -1.4773
19252TIP3    H279248   6.706   4.198  12.188 -2.6634  1.5161  1.0065
19253TIP3   OH279249   0.799   0.367   0.901  0.2364 -0.1620 -0.1886
19253TIP3    H179250   0.796   0.430   0.828 -0.4881 -0.0336 -0.0567
19253TIP3    H279251   0.707   0.346   0.917  0.5258 -2.2554 -1.0893
19254TIP3   OH279252   5.172   3.506   3.525  0.3234  0.5572  0.4250
19254TIP3    H179253   5.236   3.571   3.496  1.8642 -0.4935  1.3748
19254TIP3    H279254   5.209   3.422   3.498 -0.6694 -0.0538  0.9418
19255TIP3   OH279255   1.147   5.151  17.065 -0.2989 -0.1536 -0.0121
19255TIP3    H179256   1.124   5.241  17.042  0.1195  0.1989  0.9222
19255TIP3    H279257   1.236   5.140  17.032  0.3450  0.3903  1.5146
19256TIP3   OH279258   0.035   6.517  15.336  0.0069  0.0719 -0.5570
19256TIP3    H179259   0.055   6.453  15.267  1.1707 -0.9219  0.6908
19256TIP3    H279260  -0.016   6.468  15.400 -0.1511  0.7197 -0.1874
19257TIP3   OH279261   1.551   5.855   0.883 -0.3694 -0.2839 -0.5196
19257TIP3    H179262   1.472   5.813   0.915 -1.3086 -0.2593 -2.7889
19257TIP3    H279263   1.526   5.947   0.872  0.4456  0.0444  0.3049
19258TIP3   OH279264   4.116   0.834   5.271 -0.2116  0.5827  0.2504
19258TIP3    H179265   4.080   0.861   5.356 -0.4035 -2.4070  1.1953
19258TIP3    H279266   4.210   0.850   5.278 -0.0574 -0.7244  1.5257
19259TIP3   OH279267   5.781   6.556   2.499  0.6677  0.3767  0.2941
19259TIP3    H179268   5.824   6.471   2.512  0.8711  0.1481 -1.7004
19259TIP3    H279269   5.739   6.549   2.414  1.9958  2.8051 -0.6222
19260TIP3   OH279270   0.143   3.909   1.232  0.2236 -0.2582 -0.1544
19260TIP3    H179271   0.091   3.940   1.307 -1.6138 -0.0304 -1.4865
19260TIP3    H279272   0.188   3.987   1.200  2.1150 -0.6109  1.5142
19261TIP3   OH279273   3.521   2.606   2.437  0.1121  0.5172 -0.5294
19261TIP3    H179274   3.590   2.583   2.374  0.1669  2.1347 -1.0873
19261TIP3    H279275   3.527   2.539   2.504  1.9151  0.3387 -0.8358
19262TIP3   OH279276   1.389   3.295   5.551 -0.0752  0.6572 -0.0337
19262TIP3    H179277   1.460   3.290   5.615  0.5342 -1.6548 -0.8432
19262TIP3    H279278   1.410   3.371   5.498  1.7785  0.0495 -0.2034
19263TIP3   OH279279   4.507   2.284   3.851 -0.5312  0.0308 -0.1452
19263TIP3    H179280   4.563   2.300   3.775  0.4747 -2.0774  0.1310
19263TIP3    H279281   4.529   2.356   3.911 -0.0063  0.6821 -1.0943
19264TIP3   OH279282   1.660   4.234   0.255 -0.2162  0.0496 -0.2667
19264TIP3    H179283   1.685   4.316   0.212 -2.1472  0.8145  0.0143
19264TIP3    H279284   1.656   4.170   0.184  0.1218  0.4715 -0.6709
19265TIP3   OH279285   0.061   6.222   5.093  0.0493  0.1863  0.1805
19265TIP3    H179286   0.128   6.155   5.085  1.6523  1.6159  1.3470
19265TIP3    H279287   0.107   6.298   5.129 -1.7301  1.9115 -1.1054
19266TIP3   OH279288   3.249   5.438  15.652 -0.2566 -0.1474  0.5043
19266TIP3    H179289   3.168   5.405  15.613 -1.4504  0.5501  2.3322
19266TIP3    H279290   3.228   5.528  15.677  1.7689  0.7716 -0.9719
19267TIP3   OH279291   2.662   0.012  12.618  0.3282  0.2285  0.0631
19267TIP3    H179292   2.749   0.043  12.643  0.7234 -0.3794 -0.5516
19267TIP3    H279293   2.678  -0.068  12.568 -0.6313 -0.3340  0.6554
19268TIP3   OH279294   0.117   4.620   3.395 -0.2294 -0.2135  0.7382
19268TIP3    H179295   0.063   4.555   3.440 -0.1561 -0.2847  0.7218
19268TIP3    H279296   0.126   4.691   3.459 -2.6524  1.0266 -0.2290
19269TIP3   OH279297   6.783   5.811  13.011 -0.3613  0.2866 -0.2674
19269TIP3    H179298   6.853   5.760  13.050  0.9912  0.5708 -2.2376
19269TIP3    H279299   6.703   5.760  13.029  0.5937 -1.0146  0.3411
19270TIP3   OH279300   4.682   3.564  14.536  0.1942  0.0351  0.0322
19270TIP3    H179301   4.619   3.626  14.574 -1.3327 -1.0917 -0.6131
19270TIP3    H279302   4.683   3.490  14.596  0.4246 -0.2330 -0.3017
19271TIP3   OH279303   0.012   5.108  13.961  0.4514 -0.2573 -0.6286
19271TIP3    H179304   0.001   5.171  14.032 -2.8824 -2.1413  0.6431
19271TIP3    H279305  -0.049   5.138  13.893 -0.6488 -1.6617 -0.2922
19272TIP3   OH279306   6.726   0.308  15.876  0.0226  0.6039 -0.4384
19272TIP3    H179307   6.736   0.234  15.816  2.3746  1.6109 -1.3490
19272TIP3    H279308   6.631   0.322  15.881 -0.3485 -1.2695 -1.7237
19273TIP3   OH279309   2.234   5.433   4.913  0.0828  0.1255  0.4669
19273TIP3    H179310   2.296   5.408   4.981  0.3824 -1.3413 -0.3218
19273TIP3    H279311   2.287   5.438   4.833 -0.6862 -0.5996 -0.1094
19274TIP3   OH279312   1.975   3.176   1.757  0.0945 -0.0721 -0.1657
19274TIP3    H179313   2.027   3.220   1.825 -1.1647 -1.3920  1.7340
19274TIP3    H279314   2.038   3.127   1.706  1.1920  1.7304 -0.5837
19275TIP3   OH279315   6.479   6.796   2.779 -0.5929 -0.2110  0.0090
19275TIP3    H179316   6.385   6.775   2.778 -0.2140 -2.1662  1.8377
19275TIP3    H279317   6.485   6.876   2.830 -1.1970 -0.5265  0.5868
19276TIP3   OH279318   4.727   4.889  10.398  0.5446 -0.6121  0.0213
19276TIP3    H179319   4.693   4.959  10.455 -0.3533 -0.8228 -0.2520
19276TIP3    H279320   4.664   4.884  10.326 -0.2504 -2.7395  0.8304
19277TIP3   OH279321   6.655   1.454  12.356  0.2774  0.4566 -0.3467
19277TIP3    H179322   6.733   1.438  12.303  1.0336  0.1735  0.8296
19277TIP3    H279323   6.669   1.541  12.392  1.6437 -0.8893  2.5174
19278TIP3   OH279324   1.146   4.848  16.504 -0.3268  0.1273 -0.6633
19278TIP3    H179325   1.063   4.818  16.468 -0.6680  1.0319 -0.6307
19278TIP3    H279326   1.211   4.821  16.439 -0.6054 -0.8714 -0.5295
19279TIP3   OH279327   5.696   6.511  15.957 -0.2690  0.0927  0.5021
19279TIP3    H179328   5.620   6.568  15.941 -0.5823 -0.2227  0.8723
19279TIP3    H279329   5.740   6.551  16.033 -0.1276  0.2073  0.3607
19280TIP3   OH279330   5.330   5.298   4.985 -0.1563  0.2270  0.5139
19280TIP3    H179331   5.402   5.238   4.963  0.2558  0.5419  1.0046
19280TIP3    H279332   5.256   5.267   4.931  0.2558 -0.2820  0.2338
19281TIP3   OH279333   4.242   6.252  16.713 -0.6450  0.1979  0.1184
19281TIP3    H179334   4.235   6.193  16.788  0.1913  0.5151  0.4455
19281TIP3    H279335   4.303   6.208  16.653 -1.7181 -0.3125 -0.6337
19282TIP3   OH279336   5.743   1.784   0.035 -0.0867  0.3365  0.0575
19282TIP3    H179337   5.722   1.794  -0.058  0.4187  0.4874 -0.0432
19282TIP3    H279338   5.831   1.749   0.036 -0.5409 -0.7990  0.4768
19283TIP3   OH279339   6.182   0.202  10.657  0.0544  0.3856 -0.0636
19283TIP3    H179340   6.158   0.290  10.687 -1.6095 -0.0332 -0.0949
19283TIP3    H279341   6.154   0.200  10.565  2.6289  0.7363 -0.9015
19284TIP3   OH279342   2.185   1.751  14.361 -0.0617  0.1888  0.2827
19284TIP3    H179343   2.144   1.790  14.439  0.2492  1.6941 -0.2790
19284TIP3    H279344   2.222   1.826  14.314  1.2538 -0.8887 -0.4429
19285TIP3   OH279345   0.626   5.000   3.604 -0.1899 -0.1215 -0.0942
19285TIP3    H179346   0.657   5.085   3.636 -1.9187  0.5716 -0.2094
19285TIP3    H279347   0.619   4.946   3.683  2.5661 -0.7450 -0.2122
19286TIP3   OH279348   2.609   5.473  15.467 -0.6376  0.2013  0.0370
19286TIP3    H179349   2.681   5.506  15.412  0.4486 -2.9487 -0.5588
19286TIP3    H279350   2.543   5.542  15.464  1.0229  1.7786 -2.0832
19287TIP3   OH279351   0.303   1.012  16.199  0.2669 -0.4563  0.3950
19287TIP3    H179352   0.357   1.014  16.278  0.4417  1.0986  0.2489
19287TIP3    H279353   0.263   1.099  16.196 -0.0167 -0.6339 -1.0319
19288TIP3   OH279354   2.407   6.437   2.075 -0.4694  0.2765  0.1242
19288TIP3    H179355   2.369   6.478   1.997  0.5123 -0.8871 -0.9891
19288TIP3    H279356   2.363   6.353   2.082 -2.3094  1.3849  2.2773
19289TIP3   OH279357   5.794   2.211   1.786  0.7455  0.1376  0.3245
19289TIP3    H179358   5.848   2.145   1.830 -1.0392 -2.3410 -1.0565
19289TIP3    H279359   5.720   2.224   1.845  0.8994  0.6170  0.4112
19290TIP3   OH279360   5.647   1.113  11.064 -0.0364  0.1026 -0.5004
19290TIP3    H179361   5.714   1.107  11.132 -1.2671  1.6423  0.8856
19290TIP3    H279362   5.669   1.191  11.014  0.3555 -0.5305 -1.3330
19291TIP3   OH279363   6.015   2.810   0.833  0.1537 -0.1936  0.3621
19291TIP3    H179364   5.948   2.865   0.874  0.0698  1.0813 -1.4351
19291TIP3    H279365   5.981   2.721   0.841  0.4103 -0.0795  3.5574
19292TIP3   OH279366   2.940   6.078   6.014  0.4813 -0.2750  0.8771
19292TIP3    H179367   2.904   6.009   6.070 -0.2867  0.0591  0.8072
19292TIP3    H279368   2.956   6.151   6.074 -3.9170  1.4545  0.1475
19293TIP3   OH279369   4.074   5.211   2.811  0.3980  1.1287  0.1384
19293TIP3    H179370   4.041   5.165   2.888 -2.1703  2.5405 -0.0815
19293TIP3    H279371   4.078   5.144   2.743  1.5751  0.1284  1.1820
19294TIP3   OH279372   3.591   0.094  15.462  0.3122  0.3112 -0.0872
19294TIP3    H179373   3.621   0.181  15.435  2.7657 -1.1736 -2.3948
19294TIP3    H279374   3.628   0.082  15.549 -0.2786  1.6534  0.3743
19295TIP3   OH279375   6.552   1.772   5.144  0.4028  0.2192 -0.3886
19295TIP3    H179376   6.580   1.707   5.209  0.7400 -0.5770 -1.3160
19295TIP3    H279377   6.633   1.806   5.107  0.1886 -0.9148 -1.9292
19296TIP3   OH279378   1.598   5.723  11.239 -0.4965 -0.0310  0.4575
19296TIP3    H179379   1.535   5.678  11.294 -0.5049 -0.3174  0.2129
19296TIP3    H279380   1.567   5.709  11.149 -2.1785  2.9828  0.5116
19297TIP3   OH279381   1.277   3.578  12.032  0.1957 -0.1629  0.1437
19297TIP3    H179382   1.234   3.646  12.084 -0.3574 -1.0085  0.7970
19297TIP3    H279383   1.277   3.613  11.943 -0.8399  0.3317  0.3315
19298TIP3   OH279384   0.466   6.361  11.453 -0.4053  0.2846 -0.4233
19298TIP3    H179385   0.388   6.385  11.503 -0.8245 -0.8259 -0.5302
19298TIP3    H279386   0.439   6.366  11.361 -0.8055 -1.5218 -0.4354
19299TIP3   OH279387   1.282   4.643  14.671 -0.6668 -0.2543  0.1520
19299TIP3    H179388   1.364   4.619  14.627 -1.4537 -0.6365 -1.1485
19299TIP3    H279389   1.303   4.723  14.718  0.6778 -0.8083  0.5228
19300TIP3   OH279390   2.893   2.913  14.675  0.4405  0.8402 -0.1320
19300TIP3    H179391   2.955   2.939  14.743 -0.1698  2.6118 -0.2136
19300TIP3    H279392   2.944   2.858  14.616  1.5227  0.9784  0.6584
19301TIP3   OH279393   5.301   4.621  12.674  0.0268 -0.2599 -0.0536
19301TIP3    H179394   5.393   4.647  12.680  0.2211 -1.2964  1.6201
19301TIP3    H279395   5.268   4.627  12.764 -1.2887 -0.8451 -0.4814
19302TIP3   OH279396   5.041   5.734  13.622  0.3841  0.1448 -0.7505
19302TIP3    H179397   5.072   5.731  13.712 -1.2280  0.1236 -0.1789
19302TIP3    H279398   5.092   5.804  13.581  0.2676  0.9735  0.5000
19303TIP3   OH279399   2.182   1.458   3.025 -0.4626 -0.0948  0.3554
19303TIP3    H179400   2.239   1.480   2.952 -0.4465  0.2235  0.4646
19303TIP3    H279401   2.115   1.402   2.986 -0.0722 -0.4777  0.2307
19304TIP3   OH279402   2.342   3.032   3.990 -0.6380  0.2978 -0.1857
19304TIP3    H179403   2.269   2.998   4.041 -0.1922 -1.9650 -1.0048
19304TIP3    H279404   2.309   3.039   3.900  0.2256 -1.0760 -0.6301
19305TIP3   OH279405   6.575   1.627   5.351  0.2475  0.0397  0.2742
19305TIP3    H179406   6.615   1.540   5.341 -2.8541 -1.7562  2.8176
19305TIP3    H279407   6.611   1.661   5.433  0.2234  0.4641  0.1104
19306TIP3   OH279408   2.876   3.871   3.484  0.3150 -0.2150  0.4113
19306TIP3    H179409   2.816   3.854   3.556  0.4952 -1.2511  0.3323
19306TIP3    H279410   2.836   3.829   3.408  0.2229  0.7019 -0.0465
19307TIP3   OH279411   4.785   5.152   0.779 -0.6884 -0.0478 -0.4248
19307TIP3    H179412   4.814   5.220   0.840 -1.3824  0.7449 -0.9641
19307TIP3    H279413   4.692   5.139   0.801 -1.2774  1.1507 -2.1417
19308TIP3   OH279414   0.805   2.999   6.742 -0.6180 -0.1636 -0.0793
19308TIP3    H179415   0.773   3.023   6.655 -1.1391  0.7072  0.3446
19308TIP3    H279416   0.731   3.018   6.801 -0.7781 -2.0882  0.3775
19309TIP3   OH279417   2.312   4.269   5.233  0.3256  0.2271  0.1026
19309TIP3    H179418   2.315   4.337   5.300  0.2073  2.3444 -1.9582
19309TIP3    H279419   2.220   4.241   5.232  0.1293  0.8465  0.2315
19310TIP3   OH279420   1.953   2.658   2.756 -0.0619  0.0924  0.1428
19310TIP3    H179421   1.977   2.594   2.689  1.1843  0.7228 -0.0305
19310TIP3    H279422   1.858   2.663   2.752 -0.1934 -1.9912  0.3876
19311TIP3   OH279423   3.697   2.004   6.205  0.1022 -0.1790  0.6384
19311TIP3    H179424   3.723   2.066   6.273 -0.5046 -0.5384  1.1957
19311TIP3    H279425   3.733   1.920   6.234 -0.2260 -0.3477  0.5517
19312TIP3   OH279426   6.427   2.365  12.841  0.3880  0.1641  0.1088
19312TIP3    H179427   6.505   2.412  12.872  1.1604 -0.9103 -0.1658
19312TIP3    H279428   6.373   2.354  12.919  0.7511  0.4445  0.4046
19313TIP3   OH279429   4.265   0.213  15.606 -0.3021  0.4099 -0.4216
19313TIP3    H179430   4.268   0.118  15.618  0.6247  0.5880  0.8975
19313TIP3    H279431   4.232   0.247  15.689  0.5131  1.3193 -0.4584
19314TIP3   OH279432   1.285   0.504  14.744 -0.1186  0.1277 -0.5784
19314TIP3    H179433   1.266   0.590  14.782 -1.1183 -0.0344 -0.6955
19314TIP3    H279434   1.376   0.487  14.767  0.0588  1.1797 -0.4757
19315TIP3   OH279435   5.800   6.542  12.306 -0.5326  0.0545 -0.0209
19315TIP3    H179436   5.878   6.597  12.294 -1.8200  1.7568 -0.8660
19315TIP3    H279437   5.833   6.453  12.302  1.6966  0.7477  1.8478
19316TIP3   OH279438   0.551   4.155   2.763 -0.0313 -0.0150  0.6802
19316TIP3    H179439   0.606   4.230   2.746  0.7606 -0.7890 -0.2147
19316TIP3    H279440   0.493   4.183   2.834 -1.4603  2.2973 -1.3310
19317TIP3   OH279441   0.348   2.766   2.852 -0.0361  0.1434  0.3886
19317TIP3    H179442   0.263   2.757   2.896  0.3606  0.7052  1.2686
19317TIP3    H279443   0.361   2.860   2.844 -0.0790  0.0474 -0.9005
19318TIP3   OH279444   5.496   4.059  17.061 -0.6221  0.1100  0.0958
19318TIP3    H179445   5.530   4.050  16.971  0.7501  0.8246  0.5210
19318TIP3    H279446   5.494   3.970  17.095 -0.8339 -0.1308 -0.5317
19319TIP3   OH279447   2.518   2.180  16.644 -0.5929 -0.1465  0.1726
19319TIP3    H179448   2.602   2.186  16.599 -0.6500 -0.3800  0.0357
19319TIP3    H279449   2.456   2.150  16.578 -0.8333  0.2462  0.2140
19320TIP3   OH279450   6.066   6.626   6.061 -0.1439 -0.5654  0.0874
19320TIP3    H179451   6.146   6.599   6.107  0.4027  0.4525 -0.2435
19320TIP3    H279452   6.097   6.656   5.975 -0.8962 -0.2936 -0.0911
19321TIP3   OH279453   5.788   0.377  15.006  0.3510  0.0227 -0.0414
19321TIP3    H179454   5.873   0.400  14.968  1.4169 -2.0446  1.0236
19321TIP3    H279455   5.771   0.445  15.071  0.3495  1.3913 -1.4167
19322TIP3   OH279456   3.947   5.607   0.169  0.2039  0.1466 -0.2421
19322TIP3    H179457   3.858   5.573   0.163 -0.1860  0.9395  0.9675
19322TIP3    H279458   4.001   5.530   0.190 -0.5397  0.0840  1.5191
19323TIP3   OH279459   1.063   6.362   3.856  0.1875 -0.0844  0.7385
19323TIP3    H179460   1.117   6.290   3.887 -1.9355 -2.4667 -0.9407
19323TIP3    H279461   1.095   6.380   3.767 -0.5836 -0.2643  0.4247
19324TIP3   OH279462   3.876   5.474  16.543  0.1159 -0.0952  0.2933
19324TIP3    H179463   3.955   5.521  16.513  0.2848 -1.4187 -1.3844
19324TIP3    H279464   3.906   5.423  16.618  1.0925 -1.3097 -0.9070
19325TIP3   OH279465   2.629   1.407   4.623 -0.0581  0.3068 -0.1161
19325TIP3    H179466   2.704   1.368   4.669  0.9192  1.3667 -0.7582
19325TIP3    H279467   2.609   1.345   4.553  0.0241 -0.1273  0.2405
19326TIP3   OH279468   2.355   3.723   1.708  0.1813  0.6443  0.2612
19326TIP3    H179469   2.286   3.657   1.703  0.5016  0.2087  1.3339
19326TIP3    H279470   2.374   3.746   1.617 -0.8916  0.2631 -0.0637
19327TIP3   OH279471   3.473   0.111  13.809 -0.9455 -0.0446 -0.4933
19327TIP3    H179472   3.393   0.086  13.763 -1.6159  0.2903  0.4957
19327TIP3    H279473   3.530   0.145  13.740 -1.1366 -1.5306 -1.4076
19328TIP3   OH279474   2.835   2.992  13.254  0.0869 -0.0790  0.2800
19328TIP3    H179475   2.766   3.027  13.198  0.3919  0.8295  0.4605
19328TIP3    H279476   2.899   2.955  13.193 -0.1879 -0.2342  0.0846
19329TIP3   OH279477   1.978   1.238  15.095 -0.2641  0.4420 -0.5972
19329TIP3    H179478   2.027   1.297  15.153 -0.5197  1.0766 -1.0230
19329TIP3    H279479   1.966   1.288  15.015 -0.9019 -0.0192 -0.7891
19330TIP3   OH279480   4.467   1.676  14.956 -0.4602  0.7073 -0.2468
19330TIP3    H179481   4.461   1.615  14.882 -2.7032 -0.0356  0.5239
19330TIP3    H279482   4.560   1.676  14.980 -0.3683 -2.1087 -0.5011
19331TIP3   OH279483   2.089   1.910   5.010 -0.3745 -0.2359 -0.6144
19331TIP3    H179484   2.081   1.924   5.105 -3.0380  1.3213 -1.0065
19331TIP3    H279485   2.025   1.841   4.991  1.0924 -1.4658 -1.0952
19332TIP3   OH279486   5.697   2.703   5.336 -0.5100 -0.0835 -0.1066
19332TIP3    H179487   5.753   2.774   5.304 -1.1735  0.3757 -0.2467
19332TIP3    H279488   5.740   2.674   5.416  0.6433 -0.6013 -0.8957
19333TIP3   OH279489   4.336   0.780  11.592  0.1983 -0.2845 -0.0510
19333TIP3    H179490   4.392   0.855  11.572 -2.1840  1.6975  0.5072
19333TIP3    H279491   4.334   0.776  11.688  0.9060 -1.5561 -0.0736
19334TIP3   OH279492   2.610   4.392   3.216  0.0075 -0.2670 -0.1458
19334TIP3    H179493   2.564   4.350   3.144  1.2512 -0.2478 -0.9625
19334TIP3    H279494   2.593   4.336   3.291  0.9265 -1.7427 -1.0365
19335TIP3   OH279495   5.222   0.798  12.667 -1.0783  0.0516  0.0012
19335TIP3    H179496   5.284   0.730  12.694 -2.3429 -0.6386  1.3099
19335TIP3    H279497   5.167   0.812  12.745 -2.0725  1.1726 -0.8803
19336TIP3   OH279498   0.749   5.375   2.341 -0.5573 -0.1608 -0.0769
19336TIP3    H179499   0.697   5.438   2.291 -0.2603  0.9461  0.9899
19336TIP3    H279500   0.801   5.329   2.275 -2.3938 -0.8351 -1.1049
19337TIP3   OH279501   3.097   2.713  11.298 -0.0119 -0.8764 -0.1789
19337TIP3    H179502   3.104   2.758  11.214 -0.1933 -0.8840 -0.2001
19337TIP3    H279503   3.178   2.733  11.344 -0.8555  1.0256  0.5715
19338TIP3   OH279504   6.519   2.108  14.105  0.5058 -0.4857 -0.0804
19338TIP3    H179505   6.525   2.196  14.140 -1.2660  0.2494 -1.5195
19338TIP3    H279506   6.515   2.120  14.010  0.2864 -2.0995 -0.2935
19339TIP3   OH279507   0.632   1.484   4.695  0.8411  0.5369  0.4509
19339TIP3    H179508   0.726   1.488   4.674  1.1550  0.0439  1.6781
19339TIP3    H279509   0.603   1.400   4.658  1.4830 -0.5221  2.2754
19340TIP3   OH279510   1.248   4.736   2.718 -0.6264  0.6533 -0.4958
19340TIP3    H179511   1.164   4.769   2.685 -0.3778  1.5846 -0.1799
19340TIP3    H279512   1.284   4.687   2.644 -0.7212  1.5712 -1.1587
19341TIP3   OH279513   6.091   2.930  12.311 -0.4279  0.2368 -0.0675
19341TIP3    H179514   6.137   2.850  12.286  1.4394  2.3404 -3.8222
19341TIP3    H279515   6.000   2.903  12.320  0.5962 -2.8863  1.8684
19342TIP3   OH279516   3.070   5.161   3.753  0.0753 -0.3172  0.1349
19342TIP3    H179517   3.144   5.183   3.696  0.2943  2.0726  1.2815
19342TIP3    H279518   2.995   5.203   3.711 -0.2580 -0.8786  0.1612
19343TIP3   OH279519   5.190   2.014  11.887  0.3884  0.2652  0.7929
19343TIP3    H179520   5.200   2.070  11.964  3.6811  0.0063  0.6548
19343TIP3    H279521   5.212   1.926  11.918  1.5879  0.1381 -0.3892
19344TIP3   OH279522   6.323   0.104   1.221  0.4476  0.4508  0.0517
19344TIP3    H179523   6.347   0.089   1.312 -0.3336  0.6349  0.2888
19344TIP3    H279524   6.256   0.038   1.202  0.9907  0.0628 -0.5505
19345TIP3   OH279525   5.652   4.515  12.316 -0.5206 -0.0946 -0.1117
19345TIP3    H179526   5.616   4.469  12.240 -0.7463 -1.2608  0.7062
19345TIP3    H279527   5.576   4.553  12.360 -0.5487 -0.8307  0.4712
19346TIP3   OH279528   2.249   1.031  16.998 -0.2866  0.1548 -0.3969
19346TIP3    H179529   2.318   1.059  17.058 -0.3182  0.1760 -0.3700
19346TIP3    H279530   2.248   0.936  17.004  0.4286  0.0925 -1.1609
19347TIP3   OH279531   4.736   4.313   3.178  0.7139 -0.5478  0.2382
19347TIP3    H179532   4.742   4.372   3.102 -1.5911 -0.2392  0.2642
19347TIP3    H279533   4.827   4.288   3.195  1.4625  0.8008 -1.5032
19348TIP3   OH279534   2.343   5.667   5.095  0.5245 -0.6760  0.0423
19348TIP3    H179535   2.399   5.604   5.051  1.0767  0.5817 -1.0854
19348TIP3    H279536   2.327   5.628   5.181 -0.4034 -3.0489 -1.1599
19349TIP3   OH279537   1.507   5.766   2.207 -0.0130 -0.0810  0.1286
19349TIP3    H179538   1.425   5.724   2.180 -0.2026  1.1605 -1.3260
19349TIP3    H279539   1.512   5.844   2.152  2.1879 -0.1898  0.1569
19350TIP3   OH279540   5.193   4.950   3.999 -0.5708  0.1290 -0.0056
19350TIP3    H179541   5.247   4.944   3.920 -0.2802  0.6433  0.1487
19350TIP3    H279542   5.125   4.885   3.987 -0.2553 -0.1162 -0.4735
19351TIP3   OH279543   3.058   3.518  15.693 -0.3698 -0.0424 -0.1261
19351TIP3    H179544   3.124   3.462  15.652 -1.0776 -0.7406 -0.3108
19351TIP3    H279545   2.974   3.480  15.666 -0.8450 -0.3830  1.7917
19352TIP3   OH279546   1.882   1.213  10.595  0.1007  0.0943  0.8805
19352TIP3    H179547   1.971   1.210  10.560 -0.2264  0.4587  0.0012
19352TIP3    H279548   1.843   1.130  10.568  0.3660 -0.3409  1.8081
19353TIP3   OH279549   1.543   3.983   6.751  0.0196  0.3432 -0.1050
19353TIP3    H179550   1.523   3.916   6.816  0.4633 -0.7044 -1.0258
19353TIP3    H279551   1.634   3.965   6.725 -0.3810  0.2907 -1.5310
19354TIP3   OH279552   2.342   0.154   1.552 -0.7585 -0.3400 -0.6390
19354TIP3    H179553   2.279   0.226   1.553 -2.5225 -1.8540  2.1931
19354TIP3    H279554   2.427   0.197   1.542 -1.7559  2.1593  1.0430
19355TIP3   OH279555   5.098   2.523  14.589 -0.4363 -0.1955 -0.4047
19355TIP3    H179556   5.044   2.461  14.638 -2.0617  0.6027 -1.1409
19355TIP3    H279557   5.048   2.604  14.591  2.1716  1.4366  1.4623
19356TIP3   OH279558   2.682   1.106  15.058  0.5170  0.7660  0.3659
19356TIP3    H179559   2.752   1.064  15.008  0.8285 -0.1661  1.5903
19356TIP3    H279560   2.607   1.047  15.048  0.6726  0.4141  1.2626
19357TIP3   OH279561   0.670   1.166   1.621 -0.1191  0.3771  0.3934
19357TIP3    H179562   0.732   1.140   1.554  0.1471  0.0239  0.7746
19357TIP3    H279563   0.682   1.261   1.629  0.3014  0.3247  0.3998
19358TIP3   OH279564   4.053   6.374   1.316 -0.2428  0.0830  0.5393
19358TIP3    H179565   3.966   6.336   1.308 -0.1105 -0.1210  0.0772
19358TIP3    H279566   4.038   6.459   1.357 -0.5974 -0.2106  1.0277
19359TIP3   OH279567   0.395   2.482  16.816 -0.5780  0.0043  0.0226
19359TIP3    H179568   0.425   2.513  16.731  0.8551 -0.0314  0.5074
19359TIP3    H279569   0.352   2.558  16.855 -0.8502  0.1429 -0.5370
19360TIP3   OH279570   6.812   5.217  15.080  0.0817 -0.2707  0.1313
19360TIP3    H179571   6.762   5.248  15.005  0.2961  1.2677  0.5987
19360TIP3    H279572   6.892   5.269  15.079  0.7130 -1.2077  0.6304
19361TIP3   OH279573   1.629   4.041   5.132 -0.9184  0.1826 -0.2406
19361TIP3    H179574   1.644   4.036   5.226  0.5608  0.1929 -0.4694
19361TIP3    H279575   1.567   3.969   5.114  0.4154 -1.1550  0.4180
19362TIP3   OH279576   2.131   2.322  11.762 -0.2177 -0.4652  0.0800
19362TIP3    H179577   2.080   2.327  11.844 -0.9508  0.3400 -0.4064
19362TIP3    H279578   2.187   2.246  11.773 -1.7910 -1.5971  0.5013
19363TIP3   OH279579   3.361   0.818   2.315  0.4762 -0.0778  0.3073
19363TIP3    H179580   3.331   0.748   2.257 -0.1036 -1.3029  2.0469
19363TIP3    H279581   3.303   0.892   2.295 -0.7441 -0.9861  0.4212
19364TIP3   OH279582   5.182   2.266  16.526  0.3046  0.5362 -0.6784
19364TIP3    H179583   5.187   2.172  16.507  0.9272  0.6889 -1.2829
19364TIP3    H279584   5.180   2.308  16.440  1.5323  1.1563 -0.4190
19365TIP3   OH279585   5.634   6.183   0.909  0.0819  0.8786 -0.1225
19365TIP3    H179586   5.702   6.149   0.851  0.5251  1.3609  0.1106
19365TIP3    H279587   5.570   6.222   0.850 -0.3932 -0.2799 -0.3873
19366TIP3   OH279588   2.541   1.127  16.256  0.0526  0.2566 -0.5599
19366TIP3    H179589   2.556   1.033  16.266 -0.3672  0.3188  0.7974
19366TIP3    H279590   2.595   1.153  16.181  2.6328 -0.4721  0.9975
19367TIP3   OH279591   2.136   5.952   3.984 -0.2948 -0.1675 -0.2096
19367TIP3    H179592   2.105   5.861   3.984  0.1462 -0.3588  2.2482
19367TIP3    H279593   2.202   5.954   4.053 -0.2157  2.0016 -0.3230
19368TIP3   OH279594   0.893   5.780  13.725 -0.2247  0.2012 -0.4905
19368TIP3    H179595   0.862   5.789  13.635 -0.2693  0.9280 -0.4018
19368TIP3    H279596   0.838   5.840  13.775 -0.2503 -0.2587  0.0388
19369TIP3   OH279597   3.211   1.091  13.537 -0.1581 -0.1679 -0.3657
19369TIP3    H179598   3.169   1.096  13.451 -2.1038  0.2701  0.6028
19369TIP3    H279599   3.205   0.999  13.562  0.7036 -0.3575 -0.8251
19370TIP3   OH279600   6.055   2.607  13.347 -0.1366  0.6303 -0.4482
19370TIP3    H179601   6.132   2.570  13.305  0.3265  0.6099  0.3969
19370TIP3    H279602   6.083   2.695  13.373 -0.0823  0.2768  0.7140
19371TIP3   OH279603   6.465   2.412   2.928  0.1635  0.1117 -0.8498
19371TIP3    H179604   6.467   2.507   2.932  0.6588  0.1522 -1.7651
19371TIP3    H279605   6.396   2.392   2.865 -0.5599 -0.1686  0.0183
19372TIP3   OH279606   5.865   4.545  17.075 -0.6166 -0.5942 -0.3075
19372TIP3    H179607   5.840   4.453  17.059 -1.3872 -0.4431 -0.0134
19372TIP3    H279608   5.957   4.549  17.051 -0.9136 -1.1396 -1.5774
19373TIP3   OH279609   1.311   5.255  15.737 -0.4208 -0.1834 -0.4622
19373TIP3    H179610   1.258   5.306  15.799  1.0687 -0.5370  1.1317
19373TIP3    H279611   1.254   5.184  15.709 -1.3960  0.4724 -0.1623
19374TIP3   OH279612   2.556   2.310   0.036  1.0163 -0.0591  0.3035
19374TIP3    H179613   2.556   2.373   0.108  1.4442  0.1827  0.0970
19374TIP3    H279614   2.467   2.313   0.001  0.7887 -0.2324  0.8671
19375TIP3   OH279615   0.422   0.408  15.732  0.3645  0.3533  0.4854
19375TIP3    H179616   0.393   0.441  15.817  1.4889  3.1410 -0.1713
19375TIP3    H279617   0.340   0.385  15.687 -0.4128  1.5669  1.2394
19376TIP3   OH279618   2.637   5.619   1.269  0.4481 -0.0399  0.2111
19376TIP3    H179619   2.708   5.570   1.311 -0.1614 -2.3713 -1.3718
19376TIP3    H279620   2.636   5.587   1.179 -0.4399  2.4337 -0.6997
19377TIP3   OH279621   4.508   1.499  15.523  0.2238  0.4839 -0.2529
19377TIP3    H179622   4.481   1.567  15.461  3.7029  0.6466 -1.7320
19377TIP3    H279623   4.586   1.534  15.565  0.2247 -1.2895  1.3176
19378TIP3   OH279624   1.555   4.748   0.305 -0.5561  0.2928  0.4955
19378TIP3    H179625   1.486   4.804   0.268 -0.4587  0.7861  1.0596
19378TIP3    H279626   1.536   4.746   0.399  0.5321  0.8939  0.7298
19379TIP3   OH279627   1.203   2.329  14.224 -0.2915 -0.2639 -0.6141
19379TIP3    H179628   1.141   2.257  14.215 -0.9357  0.3204 -0.8164
19379TIP3    H279629   1.183   2.368  14.309  0.0581 -0.3221 -0.5025
19380TIP3   OH279630   3.556   6.266   3.649  0.5880 -0.5486  0.0512
19380TIP3    H179631   3.640   6.297   3.615  0.5843 -0.4996  0.0879
19380TIP3    H279632   3.515   6.343   3.687  0.0708 -0.3504 -0.8944
19381TIP3   OH279633   4.635   5.201  15.960  0.2051 -0.0288 -0.3289
19381TIP3    H179634   4.563   5.262  15.943  0.8054  0.9175  0.4879
19381TIP3    H279635   4.594   5.114  15.954 -1.1622  0.5199  0.8640
19382TIP3   OH279636   6.791   6.340   5.862 -0.1679 -0.2266 -0.3671
19382TIP3    H179637   6.720   6.389   5.904  0.6778 -1.2029  2.2935
19382TIP3    H279638   6.791   6.255   5.907  1.5963 -0.8528 -1.5177
19383TIP3   OH279639   3.439   0.097  14.409  0.0501  0.0114 -0.8209
19383TIP3    H179640   3.379   0.145  14.352  0.0438  0.3409 -0.5353
19383TIP3    H279641   3.506   0.160  14.435  0.0302 -0.1206 -0.4280
19384TIP3   OH279642   1.804   6.503   6.407  0.5891  0.0484 -0.8612
19384TIP3    H179643   1.894   6.530   6.389  1.2463  0.8932  3.1018
19384TIP3    H279644   1.751   6.554   6.347  2.6122  1.3331 -1.6295
19385TIP3   OH279645   5.256   4.582  16.819  0.4886  0.1983  0.0338
19385TIP3    H179646   5.230   4.631  16.741  0.6219 -0.1632 -0.2377
19385TIP3    H279647   5.332   4.531  16.792  0.2645 -0.2710  0.2697
19386TIP3   OH279648   5.082   5.387  16.283  0.3150  0.3640 -0.3369
19386TIP3    H179649   5.093   5.304  16.235 -0.5986  0.4287 -0.6725
19386TIP3    H279650   5.075   5.361  16.374 -2.5073 -0.1733 -0.6589
19387TIP3   OH279651   5.372   2.772   3.131 -0.7731  0.3474 -0.2174
19387TIP3    H179652   5.335   2.811   3.210  1.4798  0.6470  0.7270
19387TIP3    H279653   5.453   2.732   3.160 -0.4725 -0.5238 -2.1864
19388TIP3   OH279654   0.598   1.427  11.972 -0.7923 -0.2463  0.1637
19388TIP3    H179655   0.654   1.490  11.926  0.0038 -1.9034 -1.2161
19388TIP3    H279656   0.628   1.429  12.063 -0.6376  1.2012  0.0854
19389TIP3   OH279657   2.600   2.681   3.176  0.0210  0.1761  0.1028
19389TIP3    H179658   2.661   2.659   3.106 -0.4734  0.7645 -0.5208
19389TIP3    H279659   2.535   2.737   3.134 -1.7574 -1.5997  0.4058
19390TIP3   OH279660   3.182   5.105   2.058  0.6287 -0.1718  0.5574
19390TIP3    H179661   3.094   5.122   2.093  0.6783  0.8186  0.2163
19390TIP3    H279662   3.240   5.159   2.112  0.8491  0.3833 -0.2243
19391TIP3   OH279663   1.487   5.705   5.029  0.0375 -0.5133 -0.7273
19391TIP3    H179664   1.566   5.652   5.022 -0.4577 -1.0447 -2.4761
19391TIP3    H279665   1.478   5.746   4.943  0.9703  3.2495  0.8516
19392TIP3   OH279666   1.443   4.617  16.646  0.1393  0.3322 -0.5504
19392TIP3    H179667   1.488   4.628  16.562 -1.0723  1.1388 -1.1024
19392TIP3    H279668   1.355   4.589  16.623 -0.5932  1.8341  0.3825
19393TIP3   OH279669   3.394   0.938   4.526  0.3151  0.4955 -0.4744
19393TIP3    H179670   3.370   0.996   4.454  1.0929  1.6292  0.1546
19393TIP3    H279671   3.484   0.913   4.508 -0.2024 -1.0099 -1.0484
19394TIP3   OH279672   3.465   6.809   2.865 -0.0817  0.3377 -0.3262
19394TIP3    H179673   3.461   6.904   2.873 -2.8267  0.3281 -1.0909
19394TIP3    H279674   3.533   6.793   2.800  0.0870  1.7862 -0.5225
19395TIP3   OH279675   5.374   4.376   1.454 -0.4884 -0.4943 -0.4061
19395TIP3    H179676   5.451   4.412   1.410 -1.1493  0.9196 -0.4356
19395TIP3    H279677   5.410   4.326   1.528  0.5514 -1.6612 -1.6666
19396TIP3   OH279678   6.529   3.766  16.558 -0.3049  0.2285  0.3174
19396TIP3    H179679   6.473   3.820  16.502 -0.6744 -0.3207  0.1618
19396TIP3    H279680   6.521   3.678  16.523  1.2490  0.2632 -0.1717
19397TIP3   OH279681   6.384   4.528  15.023  0.3267 -0.2943 -0.6242
19397TIP3    H179682   6.339   4.568  14.949  0.9750 -0.6794 -1.2310
19397TIP3    H279683   6.476   4.522  14.996  0.6447 -0.0638  0.3703
19398TIP3   OH279684   3.767   3.627   0.364  0.2446  0.9236 -0.3989
19398TIP3    H179685   3.805   3.633   0.452 -0.7546  1.0589  0.0321
19398TIP3    H279686   3.839   3.596   0.309  0.4825 -0.6057  0.7397
19399TIP3   OH279687   3.988   2.419  13.675  0.0238  0.2971  0.4041
19399TIP3    H179688   4.005   2.325  13.674 -0.8703  0.1152  1.3254
19399TIP3    H279689   4.014   2.447  13.763  0.6039  0.9839  0.0241
19400TIP3   OH279690   2.668   2.444  14.041  0.5576 -0.1863 -0.3848
19400TIP3    H179691   2.732   2.394  14.092  3.3332  2.6374 -0.9110
19400TIP3    H279692   2.696   2.434  13.950 -0.4029  0.1810 -0.7303
19401TIP3   OH279693   4.709   6.201   3.161  0.1406 -0.5449  0.5345
19401TIP3    H179694   4.643   6.252   3.114 -1.5014 -1.3371  1.9392
19401TIP3    H279695   4.753   6.151   3.092 -0.4190  0.3214 -0.4691
19402TIP3   OH279696   3.506   2.061  14.348  0.0548  0.7435  0.5627
19402TIP3    H179697   3.429   2.041  14.401 -2.5332  1.1863 -2.8359
19402TIP3    H279698   3.578   2.065  14.410 -2.6372  0.1821  3.8457
19403TIP3   OH279699   6.385   5.478   4.434  0.1974  0.6437  0.3024
19403TIP3    H179700   6.387   5.563   4.477 -1.1989  1.1075 -0.5287
19403TIP3    H279701   6.326   5.425   4.489  0.1382  0.5756  0.1734
19404TIP3   OH279702   0.634   4.557   0.834 -0.2251  0.3898  0.5583
19404TIP3    H179703   0.637   4.551   0.929  0.6630 -0.0572  0.5079
19404TIP3    H279704   0.724   4.538   0.806 -0.1243  1.9868 -0.2785
19405TIP3   OH279705   4.892   4.085   1.676  0.0963  0.6826 -0.1907
19405TIP3    H179706   4.886   4.179   1.690  1.0552  0.8276 -0.7125
19405TIP3    H279707   4.889   4.074   1.581  0.0096  0.1934 -0.1351
19406TIP3   OH279708   1.087   4.492  14.324  0.1531  0.1894  0.3544
19406TIP3    H179709   1.091   4.425  14.256  0.7850  0.0871  0.4939
19406TIP3    H279710   1.076   4.574  14.276 -2.1251 -0.1405  0.2302
19407TIP3   OH279711   0.121   5.237  12.843  0.9046 -0.0128 -0.0684
19407TIP3    H179712   0.140   5.161  12.788  2.6671  0.0637  0.3948
19407TIP3    H279713   0.127   5.311  12.783 -1.4163 -0.2490 -0.6526
19408TIP3   OH279714   4.830   3.995  15.413  0.5470 -0.5530 -0.2391
19408TIP3    H179715   4.848   4.063  15.348 -0.2394 -0.0660  0.0455
19408TIP3    H279716   4.771   3.934  15.368 -0.2770 -0.0318  0.1232
19409TIP3   OH279717   4.338   5.606   1.409 -0.3247 -0.5543 -0.4823
19409TIP3    H179718   4.427   5.620   1.441 -0.2975  0.2539 -0.9037
19409TIP3    H279719   4.298   5.693   1.409 -1.1291 -0.9224 -0.2532
19410TIP3   OH279720   3.821   3.983   2.090  0.4915  0.5230 -0.3059
19410TIP3    H179721   3.841   3.944   2.176  0.6731 -0.5401 -0.8172
19410TIP3    H279722   3.740   4.031   2.104 -0.5470 -1.2613  0.0113
19411TIP3   OH279723   4.981   4.209  12.764 -0.2110  0.4800 -0.1531
19411TIP3    H179724   5.038   4.281  12.789  0.7172 -0.6005  0.9038
19411TIP3    H279725   4.989   4.203  12.669  1.2330  0.5132 -0.0377
19412TIP3   OH279726   5.662   2.049   5.592  0.4016 -0.1428  0.2053
19412TIP3    H179727   5.713   2.070   5.670  0.5133  1.8290 -0.3704
19412TIP3    H279728   5.728   2.021   5.528  0.7333  1.6808 -0.2962
19413TIP3   OH279729   2.552   2.072  11.244 -0.3681 -0.5515  0.1317
19413TIP3    H179730   2.566   2.034  11.331  2.0935  0.6003  0.2738
19413TIP3    H279731   2.636   2.063  11.200 -0.8872  1.0848 -1.2547
19414TIP3   OH279732   1.456   5.494  12.418  0.2867 -0.5266 -0.1271
19414TIP3    H179733   1.452   5.400  12.404 -1.9374 -0.5021  0.2750
19414TIP3    H279734   1.531   5.506  12.477  0.5796 -2.0341 -0.1727
19415TIP3   OH279735   4.861   6.606   0.599 -1.1867 -0.3598 -0.1235
19415TIP3    H179736   4.907   6.568   0.524 -1.3412  2.3776 -1.6665
19415TIP3    H279737   4.875   6.543   0.670  1.5351 -1.5249 -1.6103
19416TIP3   OH279738   5.743   5.057   1.555  0.1872  0.5830 -0.0205
19416TIP3    H179739   5.777   5.053   1.465 -1.8063  1.2198 -0.8301
19416TIP3    H279740   5.649   5.043   1.545  0.0691 -0.2586  2.0857
19417TIP3   OH279741   1.083   4.024  15.628 -0.2023 -0.3280  0.1039
19417TIP3    H179742   1.130   3.980  15.699  1.3079  0.1541 -0.5765
19417TIP3    H279743   1.077   4.115  15.656 -0.3976 -0.3136  0.0179
19418TIP3   OH279744   0.620   2.404   1.675 -0.1980  0.2748 -0.5909
19418TIP3    H179745   0.653   2.409   1.765 -0.8506  2.9425 -0.4584
19418TIP3    H279746   0.687   2.449   1.623 -1.0450  0.9976 -1.0660
19419TIP3   OH279747   0.052   4.236  11.448  0.0720 -0.3588 -0.2770
19419TIP3    H179748  -0.034   4.277  11.449 -0.4262 -1.3618 -0.9203
19419TIP3    H279749   0.043   4.164  11.385  1.4492 -0.3029 -0.5432
19420TIP3   OH279750   2.950   1.348   3.830  0.2029  0.1619  0.3344
19420TIP3    H179751   2.878   1.410   3.827 -0.5502 -0.5917  2.1024
19420TIP3    H279752   2.946   1.310   3.918  2.1764 -0.5757  0.1488
19421TIP3   OH279753   5.585   6.604  12.684  0.9396 -0.0024  0.0053
19421TIP3    H179754   5.565   6.512  12.695 -1.6279  0.7493  2.0034
19421TIP3    H279755   5.678   6.606  12.660  0.9901 -3.0663 -0.1683
19422TIP3   OH279756   6.751   4.776  11.464 -0.3038  0.3527  0.3311
19422TIP3    H179757   6.746   4.843  11.396 -1.4519 -0.6513 -0.5861
19422TIP3    H279758   6.666   4.780  11.508 -0.2230 -0.2460  0.5427
19423TIP3   OH279759   1.695   3.694  12.039 -0.0904  0.9945 -0.1342
19423TIP3    H179760   1.739   3.760  12.092 -1.1105  1.3606  0.2756
19423TIP3    H279761   1.612   3.734  12.013 -0.9347 -0.2842  0.5029
19424TIP3   OH279762   6.726   3.033  15.146 -0.2893 -0.1435 -0.2397
19424TIP3    H179763   6.648   3.055  15.095  0.1680  0.6371 -0.6163
19424TIP3    H279764   6.793   3.013  15.080 -0.3580 -1.5088  0.0878
19425TIP3   OH279765   5.727   1.604   4.169  0.2721  0.0540 -0.7040
19425TIP3    H179766   5.707   1.513   4.147  0.8792 -0.0756 -0.7419
19425TIP3    H279767   5.808   1.598   4.219  1.7008  0.7710 -2.8431
19426TIP3   OH279768   3.163   0.550   1.036 -0.1065 -0.1024 -0.1246
19426TIP3    H179769   3.136   0.603   1.111  0.1557 -1.1348  0.7109
19426TIP3    H279770   3.165   0.612   0.963  0.1302  1.0293  0.8147
19427TIP3   OH279771   6.445   0.780   4.174 -0.2893 -0.5411 -0.1533
19427TIP3    H179772   6.468   0.767   4.266 -0.5025  0.7372  0.0921
19427TIP3    H279773   6.402   0.699   4.148  0.9415 -1.4212  0.5021
19428TIP3   OH279774   5.000   3.931  13.045  0.4586 -0.6750 -0.3363
19428TIP3    H179775   5.069   3.924  12.979  0.0499 -0.4868 -0.7855
19428TIP3    H279776   5.017   4.016  13.087 -1.0351  0.5800 -2.2024
19429TIP3   OH279777   4.818   3.733  13.156  0.1873 -0.0637 -0.9410
19429TIP3    H179778   4.747   3.791  13.128 -1.1982 -1.5050 -0.5517
19429TIP3    H279779   4.898   3.779  13.134 -0.8862  1.5932 -1.4397
19430TIP3   OH279780   5.651   2.500   4.895 -0.2672  0.0746  0.6210
19430TIP3    H179781   5.720   2.566   4.897  1.5639 -1.8086  0.4405
19430TIP3    H279782   5.645   2.468   4.985 -0.4131 -0.2803  0.4869
19431TIP3   OH279783   4.605   6.630  10.983 -0.1726 -0.0332 -0.0071
19431TIP3    H179784   4.637   6.718  11.004 -0.9583 -0.2851  2.2691
19431TIP3    H279785   4.644   6.574  11.049  1.1827 -1.6051 -2.0794
19432TIP3   OH279786   2.797   5.784   5.057 -0.4097 -0.1708  0.1327
19432TIP3    H179787   2.889   5.797   5.035 -1.1089  1.8945 -1.6602
19432TIP3    H279788   2.798   5.712   5.121  2.1539 -2.4153 -2.3120
19433TIP3   OH279789   5.479   0.882   0.176  0.7473 -0.3054  0.5039
19433TIP3    H179790   5.508   0.974   0.180 -0.1235 -0.0137  0.2233
19433TIP3    H279791   5.442   0.865   0.263 -1.9320  0.5811 -0.4022
19434TIP3   OH279792   4.128   3.474  12.160  0.0773  0.4258  0.3897
19434TIP3    H179793   4.090   3.386  12.151 -1.1188  0.8090  1.6214
19434TIP3    H279794   4.156   3.478  12.251 -0.9283  1.7471  0.6447
19435TIP3   OH279795   3.540   6.283   0.471  0.1472 -0.0706  0.5920
19435TIP3    H179796   3.478   6.352   0.495  2.6415  1.4636  3.0263
19435TIP3    H279797   3.560   6.239   0.554  0.0374 -2.5260 -0.6438
19436TIP3   OH279798   3.965   3.488   1.611 -0.3327 -0.3492  0.3413
19436TIP3    H179799   3.920   3.495   1.695  1.9527 -0.6243  1.6179
19436TIP3    H279800   3.968   3.394   1.594 -0.6594 -0.3013  0.0025
19437TIP3   OH279801   5.435   2.382  12.282 -0.4304  0.2960  0.5488
19437TIP3    H179802   5.507   2.393  12.221  0.2181  2.3249  1.6344
19437TIP3    H279803   5.358   2.415  12.234 -0.5874 -1.4631 -0.4468
19438TIP3   OH279804   6.566   5.913  16.112  0.2665 -0.2273 -0.3667
19438TIP3    H179805   6.639   5.878  16.061  0.7318 -1.0265  0.8292
19438TIP3    H279806   6.520   5.836  16.144 -0.2489  0.2677  0.0935
19439TIP3   OH279807   1.757   5.775   0.663 -0.7454 -0.1543 -0.0572
19439TIP3    H179808   1.711   5.798   0.743  2.2532  0.7780  1.5029
19439TIP3    H279809   1.756   5.856   0.611 -0.6288 -0.0330  0.1259
19440TIP3   OH279810   1.187   6.033  13.290  0.2528  0.2397  0.4472
19440TIP3    H179811   1.111   6.069  13.336 -0.1180  0.4990 -0.3679
19440TIP3    H279812   1.150   5.982  13.219  0.8336 -0.0283  0.3364
19441TIP3   OH279813   6.795   1.566  15.081  0.0848 -0.4094 -0.2330
19441TIP3    H179814   6.737   1.491  15.092 -0.8945  0.3373 -0.2819
19441TIP3    H279815   6.841   1.574  15.164  1.8754 -2.4583 -0.9773
19442TIP3   OH279816   4.605   1.896  14.644 -0.4608  0.0904 -0.4965
19442TIP3    H179817   4.681   1.869  14.696 -0.3667 -3.0781 -2.1658
19442TIP3    H279818   4.635   1.891  14.553 -1.4015  3.0242 -1.0139
19443TIP3   OH279819   0.992   0.939   4.776 -0.0291 -0.8411  0.3333
19443TIP3    H179820   0.949   1.007   4.724  0.1382 -0.5592  0.5587
19443TIP3    H279821   1.085   0.957   4.768  0.0683 -1.6122 -0.3674
19444TIP3   OH279822   4.191   0.867  12.719  0.4003 -0.0379  0.1394
19444TIP3    H179823   4.168   0.959  12.704 -0.4910 -0.0978  1.0877
19444TIP3    H279824   4.263   0.871  12.782  0.7844  0.0354 -0.3074
19445TIP3   OH279825   4.269   2.685   3.605  0.2323 -0.0998 -0.2050
19445TIP3    H179826   4.361   2.689   3.628  0.2711 -1.1090 -0.1623
19445TIP3    H279827   4.224   2.658   3.686 -0.3269  2.2663  0.2929
19446TIP3   OH279828   4.718   4.460   2.945 -0.0206  0.1000 -0.0696
19446TIP3    H179829   4.684   4.541   2.907 -1.8886 -0.6007  0.0507
19446TIP3    H279830   4.646   4.397   2.935 -0.5715 -0.1638  4.4607
19447TIP3   OH279831   3.966   2.526  14.313 -0.2135 -0.3135 -0.0933
19447TIP3    H179832   4.053   2.490  14.292 -0.7429 -1.8329  0.2016
19447TIP3    H279833   3.981   2.619  14.326  1.1226 -0.2914 -1.5399
19448TIP3   OH279834   2.014   3.021   2.312 -0.0664  0.2661 -0.3067
19448TIP3    H179835   1.997   3.113   2.289  1.5273  1.2905  2.4027
19448TIP3    H279836   2.107   3.019   2.335 -0.2286 -1.9048  0.2615
19449TIP3   OH279837   4.926   4.314  10.781  0.2948  0.1938 -0.3684
19449TIP3    H179838   4.995   4.247  10.779 -0.6219 -0.7646 -0.5398
19449TIP3    H279839   4.921   4.346  10.691  0.5555  0.2989 -0.3461
19450TIP3   OH279840   3.714   1.319  13.309  0.1571 -0.9547  0.2204
19450TIP3    H179841   3.689   1.338  13.400  0.9905 -0.7689  0.4091
19450TIP3    H279842   3.772   1.243  13.315  0.2137 -0.9416 -0.1571
19451TIP3   OH279843   2.019   5.911   4.473  0.0967 -0.0897  0.0427
19451TIP3    H179844   2.073   5.938   4.399  0.4489  0.6111  0.5429
19451TIP3    H279845   2.033   5.817   4.479  0.1524 -0.1326 -0.7149
19452TIP3   OH279846   0.421   6.453  14.633  0.2239 -0.2146  0.1113
19452TIP3    H179847   0.380   6.446  14.547  0.6363  0.7225 -0.1615
19452TIP3    H279848   0.407   6.543  14.659  0.8497 -0.2742  0.6541
19453TIP3   OH279849   4.957   1.180  12.296 -0.6110 -0.3187  0.6872
19453TIP3    H179850   5.051   1.198  12.302 -0.6489  0.1176 -0.0192
19453TIP3    H279851   4.915   1.247  12.350 -0.4197 -1.5242  2.3756
19454TIP3   OH279852   1.854   0.981  13.627  0.4298  0.5157  0.1167
19454TIP3    H179853   1.816   1.037  13.559 -0.7249 -0.1435  0.2042
19454TIP3    H279854   1.847   0.892  13.591  1.2994  0.3189  0.4151
19455TIP3   OH279855   5.573   4.105  11.609  0.6388 -0.6137 -0.1056
19455TIP3    H179856   5.656   4.076  11.647  1.6544  2.1064 -0.1106
19455TIP3    H279857   5.546   4.178  11.665  0.5020  1.3575 -2.6606
19456TIP3   OH279858   0.340   5.304   2.010 -0.3380 -0.1722  0.1161
19456TIP3    H179859   0.345   5.305   2.105  0.1629 -0.4857  0.0948
19456TIP3    H279860   0.429   5.286   1.981 -0.3679  0.4904 -0.4265
19457TIP3   OH279861   6.051   6.341   3.827  0.1573 -0.3906 -0.2577
19457TIP3    H179862   6.128   6.341   3.770  0.8461 -1.3405  0.6468
19457TIP3    H279863   6.052   6.426   3.870  2.3685 -1.4424  1.9133
19458TIP3   OH279864   4.190   2.523   3.401  1.0575  0.2278 -0.3991
19458TIP3    H179865   4.130   2.453   3.425 -2.1212  3.0985  0.4568
19458TIP3    H279866   4.191   2.581   3.477  1.0397  2.7848 -2.2660
19459TIP3   OH279867   3.561   5.090  17.183  0.0347  0.2735 -0.3327
19459TIP3    H179868   3.649   5.060  17.206 -0.9986 -2.2152  0.6576
19459TIP3    H279869   3.538   5.041  17.104 -0.3184  1.2073 -0.8179
19460TIP3   OH279870   4.768   2.490  11.149 -0.0759 -0.7030 -0.3324
19460TIP3    H179871   4.763   2.583  11.170  1.5034 -1.0502  1.7586
19460TIP3    H279872   4.844   2.482  11.091 -0.0510 -0.7308 -0.2968
19461TIP3   OH279873   5.305   6.258   4.839  0.1407  0.5987 -0.3318
19461TIP3    H179874   5.270   6.245   4.927  0.2218  0.7053 -0.2829
19461TIP3    H279875   5.275   6.346   4.815  0.6546  0.8260 -0.1590
19462TIP3   OH279876   1.455   0.524   4.952  0.5962 -0.0842 -0.9717
19462TIP3    H179877   1.393   0.545   4.883  0.1795 -1.2324 -0.9465
19462TIP3    H279878   1.517   0.462   4.913 -1.4690 -3.2222  0.5276
19463TIP3   OH279879   1.721   0.192   3.355  0.4361 -1.3744  0.0029
19463TIP3    H179880   1.717   0.192   3.451  0.5091  0.6633  0.0387
19463TIP3    H279881   1.766   0.111   3.333  2.6214 -0.7365  1.8213
19464TIP3   OH279882   6.716   3.084   1.060 -0.1421  0.1800  0.1620
19464TIP3    H179883   6.731   3.108   0.968  0.9599 -0.7958  0.0703
19464TIP3    H279884   6.666   3.157   1.096  1.0417  1.4528 -0.7178
19465TIP3   OH279885   0.426   2.733   0.794 -0.4276  0.4968 -0.4796
19465TIP3    H179886   0.386   2.660   0.842  1.2677 -1.2797 -1.7138
19465TIP3    H279887   0.351   2.786   0.766 -1.5821  0.3854  2.1744
19466TIP3   OH279888   1.846   3.504   2.131 -0.6291  0.5123  0.4345
19466TIP3    H179889   1.899   3.499   2.051  0.4366 -1.7795  1.2145
19466TIP3    H279890   1.868   3.588   2.170  2.0385 -0.1264  0.4149
19467TIP3   OH279891   6.724   2.236  15.188  0.3749 -0.4357 -0.4052
19467TIP3    H179892   6.812   2.272  15.185  0.3855 -0.2626  1.3638
19467TIP3    H279893   6.731   2.159  15.245 -0.3954 -1.0498 -1.1309
19468TIP3   OH279894   1.949   4.119   2.447 -0.2890 -0.6378 -0.0580
19468TIP3    H179895   1.904   4.042   2.411  0.9865 -1.8113  0.8077
19468TIP3    H279896   2.031   4.124   2.398 -0.2405  0.0276  0.0866
19469TIP3   OH279897   4.640   0.620   0.269  0.3042 -0.0935 -0.5100
19469TIP3    H179898   4.655   0.545   0.327  1.2997 -0.6081 -1.3965
19469TIP3    H279899   4.547   0.640   0.279  0.3290 -0.5607  0.7915
19470TIP3   OH279900   6.625   2.540   2.109  0.6014 -0.3334 -0.1343
19470TIP3    H179901   6.716   2.569   2.118  0.0164  1.5590  0.0084
19470TIP3    H279902   6.601   2.507   2.195  0.9242 -0.1211  0.0384
19471TIP3   OH279903   3.229   4.730   1.441 -0.4212  0.3903 -0.9973
19471TIP3    H179904   3.138   4.725   1.414 -0.7145  1.8961 -0.3002
19471TIP3    H279905   3.228   4.716   1.535 -0.2974  3.6129 -0.4730
19472TIP3   OH279906   6.637   0.412   1.152 -0.3385 -0.0878 -0.4935
19472TIP3    H179907   6.602   0.483   1.099  0.4901  0.5848 -0.1393
19472TIP3    H279908   6.587   0.335   1.125 -2.0584  0.8448 -0.0251
19473TIP3   OH279909   4.902   4.835  13.501  0.3587  0.8400 -0.5368
19473TIP3    H179910   4.888   4.803  13.590  0.8424  0.4413 -0.6045
19473TIP3    H279911   4.827   4.802  13.452  0.4815  0.4226 -0.4442
19474TIP3   OH279912   0.147   4.753   2.975 -0.0129  0.3916 -0.4460
19474TIP3    H179913   0.166   4.811   3.049 -0.3934 -1.8204  1.4197
19474TIP3    H279914   0.052   4.754   2.968  0.0099  0.3977 -0.7646
19475TIP3   OH279915   5.963   6.621   5.491  0.5875  0.0720  0.1027
19475TIP3    H179916   6.042   6.574   5.516  0.5276  0.5854  1.2644
19475TIP3    H279917   5.928   6.657   5.573 -0.2543  0.7702 -0.5396
19476TIP3   OH279918   1.729   4.151  14.675 -0.4709  0.2134  0.2770
19476TIP3    H179919   1.781   4.093  14.730 -1.8743  0.3538  1.7935
19476TIP3    H279920   1.704   4.224  14.733 -0.1341  1.4826 -1.1308
19477TIP3   OH279921   6.521   4.433   6.083  0.5899  0.0851  0.6414
19477TIP3    H179922   6.486   4.477   6.160  0.3265 -0.9048  1.0960
19477TIP3    H279923   6.462   4.358   6.069  0.9292 -0.0314 -0.2135
19478TIP3   OH279924   0.737   2.173  17.074  0.5112  0.2167  0.5804
19478TIP3    H179925   0.693   2.250  17.038  1.1807  0.6690  0.7282
19478TIP3    H279926   0.671   2.104  17.070  0.6123  0.1872 -1.7407
19479TIP3   OH279927   2.925   4.847   4.647  0.2983  0.2591 -0.1676
19479TIP3    H179928   2.976   4.829   4.568  2.2028 -0.3075  1.1499
19479TIP3    H279929   2.868   4.771   4.656  1.7034 -0.7781  0.2258
19480TIP3   OH279930   4.873   0.693   0.468  0.0141 -0.0875 -0.3147
19480TIP3    H179931   4.820   0.707   0.390 -0.8138  0.2707  0.3040
19480TIP3    H279932   4.945   0.756   0.462 -1.0273  1.1564  0.0838
19481TIP3   OH279933   2.262   5.543  15.555 -0.4643  0.4654  0.1741
19481TIP3    H179934   2.231   5.490  15.482  0.4753 -1.0878  0.8803
19481TIP3    H279935   2.339   5.588  15.521 -0.3028  0.1079  0.0658
19482TIP3   OH279936   2.340   3.008  11.022  0.5503  0.0508  0.1552
19482TIP3    H179937   2.351   3.089  10.972  0.4649  0.3296  0.5835
19482TIP3    H279938   2.428   2.987  11.053  0.1714  1.4561  2.3104
19483TIP3   OH279939   2.167   1.429   4.004 -0.2990 -0.4604  0.5811
19483TIP3    H179940   2.101   1.477   4.054 -0.0412 -0.4991  0.9681
19483TIP3    H279941   2.123   1.348   3.979 -1.2682  0.6694 -1.4885
19484TIP3   OH279942   1.926   5.665   1.010 -0.7449 -0.0706 -0.3891
19484TIP3    H179943   1.946   5.587   1.062  1.9102  0.9198  0.1440
19484TIP3    H279944   1.849   5.703   1.052  1.3317  0.7062  2.9211
19485TIP3   OH279945   0.993   0.414   2.109  0.0877 -0.2046 -0.0340
19485TIP3    H179946   0.921   0.374   2.157 -0.0558  1.7415  1.4398
19485TIP3    H279947   0.953   0.488   2.062  1.4866  2.4900  2.8466
19486TIP3   OH279948   1.268   2.522   4.824  0.0723  0.0942 -0.2085
19486TIP3    H179949   1.258   2.513   4.919  2.7274  1.4961  0.2596
19486TIP3    H279950   1.337   2.459   4.801 -0.7011 -0.3834 -1.2493
19487TIP3   OH279951   3.659   5.802   0.102 -0.2141 -0.6290  0.0757
19487TIP3    H179952   3.662   5.740   0.175 -0.3112  2.3588  2.7546
19487TIP3    H279953   3.750   5.831   0.091 -0.2294 -0.9336 -0.8631
19488TIP3   OH279954   3.180   3.760   3.121 -0.0715  0.4364  0.6444
19488TIP3    H179955   3.241   3.751   3.048 -0.5565  1.0272  0.1575
19488TIP3    H279956   3.104   3.805   3.083 -0.8413 -0.3531  1.2183
19489TIP3   OH279957   4.235   4.425   3.051 -0.2601 -0.2718  0.1172
19489TIP3    H179958   4.323   4.399   3.076  0.4889  1.5226 -0.5053
19489TIP3    H279959   4.179   4.393   3.121  1.0202 -0.5264  1.0452
19490TIP3   OH279960   3.857   4.358   4.800 -0.0803  0.3025 -0.1706
19490TIP3    H179961   3.900   4.313   4.873 -0.8853 -0.1139  0.0450
19490TIP3    H279962   3.832   4.288   4.740  0.6399  0.6521 -0.8814
19491TIP3   OH279963   4.234   5.711   3.166  0.1438  0.0569 -0.0562
19491TIP3    H179964   4.184   5.646   3.215  1.8280 -1.6941 -0.5849
19491TIP3    H279965   4.274   5.662   3.094 -0.9268  2.2618 -2.2241
19492TIP3   OH279966   6.087   1.724   6.059  0.2985 -0.4318  0.1950
19492TIP3    H179967   6.061   1.755   6.145 -2.2780  0.1198 -0.7422
19492TIP3    H279968   6.081   1.802   6.003  0.8486 -1.0375 -0.7214
19493TIP3   OH279969   6.750   6.113  12.166 -0.5330  0.2517 -0.6286
19493TIP3    H179970   6.715   6.199  12.191 -1.7799 -1.2912  3.3361
19493TIP3    H279971   6.687   6.079  12.103 -1.6226  1.0130  0.0307
19494TIP3   OH279972   4.922   1.988  15.748  0.2187 -0.2280 -0.4349
19494TIP3    H179973   4.843   1.942  15.720  0.5096  0.2569 -2.1319
19494TIP3    H279974   4.975   1.994  15.669  1.9379 -0.5041  0.6756
19495TIP3   OH279975   0.651   5.021  12.908  0.8237  0.0244  0.1636
19495TIP3    H179976   0.685   4.931  12.906 -0.7681 -0.5725 -0.3613
19495TIP3    H279977   0.588   5.022  12.980  1.9541  1.1453  1.1578
19496TIP3   OH279978   2.741   4.009   1.551 -0.1359 -0.0913 -0.0369
19496TIP3    H179979   2.692   4.019   1.469  0.7992 -1.0453 -0.7217
19496TIP3    H279980   2.831   4.029   1.528  0.1261 -0.3107  0.7792
19497TIP3   OH279981   5.426   3.294  15.258 -0.2495  0.3183  0.0365
19497TIP3    H179982   5.337   3.323  15.237 -1.2506 -3.4718 -1.3142
19497TIP3    H279983   5.420   3.262  15.348 -0.4185 -0.4663 -0.2484
19498TIP3   OH279984   2.301   5.513   3.255 -0.5280  0.1888 -0.2419
19498TIP3    H179985   2.227   5.573   3.252 -0.7833 -0.1439 -0.6067
19498TIP3    H279986   2.352   5.533   3.176 -0.2539  0.3813 -0.0195
19499TIP3   OH279987   0.693   5.374  12.843 -0.3647 -0.6486 -0.2024
19499TIP3    H179988   0.641   5.329  12.777  0.4529 -0.5503 -0.9263
19499TIP3    H279989   0.646   5.361  12.925 -2.3264  0.7031 -1.0917
19500TIP3   OH279990   5.276   3.247   1.548 -0.6133  0.0874  0.1159
19500TIP3    H179991   5.236   3.182   1.491  0.0794 -1.1959  1.0729
19500TIP3    H279992   5.263   3.212   1.636  1.6209  0.2104  0.5157
19501TIP3   OH279993   6.601   2.320   5.648  0.0205  0.1832  0.2033
19501TIP3    H179994   6.658   2.299   5.722 -0.7391 -0.1966  0.6920
19501TIP3    H279995   6.516   2.337   5.688 -0.3810  0.0407 -0.5839
19502TIP3   OH279996   2.866   0.618  16.963 -0.0526  0.2924  0.0133
19502TIP3    H179997   2.914   0.689  17.006 -1.0862  1.4323 -0.6843
19502TIP3    H279998   2.782   0.615  17.008  1.0241 -2.3955  1.9313
19503TIP3   OH279999   5.292   6.433  11.223 -0.5654  0.0794 -0.3077
19503TIP3    H180000   5.369   6.412  11.171 -0.3044 -0.6866  0.3695
19503TIP3    H280001   5.237   6.487  11.165  0.7999  1.2418 -0.5479
19504TIP3   OH280002   3.901   0.608  11.148  0.4745 -0.2364  0.3191
19504TIP3    H180003   3.820   0.657  11.137 -0.3314 -1.9287 -1.5766
19504TIP3    H280004   3.901   0.545  11.076  3.7447  0.0984 -0.0460
19505TIP3   OH280005   0.069   0.651  15.915 -0.4733 -0.4484  0.2753
19505TIP3    H180006   0.139   0.716  15.915 -2.9450  2.3780 -0.8454
19505TIP3    H280007   0.113   0.567  15.907  2.8190  1.1484  0.9711
19506TIP3   OH280008   0.308   4.474   3.890  0.1764 -0.2176  0.7529
19506TIP3    H180009   0.333   4.566   3.905 -0.7744  0.1507  0.1196
19506TIP3    H280010   0.242   4.457   3.957 -0.1731 -0.2159  0.4099
19507TIP3   OH280011   5.242   0.794  11.830 -0.8602 -0.4377 -0.8424
19507TIP3    H180012   5.336   0.810  11.838 -0.8954  0.0400 -1.3427
19507TIP3    H280013   5.212   0.861  11.768 -1.9813  1.0270  1.2436
19508TIP3   OH280014   5.345   2.147   0.451  0.0399 -0.5115 -0.5884
19508TIP3    H180015   5.390   2.169   0.533 -0.9035 -0.4031 -0.0838
19508TIP3    H280016   5.252   2.162   0.471 -0.2245 -0.8487 -1.5658
19509TIP3   OH280017   5.087   0.419  16.657 -0.1320  0.6721  0.3942
19509TIP3    H180018   5.143   0.367  16.715 -1.8917 -0.2482  1.3268
19509TIP3    H280019   5.148   0.464  16.599  1.5626 -0.4386  1.2523
19510TIP3   OH280020   2.265   6.560   1.850 -0.0493  0.3800 -0.2173
19510TIP3    H180021   2.348   6.608   1.853 -0.8507  1.7130  2.1131
19510TIP3    H280022   2.204   6.620   1.806  0.0300 -0.3030 -1.2716
19511TIP3   OH280023   1.451   4.539  15.075 -0.2677  0.2218 -0.2465
19511TIP3    H180024   1.367   4.499  15.052 -0.5708  0.9744 -0.4484
19511TIP3    H280025   1.441   4.566  15.166 -0.3206  0.5095 -0.3364
19512TIP3   OH280026   4.179   2.048   4.545  0.0702 -0.4049 -0.5471
19512TIP3    H180027   4.165   2.054   4.451 -2.2509  0.6627 -0.1665
19512TIP3    H280028   4.108   2.100   4.584  1.0078 -0.7876  1.7854
19513TIP3   OH280029   1.225   1.905   0.729  0.0132  0.1642 -0.0527
19513TIP3    H180030   1.263   1.876   0.646 -1.2682 -0.0786 -0.5654
19513TIP3    H280031   1.264   1.847   0.794 -0.3691 -0.8707 -0.7197
19514TIP3   OH280032   3.581   4.203   2.029 -0.6242  0.7054 -0.3771
19514TIP3    H180033   3.649   4.254   1.983  1.6794 -1.6624  0.2948
19514TIP3    H280034   3.570   4.248   2.112  2.4129 -0.5997  0.7899
19515TIP3   OH280035   3.738   5.854   0.489 -0.6074 -0.0152 -0.1361
19515TIP3    H180036   3.720   5.760   0.490 -2.0139  0.2622  0.3924
19515TIP3    H280037   3.714   5.885   0.576  2.4290  0.3731  0.6343
19516TIP3   OH280038   4.759   4.248  11.238 -0.2862  0.1990  0.0768
19516TIP3    H180039   4.762   4.201  11.322  0.3822 -2.0960 -1.1814
19516TIP3    H280040   4.677   4.221  11.198 -0.5225  1.1470 -0.0925
19517TIP3   OH280041   2.454   1.989   3.406  0.1562 -1.0828  0.0395
19517TIP3    H180042   2.411   1.936   3.338  0.6011  0.6423 -1.6083
19517TIP3    H280043   2.487   2.065   3.360  1.2618 -0.3097  2.0645
19518TIP3   OH280044   3.817   4.454  15.453  0.0175 -0.4621  0.1154
19518TIP3    H180045   3.779   4.523  15.508 -2.2654 -1.5360 -0.0777
19518TIP3    H280046   3.828   4.495  15.367 -2.1433 -0.5537 -0.2353
19519TIP3   OH280047   4.002   5.192  11.931 -0.8215  0.4230 -0.1010
19519TIP3    H180048   3.944   5.244  11.988 -1.6265 -0.2053 -0.3359
19519TIP3    H280049   4.077   5.249  11.915 -0.0009  0.2050  2.5652
19520TIP3   OH280050   1.946   1.959   3.554  0.0218  0.5116 -0.0664
19520TIP3    H180051   1.858   1.982   3.524 -0.5790 -1.9190 -0.2251
19520TIP3    H280052   1.932   1.896   3.625  1.6201  0.4138  0.1722
19521TIP3   OH280053   0.731   4.737   1.497 -0.4215 -0.8292 -0.2750
19521TIP3    H180054   0.736   4.732   1.401  1.0957 -0.0520 -0.2597
19521TIP3    H280055   0.641   4.763   1.515 -0.1308  1.2750 -1.6252
19522TIP3   OH280056   0.932   4.449   5.904 -0.1672 -0.3037  0.1317
19522TIP3    H180057   0.865   4.468   5.969 -0.3482 -0.1698 -0.0907
19522TIP3    H280058   0.936   4.528   5.850 -1.3421 -1.1102 -1.1666
19523TIP3   OH280059   2.455   2.106  15.036 -0.5045  0.5215  0.5644
19523TIP3    H180060   2.377   2.144  15.077 -2.4596 -1.5685 -1.0920
19523TIP3    H280061   2.429   2.090  14.945  1.7818 -0.4368  0.0403
19524TIP3   OH280062   0.665   6.209   6.328 -0.2484 -0.1205 -0.0454
19524TIP3    H180063   0.604   6.145   6.365  0.4274 -0.8196 -0.1084
19524TIP3    H280064   0.695   6.169   6.246  1.2671 -0.3972  0.6162
19525TIP3   OH280065   3.048   5.937   5.235 -0.4983 -0.6741  0.4286
19525TIP3    H180066   3.115   5.890   5.284 -0.8491 -1.6671 -0.0370
19525TIP3    H280067   3.072   5.926   5.143  0.2741  1.3698  0.3699
19526TIP3   OH280068   1.735   2.872  11.261  0.3225 -0.0612 -0.8329
19526TIP3    H180069   1.777   2.791  11.231  1.9180  0.7688 -0.8657
19526TIP3    H280070   1.806   2.922  11.302 -1.1185  0.3195  1.2785
19527TIP3   OH280071   6.157   1.069  15.922 -0.0142  0.3444 -0.0011
19527TIP3    H180072   6.181   1.147  15.972  0.5855 -1.2338  2.2543
19527TIP3    H280073   6.086   1.029  15.972  0.5238 -1.2343 -0.4721
19528TIP3   OH280074   0.562   3.802   1.565  0.0341  0.2195  0.3416
19528TIP3    H180075   0.518   3.725   1.528 -2.9218  2.6394 -1.4130
19528TIP3    H280076   0.524   3.811   1.652 -0.3846  0.2661  0.1580
19529TIP3   OH280077   0.491   3.293  12.934 -0.3475 -0.0122  0.2937
19529TIP3    H180078   0.450   3.231  12.995 -0.4872 -0.3284 -0.1209
19529TIP3    H280079   0.573   3.250  12.908 -0.8773 -0.4352 -0.7032
19530TIP3   OH280080   4.660   3.297  14.682 -0.3107 -0.1313  0.0378
19530TIP3    H180081   4.642   3.329  14.771  0.7522  0.4408  0.0556
19530TIP3    H280082   4.602   3.222  14.672 -1.1753  0.4105  0.8471
19531TIP3   OH280083   4.825   5.265  12.036  0.6998  0.7599 -0.2349
19531TIP3    H180084   4.910   5.224  12.052 -0.1883 -0.6729  0.8815
19531TIP3    H280085   4.782   5.265  12.121 -1.7047 -1.4475 -1.4021
19532TIP3   OH280086   4.963   3.464   5.804 -0.8481  0.2328 -0.0291
19532TIP3    H180087   4.929   3.381   5.770 -0.1551  0.3146 -0.9357
19532TIP3    H280088   5.031   3.490   5.742 -1.3623  1.7061 -0.0039
19533TIP3   OH280089   5.512   6.083   4.743 -0.2143  0.3505 -0.1036
19533TIP3    H180090   5.451   6.151   4.769 -1.3361 -0.7254  0.1364
19533TIP3    H280091   5.461   6.025   4.687  0.7291 -0.2883 -0.3258
19534TIP3   OH280092   1.691   5.581   3.149  0.1298  0.0266 -0.0173
19534TIP3    H180093   1.712   5.659   3.199  1.5249 -1.6914  2.1310
19534TIP3    H280094   1.716   5.603   3.059 -1.6106  2.8265  0.1141
19535TIP3   OH280095   1.126   3.122   5.740  0.4389  0.3072  0.2590
19535TIP3    H180096   1.173   3.039   5.741 -0.9395 -0.5383 -1.5065
19535TIP3    H280097   1.193   3.187   5.717  1.4674 -0.3364  1.3945
19536TIP3   OH280098   5.983   1.036   0.070 -0.2110  0.1620 -0.1149
19536TIP3    H180099   5.926   1.104   0.032 -1.0746  1.1536  2.8055
19536TIP3    H280100   5.922   0.974   0.109  0.6609  0.6468  2.0785
19537TIP3   OH280101   3.601   2.472  16.595  0.2258  0.2352  0.3707
19537TIP3    H180102   3.620   2.419  16.518 -1.7412 -0.1715  0.1270
19537TIP3    H280103   3.662   2.440  16.662  1.3147 -0.0431 -0.7410
19538TIP3   OH280104   4.939   5.851   1.976 -0.0178  0.3589  0.2539
19538TIP3    H180105   4.954   5.785   1.909  2.1912  0.4560  0.6014
19538TIP3    H280106   4.922   5.932   1.927 -1.5804 -0.2290 -0.1744
19539TIP3   OH280107   5.389   0.624   0.689  0.1878  0.6340 -0.1093
19539TIP3    H180108   5.398   0.668   0.605  1.1704 -3.4670 -2.2513
19539TIP3    H280109   5.309   0.573   0.682  2.0651 -2.4689  0.0324
19540TIP3   OH280110   4.437   4.673   4.004  0.0154 -0.5870 -0.2084
19540TIP3    H180111   4.363   4.615   3.986 -0.8345  0.9619 -1.8559
19540TIP3    H280112   4.497   4.619   4.055 -1.3589 -2.4895 -0.5240
19541TIP3   OH280113   0.220   2.295  16.888  0.2573  0.1094  0.0538
19541TIP3    H180114   0.261   2.355  16.825 -1.7571  0.6633 -0.7632
19541TIP3    H280115   0.191   2.352  16.959  1.7701 -0.4100  1.1121
19542TIP3   OH280116   2.142   1.613   5.278 -0.5527 -0.5465 -0.1719
19542TIP3    H180117   2.211   1.674   5.251 -1.0194  0.9647  1.9119
19542TIP3    H280118   2.105   1.581   5.196  2.9324 -1.7816 -1.3510
19543TIP3   OH280119   1.466   3.563  16.883 -0.2202 -0.2560 -0.2965
19543TIP3    H180120   1.428   3.476  16.891  0.6931 -0.7199 -0.9572
19543TIP3    H280121   1.391   3.622  16.885 -0.8094 -1.0159  0.6903
19544TIP3   OH280122   5.618   2.880   2.558  0.1365 -0.4266  0.2832
19544TIP3    H180123   5.665   2.892   2.476 -1.5912  0.9361 -0.5341
19544TIP3    H280124   5.660   2.940   2.619  1.1609 -1.1459  0.2914
19545TIP3   OH280125   6.368   0.047   0.201 -0.6227  0.1705 -0.1260
19545TIP3    H180126   6.430   0.043   0.128 -0.3481 -0.1677  0.1292
19545TIP3    H280127   6.288   0.085   0.162 -0.6611 -0.5344 -0.7321
19546TIP3   OH280128   3.005   5.367   3.361  0.2441 -0.0209 -0.0610
19546TIP3    H180129   2.946   5.433   3.325  1.8753  1.6786  0.2746
19546TIP3    H280130   3.093   5.394   3.333  1.3944  0.3819  3.5466
19547TIP3   OH280131   4.271   3.097  12.273 -0.1792  0.2684 -0.6409
19547TIP3    H180132   4.280   3.148  12.353  0.9920 -0.2530 -0.4375
19547TIP3    H280133   4.183   3.119  12.241  0.0444  1.8769 -0.1988
19548TIP3   OH280134   6.229   4.863  15.451  0.5199 -0.2456 -0.2843
19548TIP3    H180135   6.309   4.905  15.421  0.9231  0.5226  1.7824
19548TIP3    H280136   6.159   4.910  15.406  1.1741 -0.0638 -1.1194
19549TIP3   OH280137   0.241   4.872  10.105  0.1948  0.1211  0.1204
19549TIP3    H180138   0.219   4.839  10.193  1.3109 -1.6210 -0.2260
19549TIP3    H280139   0.336   4.879  10.105  0.1931  0.1850 -0.9350
19550TIP3   OH280140   3.242   5.447   2.700 -0.4252  0.0133  0.5624
19550TIP3    H180141   3.166   5.435   2.643 -0.1830  2.0113 -0.2209
19550TIP3    H280142   3.316   5.412   2.650 -0.5056  0.0198  0.4399
19551TIP3   OH280143   2.038   0.053  14.172  0.0949  0.3498  0.1923
19551TIP3    H180144   2.019   0.141  14.205  0.5275  1.1111 -1.4981
19551TIP3    H280145   2.133   0.047  14.172  0.0954  0.2642 -0.6172
19552TIP3   OH280146   5.836   2.591  16.315 -0.1322 -0.0786  0.5455
19552TIP3    H180147   5.899   2.574  16.384  2.0369  1.3384 -1.0018
19552TIP3    H280148   5.827   2.687  16.313 -0.0385 -0.0839 -1.1959
19553TIP3   OH280149   6.324   1.562   3.771 -0.2966 -0.1221  0.0084
19553TIP3    H180150   6.378   1.512   3.711 -0.3328  0.1409 -0.2432
19553TIP3    H280151   6.251   1.504   3.793 -1.1000  0.3297 -1.3972
19554TIP3   OH280152   4.822   0.951  13.622 -0.1607 -0.0137  0.3321
19554TIP3    H180153   4.795   1.022  13.681 -1.9373 -0.0279 -0.4310
19554TIP3    H280154   4.821   0.991  13.535  0.2258 -0.5959  0.0600
19555TIP3   OH280155   0.010   6.603  15.751  0.2317  0.1667  0.0167
19555TIP3    H180156   0.103   6.593  15.770  0.2782  1.2706  0.4471
19555TIP3    H280157  -0.027   6.641  15.831 -0.5104  0.0870 -0.2836
19556TIP3   OH280158   4.528   2.544  12.017  0.0450  0.0859 -0.7051
19556TIP3    H180159   4.549   2.471  12.074 -3.4683  0.7563  1.6084
19556TIP3    H280160   4.549   2.622  12.069 -2.6695  0.7004 -0.4669
19557TIP3   OH280161   1.385   0.187  14.735  0.1393 -0.3247  0.0154
19557TIP3    H180162   1.341   0.264  14.771  1.1267  0.3497 -0.1787
19557TIP3    H280163   1.396   0.128  14.810  1.1155  0.5626  0.5918
19558TIP3   OH280164   0.661   0.071  16.382 -0.3417 -0.7659 -0.5653
19558TIP3    H180165   0.650   0.143  16.445 -1.2975 -0.9562 -0.5048
19558TIP3    H280166   0.721   0.106  16.316 -0.1588 -0.1951 -0.1005
19559TIP3   OH280167   1.255   3.073  15.327 -0.6959 -0.2065  0.0599
19559TIP3    H180168   1.267   3.071  15.421 -2.1257 -0.3329  0.2482
19559TIP3    H280169   1.342   3.057  15.291 -0.4348 -1.7765  1.3568
19560TIP3   OH280170   1.126   5.017   5.711 -0.0094 -0.1679  0.0382
19560TIP3    H180171   1.207   5.033   5.759 -0.6812 -1.3903  1.6414
19560TIP3    H280172   1.153   5.004   5.621  1.3945  1.1559  0.2607
19561TIP3   OH280173   1.846   0.592   6.133 -0.1439  0.0532 -0.2999
19561TIP3    H180174   1.869   0.530   6.064 -2.3153  1.7627 -2.6434
19561TIP3    H280175   1.924   0.645   6.145  1.0793 -1.8413  0.3553
19562TIP3   OH280176   2.471   2.468   2.840 -0.4346 -0.4122  0.2752
19562TIP3    H180177   2.538   2.460   2.773 -0.6297 -1.0913  0.1562
19562TIP3    H280178   2.403   2.407   2.813 -1.0310  0.1503  0.4796
19563TIP3   OH280179   6.792   5.319   1.079 -0.2173  0.4014  0.1327
19563TIP3    H180180   6.825   5.230   1.092 -1.6410 -0.0749  0.6071
19563TIP3    H280181   6.717   5.325   1.138 -2.0187  0.8584 -2.1224
19564TIP3   OH280182   6.306   1.733   4.046  1.1129  0.3120  0.3274
19564TIP3    H180183   6.304   1.662   3.982  1.3890  0.9561 -0.3992
19564TIP3    H280184   6.233   1.714   4.105 -0.2907  0.7123 -1.2544
19565TIP3   OH280185   3.128   0.747   2.557 -0.3693  0.1601  0.2970
19565TIP3    H180186   3.118   0.678   2.492 -2.3467  0.8479 -0.1679
19565TIP3    H280187   3.159   0.823   2.508 -1.3833  0.5398  0.2454
19566TIP3   OH280188   6.439   0.629  11.182 -0.2445  0.1158  0.2132
19566TIP3    H180189   6.492   0.556  11.150  0.0212 -0.0057  0.9195
19566TIP3    H280190   6.356   0.621  11.134  0.4234  0.4004 -0.9953
19567TIP3   OH280191   5.876   4.156   0.693 -0.2042 -0.1601 -0.1618
19567TIP3    H180192   5.939   4.201   0.638 -0.8649  0.1143 -0.7104
19567TIP3    H280193   5.927   4.119   0.765  0.0827  3.2384  1.4589
19568TIP3   OH280194   6.609   6.346   3.221 -0.3924  0.7215  0.4367
19568TIP3    H180195   6.604   6.300   3.137 -1.2666  1.2507  0.1873
19568TIP3    H280196   6.540   6.413   3.216 -0.7493  0.4790  1.7349
19569TIP3   OH280197   6.054   3.324  11.330 -0.3416 -0.1787 -0.5765
19569TIP3    H180198   6.005   3.258  11.379 -0.9636  1.0826  0.5335
19569TIP3    H280199   6.076   3.391  11.395  1.1028  0.2614 -1.4883
19570TIP3   OH280200   2.348   0.433  11.583 -0.1562  0.1901 -0.2761
19570TIP3    H180201   2.317   0.392  11.502  0.3065 -0.2066 -0.2561
19570TIP3    H280202   2.444   0.431  11.576 -0.1179  0.3607  0.1738
19571TIP3   OH280203   2.845   1.788   2.755  0.4572  0.7623 -0.4244
19571TIP3    H180204   2.785   1.820   2.687  1.1295  0.7873 -1.0138
19571TIP3    H280205   2.809   1.705   2.783 -0.2636  1.1361 -0.2487
19572TIP3   OH280206   2.984   0.388   2.895 -0.2970 -0.3057 -0.5369
19572TIP3    H180207   3.018   0.321   2.955 -0.5689 -0.6666 -0.7862
19572TIP3    H280208   3.062   0.426   2.855 -0.0934  0.1849  0.3113
19573TIP3   OH280209   6.325   1.742   1.946 -0.6471 -0.0705  0.0238
19573TIP3    H180210   6.393   1.731   2.012 -2.3208 -0.2160  1.7408
19573TIP3    H280211   6.283   1.825   1.969  0.4250  1.2281 -2.4235
19574TIP3   OH280212   2.335   0.483   3.055  0.2487  0.2063  0.8167
19574TIP3    H180213   2.412   0.428   3.071 -0.2302 -0.0513  2.3313
19574TIP3    H280214   2.335   0.498   2.961  3.2369  1.7937  1.0041
19575TIP3   OH280215   4.537   2.491   2.863  0.0857 -0.4705 -0.0262
19575TIP3    H180216   4.590   2.567   2.889  0.2566 -1.0557  1.3820
19575TIP3    H280217   4.556   2.479   2.770  0.4368  0.9104 -0.1447
19576TIP3   OH280218   3.763   6.090  13.820 -0.1594  0.1925 -0.2913
19576TIP3    H180219   3.738   6.159  13.758  1.1890  1.0861  0.1191
19576TIP3    H280220   3.755   6.009  13.770 -3.0709  0.5060 -0.3827
19577TIP3   OH280221   0.873   3.759  15.615  0.5909 -0.0956 -0.0517
19577TIP3    H180222   0.947   3.716  15.573  1.0598 -1.1686  1.8355
19577TIP3    H280223   0.860   3.711  15.697 -1.4354  0.8321  0.2002
19578TIP3   OH280224   4.856   2.026  11.231 -0.5165  0.2584 -0.4298
19578TIP3    H180225   4.883   2.109  11.270 -3.4193  0.1767  1.9295
19578TIP3    H280226   4.811   2.051  11.150 -0.2023  0.8910 -0.4110
19579TIP3   OH280227   4.263   1.413  12.705  0.4511 -0.1134  0.1485
19579TIP3    H180228   4.169   1.424  12.719 -0.2853 -2.2237 -2.6547
19579TIP3    H280229   4.271   1.327  12.665  3.4218  0.7301 -1.2063
19580TIP3   OH280230   6.285   1.598  11.086  0.4754 -0.3044  0.7178
19580TIP3    H180231   6.271   1.618  11.178 -1.9470  0.9282  0.1401
19580TIP3    H280232   6.203   1.559  11.057  0.9058  0.0692 -1.0980
19581TIP3   OH280233   3.265   4.954   6.792  0.2477 -0.5194  0.3609
19581TIP3    H180234   3.183   4.949   6.841  1.3714 -1.9168  2.1742
19581TIP3    H280235   3.239   4.938   6.701 -1.6182  0.1502  0.7431
19582TIP3   OH280236   5.885   4.642   0.668  0.0773 -0.5056  0.0255
19582TIP3    H180237   5.909   4.644   0.575 -3.1652  0.8527 -0.8710
19582TIP3    H280238   5.880   4.734   0.693  0.2725 -0.8557  1.3848
19583TIP3   OH280239   2.533   4.595   2.831  0.0643 -0.2855  0.6598
19583TIP3    H180240   2.591   4.649   2.777  0.9515 -0.2052  1.6650
19583TIP3    H280241   2.592   4.531   2.872 -0.4201  0.3586  2.3918
19584TIP3   OH280242   1.640   0.629   4.688  0.7549  0.0531  0.3505
19584TIP3    H180243   1.672   0.547   4.726 -0.0579 -0.3073  0.2748
19584TIP3    H280244   1.604   0.603   4.603 -2.4585 -0.0883  1.6620
19585TIP3   OH280245   0.934   0.689  13.155  0.0098  0.3409 -0.4757
19585TIP3    H180246   0.922   0.746  13.232 -2.8530  1.1238 -1.4485
19585TIP3    H280247   0.996   0.737  13.100  0.0609  1.0356  0.1667
19586TIP3   OH280248   5.666   1.761  13.814  0.1409 -0.0382 -0.0671
19586TIP3    H180249   5.573   1.752  13.833  0.2378  1.4466  1.2503
19586TIP3    H280250   5.699   1.671  13.811 -1.0076 -0.5138  1.1410
19587TIP3   OH280251   4.138   4.281  17.043  0.2059  0.4392  0.1209
19587TIP3    H180252   4.167   4.222  17.113  0.1433 -1.3927 -1.3644
19587TIP3    H280253   4.204   4.349  17.040  1.0995 -0.3891  0.8553
19588TIP3   OH280254   5.959   0.964  15.175  0.3141 -0.6653 -0.0455
19588TIP3    H180255   5.954   0.912  15.255 -2.2968  0.4419  0.5244
19588TIP3    H280256   6.011   1.041  15.199 -0.8050 -0.1401  0.6830
19589TIP3   OH280257   1.288   4.789  16.269 -0.5251  0.4158 -0.0470
19589TIP3    H180258   1.348   4.826  16.204 -1.4024  0.6901 -0.7129
19589TIP3    H280259   1.258   4.708  16.229 -1.5310  0.8851 -0.2446
19590TIP3   OH280260   0.071   4.163   1.357  0.3318 -0.0064  0.1568
19590TIP3    H180261   0.122   4.148   1.436 -0.0416 -1.0565  0.1988
19590TIP3    H280262   0.132   4.149   1.285  0.1609 -1.0738  0.2121
19591TIP3   OH280263   0.619   4.424   6.412  0.1539  0.0905 -0.4617
19591TIP3    H180264   0.676   4.498   6.389  1.1054 -0.0030  1.5162
19591TIP3    H280265   0.667   4.347   6.383 -0.0358  0.1321 -0.8995
19592TIP3   OH280266   0.556   2.607   3.575 -0.6936  0.0981  0.3472
19592TIP3    H180267   0.628   2.669   3.570  0.3056 -1.2084 -2.1714
19592TIP3    H280268   0.598   2.521   3.566 -2.6818 -0.6114 -2.4565
19593TIP3   OH280269   0.628   5.658   1.972 -0.1458  0.5420  0.1385
19593TIP3    H180270   0.628   5.628   2.063 -1.7411  1.9555  0.6339
19593TIP3    H280271   0.535   5.668   1.950  0.2039 -0.1700 -1.7817
19594TIP3   OH280272   1.783   1.373  14.577  0.1453  0.2946  0.1378
19594TIP3    H180273   1.856   1.388  14.516 -0.1603 -0.9110 -0.5551
19594TIP3    H280274   1.793   1.282  14.604 -0.4121  0.4797  0.9731
19595TIP3   OH280275   5.889   2.334  16.244 -0.5422 -0.2349  0.4508
19595TIP3    H180276   5.855   2.416  16.279  0.2553  0.5137 -0.5334
19595TIP3    H280277   5.939   2.359  16.167  0.4747 -1.5539  0.6632
19596TIP3   OH280278   6.710   6.660   0.992  0.2772  0.0175 -0.1584
19596TIP3    H180279   6.635   6.708   0.957 -0.1637 -0.3926  0.2071
19596TIP3    H280280   6.684   6.568   0.986  1.2766 -0.2056 -1.2417
19597TIP3   OH280281   5.113   1.917  12.757 -0.1012 -0.0460  0.1711
19597TIP3    H180282   5.198   1.873  12.761 -0.4889 -0.6715  2.9073
19597TIP3    H280283   5.059   1.869  12.819 -1.2772  2.7609  1.4323
19598TIP3   OH280284   0.060   3.691   0.224  0.2253  0.6392  0.0836
19598TIP3    H180285  -0.007   3.715   0.160  1.0258  2.2538 -0.1665
19598TIP3    H280286   0.132   3.655   0.171 -0.1019 -0.2982  0.2783
19599TIP3   OH280287   6.434   1.369   0.834 -0.7096 -0.7930  0.1465
19599TIP3    H180288   6.366   1.301   0.840 -1.9355  0.5149  1.3089
19599TIP3    H280289   6.402   1.429   0.767  0.2289 -1.1788 -0.6598
19600TIP3   OH280290   2.667   0.552   5.533 -0.0663 -0.7406  0.0408
19600TIP3    H180291   2.729   0.495   5.579  0.2351 -0.5689 -0.1530
19600TIP3    H280292   2.688   0.540   5.441  0.5255  0.2828  0.0309
19601TIP3   OH280293   0.943   0.405  12.682  0.2122  0.2942 -0.1095
19601TIP3    H180294   0.891   0.463  12.736 -3.5995 -1.1411 -2.0152
19601TIP3    H280295   0.987   0.346  12.744 -0.0694  1.8169  1.5558
19602TIP3   OH280296   4.949   2.891   4.418  0.4043 -0.5919 -0.2439
19602TIP3    H180297   4.867   2.893   4.369 -0.3126 -1.3155  0.9093
19602TIP3    H280298   5.016   2.873   4.352 -0.2688  0.6745 -1.2986
19603TIP3   OH280299   1.306   0.190   4.386  0.2617 -0.0524 -0.1297
19603TIP3    H180300   1.401   0.185   4.398  0.2813 -0.4732 -0.4342
19603TIP3    H280301   1.274   0.102   4.407 -0.0982  0.1659  0.2577
19604TIP3   OH280302   2.262   6.238   3.591 -0.2832  0.3181  0.2840
19604TIP3    H180303   2.168   6.254   3.578 -0.6096  1.1387  3.1189
19604TIP3    H280304   2.266   6.163   3.651  1.0000 -2.1446 -2.7874
19605TIP3   OH280305   2.909   4.086  12.569  0.6305 -0.2102  0.3660
19605TIP3    H180306   2.973   4.139  12.522  1.9655 -1.1511  1.0744
19605TIP3    H280307   2.826   4.131  12.557  0.8485 -0.6746 -3.2277
19606TIP3   OH280308   1.733   1.255  14.183 -0.3272  0.1835 -0.8406
19606TIP3    H180309   1.647   1.216  14.199 -0.6844  1.2113 -0.2122
19606TIP3    H280310   1.783   1.186  14.139 -0.0646 -1.9232  2.5990
19607TIP3   OH280311   5.996   4.531   4.654  0.2682  0.2643  0.0042
19607TIP3    H180312   5.941   4.495   4.723  0.9143 -0.2271  0.2654
19607TIP3    H280313   6.085   4.506   4.678  0.4147 -0.6494 -1.4426
19608TIP3   OH280314   4.621   3.234   0.330 -0.3191 -0.3427  0.1634
19608TIP3    H180315   4.618   3.318   0.285  2.4797  1.0025  2.3729
19608TIP3    H280316   4.546   3.236   0.390 -1.3477 -0.2482 -1.0905
19609TIP3   OH280317   2.179   3.760   0.256  0.5004 -0.2178  0.0037
19609TIP3    H180318   2.118   3.805   0.315 -0.2355  0.6992 -1.4153
19609TIP3    H280319   2.169   3.667   0.276  0.3058  0.0937  1.3577
19610TIP3   OH280320   0.246   2.337  13.827 -0.2593  0.3997  0.3845
19610TIP3    H180321   0.185   2.411  13.828  0.0211  0.6523 -0.3472
19610TIP3    H280322   0.309   2.360  13.759  0.8498  0.2907  1.3752
19611TIP3   OH280323   0.545   4.642   5.443  0.5704  0.7214  0.4410
19611TIP3    H180324   0.516   4.561   5.400  2.1528 -0.8907  2.3044
19611TIP3    H280325   0.575   4.697   5.370  0.7216 -0.8986 -0.7718
19612TIP3   OH280326   3.302   2.188   3.541 -0.1414 -0.5765 -0.0499
19612TIP3    H180327   3.336   2.214   3.626 -1.9088 -1.4866  0.9558
19612TIP3    H280328   3.307   2.267   3.488 -0.4049  0.3885  1.3445
19613TIP3   OH280329   0.968   3.226   0.672 -0.0114 -0.8539 -0.2066
19613TIP3    H180330   0.914   3.159   0.629  0.5280 -1.1258 -0.4635
19613TIP3    H280331   0.926   3.238   0.757 -1.1125 -0.2811 -0.8106
19614TIP3   OH280332   3.678   5.431  12.789 -0.3785  0.3998  0.7330
19614TIP3    H180333   3.708   5.494  12.855 -1.3185 -0.1300  1.6895
19614TIP3    H280334   3.583   5.429  12.800 -0.7414  1.5508 -1.7663
19615TIP3   OH280335   3.097   3.783  13.683 -0.2175  0.1672  0.2688
19615TIP3    H180336   3.056   3.700  13.706  0.8016 -0.5449 -0.4175
19615TIP3    H280337   3.025   3.846  13.681 -0.8201 -0.4360  2.0145
19616TIP3   OH280338   5.814   3.172  16.235 -0.5610  0.8997 -0.8141
19616TIP3    H180339   5.845   3.239  16.296 -3.8923  0.5480  1.3852
19616TIP3    H280340   5.845   3.090  16.271  0.2304  0.9365 -1.3984
19617TIP3   OH280341   6.517   5.011   1.566  0.0187 -0.0074 -0.0740
19617TIP3    H180342   6.592   4.994   1.624 -0.0597 -0.3751 -0.0843
19617TIP3    H280343   6.494   5.102   1.584  0.6871  0.2163 -0.3191
19618TIP3   OH280344   5.693   5.836   6.820  0.8506  0.4040  0.3094
19618TIP3    H180345   5.626   5.855   6.886 -1.1966 -1.2954 -1.2216
19618TIP3    H280346   5.710   5.743   6.829 -0.9214 -0.2855 -2.8282
19619TIP3   OH280347   2.949   2.192  16.255  0.4016  0.4656 -0.3901
19619TIP3    H180348   2.922   2.252  16.186  1.0578  1.6317  0.3453
19619TIP3    H280349   2.973   2.249  16.329  0.1436 -0.7362  0.6407
19620TIP3   OH280350   3.747   5.636  13.774 -0.0190  0.3826  0.3006
19620TIP3    H180351   3.786   5.629  13.861  0.1404 -1.3056  0.1100
19620TIP3    H280352   3.796   5.705  13.730  1.0680  0.0189  0.9465
19621TIP3   OH280353   6.381   0.048   6.294  0.6139  0.2112  0.0040
19621TIP3    H180354   6.312   0.113   6.304 -1.1407 -1.7934  1.4809
19621TIP3    H280355   6.430   0.075   6.217 -1.6157  1.8603 -0.8577
19622TIP3   OH280356   1.745   0.677  16.276 -0.4640  0.6297 -0.0351
19622TIP3    H180357   1.712   0.719  16.196  0.4567 -0.4313 -0.9919
19622TIP3    H280358   1.840   0.685  16.270 -0.2850 -1.3180 -0.0904
19623TIP3   OH280359   5.837   6.049   0.713  0.8935  0.0475  0.4896
19623TIP3    H180360   5.894   5.986   0.667  2.4020 -1.1706  3.8639
19623TIP3    H280361   5.895   6.123   0.732 -0.1777  1.3148 -1.0107
19624TIP3   OH280362   4.585   5.144   3.651 -0.0024 -0.2193  0.0129
19624TIP3    H180363   4.493   5.128   3.630 -0.1603  0.9820 -0.2405
19624TIP3    H280364   4.583   5.216   3.713  0.7988  0.2070 -0.4476
19625TIP3   OH280365   1.762   1.572  14.776 -0.5373  0.4328 -0.4777
19625TIP3    H180366   1.674   1.598  14.805 -0.8885 -2.5034  1.2730
19625TIP3    H280367   1.747   1.519  14.698 -0.3236 -0.1655 -0.1120
19626TIP3   OH280368   3.890   4.568  13.005  0.2578  0.1590 -0.1277
19626TIP3    H180369   3.946   4.636  12.968  0.5600  0.0854  0.1941
19626TIP3    H280370   3.948   4.518  13.062  0.2358 -0.8567 -0.9705
19627TIP3   OH280371   1.466   4.725   0.615 -0.2265  0.1431  0.2197
19627TIP3    H180372   1.449   4.801   0.671  0.4096 -0.9677  1.9918
19627TIP3    H280373   1.380   4.699   0.584 -0.6848  0.4118  1.2231
19628TIP3   OH280374   3.939   5.706  11.445  0.2988 -0.2691  0.4178
19628TIP3    H180375   3.891   5.723  11.365 -0.9295 -1.6721  0.8240
19628TIP3    H280376   3.895   5.758  11.512  0.0588 -0.6758  0.5752
19629TIP3   OH280377   2.558   4.760   0.479 -0.0483 -0.4204 -0.4547
19629TIP3    H180378   2.630   4.817   0.452 -0.7628  0.1435 -1.2215
19629TIP3    H280379   2.567   4.753   0.574 -0.3750  1.6017 -0.2405
19630TIP3   OH280380   2.171   5.443   5.556 -0.7662  0.7196 -0.0812
19630TIP3    H180381   2.117   5.364   5.562  2.6738 -1.7801 -0.1788
19630TIP3    H280382   2.218   5.445   5.640  1.3621  0.9487 -1.2520
19631TIP3   OH280383   1.274   0.627   3.435 -0.7214 -0.3306  0.2527
19631TIP3    H180384   1.321   0.709   3.417 -1.9283  0.4139  0.3992
19631TIP3    H280385   1.323   0.587   3.507 -0.3596  0.4769  0.4671
19632TIP3   OH280386   5.698   0.458   0.724 -0.1212 -0.1971 -0.1953
19632TIP3    H180387   5.689   0.501   0.810 -0.8703 -2.0630  0.6913
19632TIP3    H280388   5.609   0.454   0.690 -0.1740 -1.6584  0.0676
19633TIP3   OH280389   0.070   6.272  12.914 -0.4603  0.0337  0.5833
19633TIP3    H180390   0.010   6.257  12.987 -1.5412 -0.1573 -0.3467
19633TIP3    H280391   0.030   6.341  12.863  0.3679  0.2591  0.2251
19634TIP3   OH280392   6.717   6.085   4.931  0.3217 -0.3949  0.2113
19634TIP3    H180393   6.674   6.023   4.990  0.1258 -0.2053  0.2661
19634TIP3    H280394   6.781   6.131   4.986  0.1920 -0.2710  0.2579
19635TIP3   OH280395   1.954   3.919   1.600 -0.0626 -0.0772 -0.1659
19635TIP3    H180396   1.988   4.007   1.617  3.7060 -1.6764  1.0869
19635TIP3    H280397   1.943   3.880   1.686 -1.8158 -0.8599 -0.7044
19636TIP3   OH280398   1.154   3.891  13.801 -0.1902  0.0617 -0.1029
19636TIP3    H180399   1.232   3.942  13.823 -0.1250 -0.1230  0.0935
19636TIP3    H280400   1.148   3.896  13.705  0.2330 -0.1759 -0.1409
19637TIP3   OH280401   1.486   0.125   3.127  0.0861 -0.3135  0.2889
19637TIP3    H180402   1.463   0.164   3.043  0.5531  1.0161  0.7684
19637TIP3    H280403   1.449   0.036   3.124  0.8853 -0.5955 -1.6694
19638TIP3   OH280404   3.585   1.441   5.391  0.1652 -0.1196  0.1624
19638TIP3    H180405   3.657   1.450   5.328 -0.8802  1.2994 -0.8511
19638TIP3    H280406   3.620   1.479   5.472  0.3924  1.0094 -0.4582
19639TIP3   OH280407   0.343   6.309  12.789  0.7183  0.6431 -0.4636
19639TIP3    H180408   0.260   6.344  12.760  0.2706 -0.2451 -0.2762
19639TIP3    H280409   0.342   6.319  12.885  0.9207  0.8341 -0.4812
19640TIP3   OH280410   1.260   6.362  14.822 -0.2216 -0.5990 -0.1253
19640TIP3    H180411   1.295   6.274  14.809 -2.6022 -1.4336 -0.9816
19640TIP3    H280412   1.197   6.374  14.751 -0.2391  1.6520  0.2239
19641TIP3   OH280413   2.349   4.918   0.754  0.2903  0.1230 -0.2143
19641TIP3    H180414   2.432   4.963   0.741  0.1345  0.1452 -1.1552
19641TIP3    H280415   2.290   4.986   0.787  0.6954  0.0544  0.6820
19642TIP3   OH280416   3.390   3.996   1.599 -0.4891  0.0010  0.3923
19642TIP3    H180417   3.342   4.036   1.527  0.6098 -1.1460 -0.9856
19642TIP3    H280418   3.412   3.908   1.569 -0.2027 -0.5798  2.2053
19643TIP3   OH280419   5.356   3.394  14.199  0.6953  0.3335  0.2125
19643TIP3    H180420   5.378   3.321  14.141 -1.0111 -0.6416  0.7804
19643TIP3    H280421   5.315   3.459  14.141  0.7643  0.1792 -0.0103
19644TIP3   OH280422   1.916   0.643   3.848  0.3508 -0.3542  0.2592
19644TIP3    H180423   1.954   0.570   3.799  0.3136 -0.4879  0.4268
19644TIP3    H280424   1.989   0.701   3.868  0.5331 -0.8003  0.9109
19645TIP3   OH280425   6.758   5.929   6.278  0.1968 -0.0109  0.0749
19645TIP3    H180426   6.806   5.872   6.216 -0.3589 -0.3936 -0.0062
19645TIP3    H280427   6.686   5.874   6.310 -0.7986  0.8991 -0.5826
19646TIP3   OH280428   2.096   6.645   0.169 -0.7724  0.2416 -0.4105
19646TIP3    H180429   2.035   6.714   0.142  0.1384  1.4175  0.5208
19646TIP3    H280430   2.080   6.634   0.262  0.4725  0.6020 -0.1430
19647TIP3   OH280431   1.396   5.155  11.719 -0.4509  0.5364  0.9441
19647TIP3    H180432   1.444   5.200  11.649 -0.4535 -1.8376 -0.6328
19647TIP3    H280433   1.413   5.209  11.797  0.3600  2.6868 -0.6539
19648TIP3   OH280434   2.030   5.455   2.280 -0.3820  0.4798 -0.3585
19648TIP3    H180435   2.022   5.387   2.346  0.1061 -0.9598 -1.7638
19648TIP3    H280436   1.994   5.534   2.322 -2.0955 -0.9117  0.8412
19649TIP3   OH280437   5.082   2.985  16.397 -0.0374 -0.3564  0.8989
19649TIP3    H180438   5.132   3.057  16.434  0.2592  0.4161 -0.9645
19649TIP3    H280439   4.991   3.004  16.421  0.0734  0.4917  0.6521
19650TIP3   OH280440   6.212   4.768  11.544  0.2053  0.2822 -0.5622
19650TIP3    H180441   6.174   4.760  11.456 -0.8325 -0.8050 -0.0388
19650TIP3    H280442   6.303   4.742  11.533 -0.4455 -1.9777 -0.9500
19651TIP3   OH280443   2.853   2.728   5.061 -0.1524  0.1557  0.2317
19651TIP3    H180444   2.940   2.710   5.026 -0.0397 -0.2858  0.7362
19651TIP3    H280445   2.849   2.677   5.142 -0.7853  0.3754  0.3381
19652TIP3   OH280446   5.701   1.145   5.276 -0.5357  0.2975 -0.3488
19652TIP3    H180447   5.669   1.116   5.361 -2.7806  2.3643 -0.4242
19652TIP3    H280448   5.630   1.123   5.215 -0.3169  1.6999 -1.1398
19653TIP3   OH280449   1.639   2.244  15.872 -0.6653  0.1932 -0.2222
19653TIP3    H180450   1.659   2.168  15.927  1.1410  1.7723  1.3527
19653TIP3    H280451   1.573   2.293  15.921 -2.1798 -0.5622 -1.4533
19654TIP3   OH280452   6.628   5.146  16.301 -0.0849 -0.1983  0.1264
19654TIP3    H180453   6.682   5.079  16.344  0.3517  0.8811  1.2705
19654TIP3    H280454   6.606   5.208  16.370 -1.5335  0.1901 -0.6662
19655TIP3   OH280455   1.604   1.692   1.848 -0.6720  0.2807  0.5815
19655TIP3    H180456   1.641   1.775   1.818  1.9914 -1.5011 -1.2864
19655TIP3    H280457   1.637   1.681   1.937  1.4451 -0.1902 -0.2454
19656TIP3   OH280458   4.567   6.719  10.320  0.0879 -0.6329 -0.4429
19656TIP3    H180459   4.484   6.670  10.319 -0.2956 -0.0575  1.1365
19656TIP3    H280460   4.577   6.746  10.411  1.5304  0.1534 -0.8251
19657TIP3   OH280461   2.055   0.002  11.465  0.2876 -0.3176  0.0240
19657TIP3    H180462   1.961  -0.008  11.481 -0.0963 -0.4705 -2.1184
19657TIP3    H280463   2.060   0.048  11.381  2.1386 -0.5650 -0.0204
19658TIP3   OH280464   0.520   2.830   5.294 -0.7841 -0.5715 -0.2501
19658TIP3    H180465   0.604   2.803   5.257 -0.0455  0.1470  0.8513
19658TIP3    H280466   0.454   2.785   5.242  0.3330 -2.0613 -0.3786
19659TIP3   OH280467   3.641   0.478   1.299  0.1580  0.1842 -0.1784
19659TIP3    H180468   3.599   0.402   1.340  1.5017  0.0561  0.9867
19659TIP3    H280469   3.585   0.552   1.322 -1.6390 -0.5427 -2.0365
19660TIP3   OH280470   5.281   2.275   4.463 -0.3318 -0.4335 -0.2668
19660TIP3    H180471   5.255   2.249   4.375  1.4367 -0.2269 -0.8793
19660TIP3    H280472   5.210   2.331   4.494 -1.4936 -1.4308 -1.1250
19661TIP3   OH280473   2.096   6.758  15.700  0.2142  0.5238 -0.1654
19661TIP3    H180474   2.130   6.828  15.645  0.5068 -0.1603 -0.8637
19661TIP3    H280475   2.062   6.803  15.778  3.3915  1.1465  0.9307
19662TIP3   OH280476   6.080   1.130   2.761  0.2247  0.2801 -0.4356
19662TIP3    H180477   6.051   1.115   2.851  1.2438  2.7217  0.3389
19662TIP3    H280478   6.091   1.042   2.724 -1.0270 -0.7296  1.5436
19663TIP3   OH280479   0.557   0.647   0.171  0.1265 -0.5898  0.0070
19663TIP3    H180480   0.639   0.646   0.123 -0.6873 -1.0279 -1.3991
19663TIP3    H280481   0.523   0.557   0.163 -0.2035 -0.5746  1.0845
19664TIP3   OH280482   0.510   3.898  10.833  0.3630 -0.3847 -0.2165
19664TIP3    H180483   0.590   3.847  10.835  0.9200  0.2953 -2.7932
19664TIP3    H280484   0.539   3.988  10.849 -0.0384 -0.3022  0.0454
19665TIP3   OH280485   0.543   0.134   0.929 -0.9230 -0.3255  0.4451
19665TIP3    H180486   0.461   0.109   0.885 -1.7141  1.6169  0.7857
19665TIP3    H280487   0.535   0.228   0.943  2.2693  0.2671 -1.3548
19666TIP3   OH280488   3.742   5.689   3.353  0.5095 -0.3056  0.7860
19666TIP3    H180489   3.709   5.711   3.441 -2.2413 -0.9136 -0.0512
19666TIP3    H280490   3.747   5.594   3.352 -0.0255 -0.3269  0.0772
19667TIP3   OH280491   0.780   0.713   5.669  0.5007 -0.0694 -0.4837
19667TIP3    H180492   0.820   0.699   5.754  1.2508 -0.0170 -0.8253
19667TIP3    H280493   0.726   0.791   5.680 -2.6337 -2.3449  1.0647
19668TIP3   OH280494   3.919   1.403   1.913  0.1949 -0.1792 -0.2808
19668TIP3    H180495   3.995   1.357   1.877  0.2879  0.3455 -0.7623
19668TIP3    H280496   3.953   1.489   1.939 -0.5011  0.5768 -1.7654
19669TIP3   OH280497   1.659   6.537  14.984  0.5961 -0.4514 -0.1048
19669TIP3    H180498   1.660   6.544  15.079  1.2562 -0.1244 -0.1331
19669TIP3    H280499   1.745   6.567  14.957  0.3135 -0.2841 -0.8267
19670TIP3   OH280500   3.967   4.547   2.966  0.6300 -0.2215  0.1544
19670TIP3    H180501   4.060   4.554   2.987  0.6818  2.0576 -0.6644
19670TIP3    H280502   3.964   4.489   2.889  1.2725 -1.1164  0.8015
19671TIP3   OH280503   6.367   4.309   3.768 -0.5442 -0.3363  0.1123
19671TIP3    H180504   6.332   4.334   3.854 -1.7825 -1.2520 -0.1154
19671TIP3    H280505   6.370   4.214   3.770  0.1231 -0.3381 -0.6028
19672TIP3   OH280506   1.655   5.515   1.161  0.2404  0.9255  0.6096
19672TIP3    H180507   1.662   5.609   1.143 -0.3643  0.7048 -0.7698
19672TIP3    H280508   1.564   5.492   1.141  0.7538 -0.2459 -0.4656
19673TIP3   OH280509   2.038   1.329   6.005 -0.5540 -0.0759  0.0827
19673TIP3    H180510   1.993   1.393   6.060  1.2033 -0.3393  1.8891
19673TIP3    H280511   1.969   1.292   5.950 -2.3909  0.1648  2.1607
19674TIP3   OH280512   0.085   0.410  13.985  0.3893 -0.1818 -0.1160
19674TIP3    H180513   0.174   0.417  14.022  1.3270 -0.6541 -2.2356
19674TIP3    H280514   0.043   0.341  14.036  1.8743 -1.2586 -0.3353
19675TIP3   OH280515   3.976   4.427   0.481 -0.1154  0.0458 -0.2507
19675TIP3    H180516   4.055   4.423   0.536 -0.9042 -1.5164  0.8182
19675TIP3    H280517   3.965   4.520   0.461 -0.5054  0.8448  3.3135
19676TIP3   OH280518   4.173   2.449  11.762 -0.1302  0.0097 -0.5877
19676TIP3    H180519   4.106   2.387  11.733 -2.0703  0.4536  2.6226
19676TIP3    H280520   4.225   2.468  11.684 -3.4179 -0.7808 -3.0596
19677TIP3   OH280521   4.822   1.846   2.475  0.2130  0.4947 -0.2043
19677TIP3    H180522   4.753   1.885   2.422  0.9055  0.2557 -1.2836
19677TIP3    H280523   4.785   1.763   2.504 -0.1696  0.6310 -0.2897
19678TIP3   OH280524   2.078   2.989  11.977  0.1168  0.4052 -0.3128
19678TIP3    H180525   2.012   2.985  11.908  1.3558 -0.4299 -1.4769
19678TIP3    H280526   2.119   3.075  11.967 -0.0051  0.4597 -0.3375
19679TIP3   OH280527   4.013   0.388  14.072 -0.1857 -0.4108 -0.2977
19679TIP3    H180528   4.061   0.306  14.079  1.8861  0.6502 -1.4971
19679TIP3    H280529   4.044   0.440  14.147 -2.0508 -0.9904  0.8906
19680TIP3   OH280530   0.109   4.473  14.919 -0.1001  0.0554 -0.4271
19680TIP3    H180531   0.155   4.456  14.837 -0.6600  0.7407 -0.8838
19680TIP3    H280532   0.176   4.512  14.976 -0.0726  0.9437 -1.0506
19681TIP3   OH280533   0.557   5.488   3.639  0.3289  0.0052  0.7908
19681TIP3    H180534   0.556   5.452   3.728 -0.2785 -0.6305  0.5333
19681TIP3    H280535   0.526   5.578   3.649  1.0601  0.2041  1.3309
19682TIP3   OH280536   0.810   5.082   1.833  0.6715  0.6877 -0.4455
19682TIP3    H180537   0.885   5.068   1.891  0.5502  1.8119 -0.0186
19682TIP3    H280538   0.849   5.103   1.748  0.8332  0.4051 -0.4447
19683TIP3   OH280539   5.235   1.474  15.222 -0.4881 -0.0191 -0.0554
19683TIP3    H180540   5.225   1.569  15.217 -1.9597 -0.1054  0.8765
19683TIP3    H280541   5.194   1.441  15.142  2.1510  0.2489 -1.5508
19684TIP3   OH280542   0.747   6.687  14.111  0.0922  0.3444  0.2483
19684TIP3    H180543   0.833   6.727  14.096 -0.0081  0.3342 -0.3786
19684TIP3    H280544   0.763   6.621  14.179  0.4600  0.7423  0.5527
19685TIP3   OH280545   5.222   3.306   4.717 -0.1864  0.0101  0.6527
19685TIP3    H180546   5.186   3.235   4.664 -2.2205  0.9880  0.6850
19685TIP3    H280547   5.234   3.267   4.804 -1.2780 -0.2998  0.6679
19686TIP3   OH280548   0.819   3.653   0.573  0.2871  0.2462  0.1786
19686TIP3    H180549   0.809   3.578   0.514  0.1499  0.5636 -0.1988
19686TIP3    H280550   0.730   3.679   0.595  0.3284  0.5426  0.0015
19687TIP3   OH280551   1.255   2.536  16.442 -0.2850  0.5611 -0.4360
19687TIP3    H180552   1.233   2.448  16.411 -1.0665  0.6526 -0.1573
19687TIP3    H280553   1.175   2.567  16.485  0.3466  0.9644  0.4717
19688TIP3   OH280554   6.316   5.726  14.321 -0.2579  0.5989 -0.1713
19688TIP3    H180555   6.324   5.634  14.348 -0.2070  0.9259  0.9434
19688TIP3    H280556   6.365   5.774  14.387 -0.0442  1.4138 -0.9138
19689TIP3   OH280557   5.347   2.623   2.610 -0.0715  0.6227 -0.2189
19689TIP3    H180558   5.359   2.582   2.524  1.2172  1.8898 -0.6601
19689TIP3    H280559   5.290   2.697   2.594 -0.5832  0.3252  0.1949
19690TIP3   OH280560   5.912   0.743   2.467 -0.3209 -0.3922  0.5319
19690TIP3    H180561   5.827   0.705   2.447 -0.0853 -0.7232  0.1549
19690TIP3    H280562   5.892   0.822   2.518 -0.9893  1.0479 -1.8687
19691TIP3   OH280563   0.932   5.769  16.719  0.2798 -0.5842  0.1648
19691TIP3    H180564   1.007   5.723  16.681 -1.0412 -1.1651 -1.8020
19691TIP3    H280565   0.939   5.859  16.686  1.2210 -0.1156  1.6196
19692TIP3   OH280566   3.261   0.564  13.953 -0.2859  0.1979  0.0962
19692TIP3    H180567   3.321   0.535  13.884 -1.2913 -0.4573 -0.5058
19692TIP3    H280568   3.257   0.659  13.944  0.0939  0.1727 -0.3257
19693TIP3   OH280569   2.970   3.685   1.383  0.1474  0.4216  0.4870
19693TIP3    H180570   2.975   3.759   1.323 -0.9000  1.6813  1.9059
19693TIP3    H280571   3.030   3.620   1.347  0.0513  1.4241 -1.5259
19694TIP3   OH280572   6.401   2.972  13.364 -0.8811  0.0036  0.7266
19694TIP3    H180573   6.423   3.065  13.360 -0.9358  0.0033  0.3493
19694TIP3    H280574   6.460   2.936  13.430  0.2539  0.0050 -0.2727
19695TIP3   OH280575   4.924   5.509  14.526  0.3095 -0.1275 -0.3382
19695TIP3    H180576   4.910   5.603  14.510 -2.0856 -0.4934 -0.6058
19695TIP3    H280577   4.918   5.469  14.440  0.1529 -0.6543 -0.0837
19696TIP3   OH280578   5.741   1.039  17.112 -0.2840  0.1565 -0.2744
19696TIP3    H180579   5.759   0.979  17.039  0.5021 -0.7811  0.6636
19696TIP3    H280580   5.688   0.987  17.172 -0.1966  0.6303  0.2150
19697TIP3   OH280581   4.895   5.459   3.464  0.6701 -0.1551 -0.0387
19697TIP3    H180582   4.854   5.378   3.434 -0.2727 -0.8998  3.0876
19697TIP3    H280583   4.844   5.529   3.422 -1.9346 -1.1181  1.4403
19698TIP3   OH280584   5.410   2.498  15.020  0.6346 -0.1810 -0.2145
19698TIP3    H180585   5.505   2.499  15.032  0.3288 -1.5454  2.4298
19698TIP3    H280586   5.387   2.406  15.013 -0.5310  0.1456 -0.8760
19699TIP3   OH280587   0.004   1.471   2.622  0.1055 -0.4531 -0.6910
19699TIP3    H180588   0.077   1.425   2.663 -0.3302 -1.0442 -0.5801
19699TIP3    H280589  -0.073   1.444   2.671  0.3731  4.3222  2.7612
19700TIP3   OH280590   4.439   4.594  13.060 -0.1408  0.0393 -0.3359
19700TIP3    H180591   4.367   4.543  13.023  0.8780 -2.0296  0.4683
19700TIP3    H280592   4.518   4.558  13.020  0.4379  2.6067 -1.5704
19701TIP3   OH280593   5.767   0.790  11.838  0.1120  0.0794  0.2322
19701TIP3    H180594   5.767   0.733  11.915 -0.7179 -1.7284 -1.0809
19701TIP3    H280595   5.802   0.873  11.870 -0.8646 -0.4230  2.7295
19702TIP3   OH280596   1.995   4.051   4.787  0.0424 -0.2272  0.4323
19702TIP3    H180597   2.054   4.038   4.712 -0.7130  2.7010 -0.7620
19702TIP3    H280598   2.033   4.126   4.834 -0.4575 -0.9483  2.0025
19703TIP3   OH280599   5.333   0.734  12.391  0.1597  0.0760 -0.3292
19703TIP3    H180600   5.269   0.686  12.443 -0.1698  1.0668  0.1722
19703TIP3    H280601   5.389   0.665  12.354 -0.1599 -0.6877  0.5830
19704TIP3   OH280602   3.004   6.606  10.757  0.6983 -0.1972  0.0703
19704TIP3    H180603   2.932   6.597  10.695  0.0831  1.4781  0.5172
19704TIP3    H280604   3.077   6.641  10.706  0.6171 -0.1356 -0.0022
19705TIP3   OH280605   4.600   2.391  16.864 -0.3692 -0.3598 -0.5114
19705TIP3    H180606   4.541   2.465  16.876  0.7797  0.0569  3.1291
19705TIP3    H280607   4.686   2.425  16.891  1.0954 -1.6567 -3.3504
19706TIP3   OH280608   1.549   5.253  16.948 -0.0563 -0.1615  0.1442
19706TIP3    H180609   1.630   5.303  16.950 -0.4724  0.4736  1.0834
19706TIP3    H280610   1.481   5.316  16.968 -0.7207 -0.8346  0.0336
19707TIP3   OH280611   3.900   0.195   4.695 -0.4332 -0.0495  0.2514
19707TIP3    H180612   3.987   0.236   4.699  0.2232 -1.5202  1.9103
19707TIP3    H280613   3.880   0.189   4.602  0.6505  1.5511 -0.0952
19708TIP3   OH280614   3.538   1.588   6.071  0.4207 -0.6103 -0.5816
19708TIP3    H180615   3.544   1.555   5.982 -0.9313  0.8533 -1.2303
19708TIP3    H280616   3.485   1.667   6.064  1.8126  0.5305  1.2464
19709TIP3   OH280617   3.022   6.417   0.382 -0.4048 -0.1385  0.4598
19709TIP3    H180618   3.084   6.352   0.350 -1.0700 -0.8848  0.6839
19709TIP3    H280619   2.991   6.462   0.303  0.3462  0.1768  0.3401
19710TIP3   OH280620   0.152   2.181  15.014 -0.3766 -0.4354 -0.2444
19710TIP3    H180621   0.225   2.222  15.061 -1.0337  1.5155 -0.8460
19710TIP3    H280622   0.181   2.176  14.923 -0.6692 -0.3750 -0.3440
19711TIP3   OH280623   2.662   2.192   5.715  0.4786  0.1900  0.3167
19711TIP3    H180624   2.745   2.173   5.672  2.0226 -0.9665  3.6268
19711TIP3    H280625   2.604   2.121   5.686  0.9365  0.4060 -1.1773
19712TIP3   OH280626   1.104   1.853  11.639  0.5446  0.1677 -0.0194
19712TIP3    H180627   1.013   1.873  11.663  0.5223  0.4972 -0.3770
19712TIP3    H280628   1.097   1.799  11.561  0.5446 -2.7677  1.9349
19713TIP3   OH280629   3.887   0.442  15.318  0.5894  0.0689 -0.8216
19713TIP3    H180630   3.889   0.392  15.237 -0.5353 -0.2447 -0.6628
19713TIP3    H280631   3.804   0.419  15.359  0.6792  1.0072 -0.0746
19714TIP3   OH280632   5.383   6.346   5.993  0.2144  0.0779 -0.1430
19714TIP3    H180633   5.292   6.377   5.988 -0.5563 -2.1843 -0.6661
19714TIP3    H280634   5.429   6.399   5.928 -1.0293  0.3056 -0.8621
19715TIP3   OH280635   2.119   0.690   4.739  0.3773 -0.4106  0.1931
19715TIP3    H180636   2.098   0.771   4.691 -0.6350  0.5872  2.2645
19715TIP3    H280637   2.042   0.674   4.793  0.9393 -2.3034  0.4475
19716TIP3   OH280638   4.082   6.618   4.647 -0.1154 -0.1103  0.0749
19716TIP3    H180639   4.121   6.667   4.720  0.7471 -0.3289 -0.2354
19716TIP3    H280640   4.097   6.526   4.669 -0.1056 -0.1839 -0.2444
19717TIP3   OH280641   0.185   4.276  13.856 -0.2380  0.6935  0.0201
19717TIP3    H180642   0.175   4.182  13.844  2.1842  0.5205 -0.9272
19717TIP3    H280643   0.185   4.289  13.951 -1.7426 -0.1050  0.1393
19718TIP3   OH280644   0.313   2.006   2.794 -0.1917 -0.4566 -0.0252
19718TIP3    H180645   0.401   1.990   2.827 -0.4198 -0.6490  0.4929
19718TIP3    H280646   0.325   2.062   2.718  0.3366 -0.0353  0.3734
19719TIP3   OH280647   0.837   0.787   3.907  0.4393  0.0372  0.3553
19719TIP3    H180648   0.856   0.844   3.833  0.3749  1.4309  1.3872
19719TIP3    H280649   0.743   0.773   3.904  0.4156  0.2231  0.2651
19720TIP3   OH280650   6.260   0.415   1.761  0.0353 -0.1108 -0.0412
19720TIP3    H180651   6.338   0.389   1.810  0.7197  0.0042 -1.0596
19720TIP3    H280652   6.187   0.391   1.818  0.7871 -0.7859  0.6512
19721TIP3   OH280653   0.532   1.523   5.711 -0.2701  0.0935 -0.4461
19721TIP3    H180654   0.443   1.493   5.694 -0.0095 -1.0950  0.1716
19721TIP3    H280655   0.568   1.456   5.769  0.5782  1.2746  0.4030
19722TIP3   OH280656   4.467   2.423   1.896  0.6944  0.1566 -0.0477
19722TIP3    H180657   4.405   2.359   1.930  0.6828  0.7968  1.2009
19722TIP3    H280658   4.461   2.496   1.957  0.4229  1.5117 -1.6675
19723TIP3   OH280659   1.401   1.751  11.586 -0.2681  0.2858  0.3501
19723TIP3    H180660   1.489   1.751  11.548  0.0427  2.1207  1.0062
19723TIP3    H280661   1.345   1.718  11.517  0.5958  1.4704 -0.9587
19724TIP3   OH280662   0.590   2.291  13.195 -0.3565  0.4116  0.2672
19724TIP3    H180663   0.640   2.370  13.177 -0.6629  0.4953 -0.2399
19724TIP3    H280664   0.652   2.219  13.185 -0.2002  0.5549  0.2272
19725TIP3   OH280665   0.197   2.986  16.359  0.2502  0.0606  0.0684
19725TIP3    H180666   0.198   3.054  16.427  2.0642 -0.4830  0.6031
19725TIP3    H280667   0.265   2.924  16.385 -0.7927 -1.5199 -0.8873
19726TIP3   OH280668   3.662   6.624  16.414  0.0962  0.4412 -0.4393
19726TIP3    H180669   3.632   6.685  16.346  1.2429 -0.2956 -1.6275
19726TIP3    H280670   3.581   6.599  16.460 -0.5773  1.6558 -0.9298
19727TIP3   OH280671   0.147   5.671  12.388 -0.6742  0.1130  0.2742
19727TIP3    H180672   0.211   5.714  12.331  0.1155 -0.5667  0.6390
19727TIP3    H280673   0.093   5.618  12.329  0.5896 -1.1435  0.2117
19728TIP3   OH280674   4.295   5.864   2.784  0.0984 -0.7078  0.2396
19728TIP3    H180675   4.217   5.884   2.836 -0.2855 -1.1920 -0.1352
19728TIP3    H280676   4.260   5.837   2.699  0.6813 -0.7947  0.0246
19729TIP3   OH280677   5.435   0.056   0.728 -0.2820 -0.4383 -0.0358
19729TIP3    H180678   5.407  -0.004   0.658 -2.0472  1.1366 -0.6935
19729TIP3    H280679   5.359   0.064   0.785  0.5719 -0.2793  1.1038
19730TIP3   OH280680   4.592   6.109   1.381  0.7637 -0.8278 -0.3450
19730TIP3    H180681   4.514   6.061   1.354 -0.2405  0.5107  0.0865
19730TIP3    H280682   4.626   6.059   1.456 -0.2432 -0.8860  0.0795
19731TIP3   OH280683   5.500   0.098  17.130  0.1648  0.2278  0.5485
19731TIP3    H180684   5.509   0.008  17.162 -0.7495  0.2995  1.0406
19731TIP3    H280685   5.430   0.135  17.184 -0.9257  0.5846 -1.0586
19732TIP3   OH280686   0.387   2.720   3.397 -1.0459 -0.3619  0.3831
19732TIP3    H180687   0.421   2.690   3.482 -2.6602 -0.1175  1.1279
19732TIP3    H280688   0.321   2.655   3.373  0.1734 -1.0481 -1.2497
19733TIP3   OH280689   0.172   1.371   1.767  0.3251 -0.5064 -0.1032
19733TIP3    H180690   0.237   1.308   1.738  0.2331  0.0007 -1.4555
19733TIP3    H280691   0.088   1.332   1.744  0.2287 -0.3605 -0.0032
19734TIP3   OH280692   0.103   3.549  15.669  0.3914 -0.2178 -0.7145
19734TIP3    H180693   0.029   3.610  15.668  1.4446  1.0972 -1.1280
19734TIP3    H280694   0.068   3.467  15.636 -1.0805  0.1534 -0.0810
19735TIP3   OH280695   1.483   2.379  16.323  0.4715  0.4083  0.2983
19735TIP3    H180696   1.453   2.421  16.242 -0.3776  0.1477  0.4690
19735TIP3    H280697   1.443   2.431  16.393  0.4096  0.0536  0.5309
19736TIP3   OH280698   5.037   1.179  13.598  0.1521  0.0484 -0.2143
19736TIP3    H180699   5.086   1.103  13.566  0.6654  1.1712 -2.1770
19736TIP3    H280700   5.089   1.211  13.672 -0.9205 -2.4339  1.6755
19737TIP3   OH280701   6.756   4.971  14.257 -0.2525 -0.1412  0.1103
19737TIP3    H180702   6.844   4.995  14.229  0.0952 -0.4153  0.9772
19737TIP3    H280703   6.709   5.055  14.262 -0.1661 -0.0355 -0.7599
19738TIP3   OH280704   4.338   5.483  14.623  0.2684 -0.1681 -0.1309
19738TIP3    H180705   4.352   5.417  14.691  0.1716 -0.7748 -0.7002
19738TIP3    H280706   4.299   5.557  14.670 -1.2720 -1.1676  0.1997
19739TIP3   OH280707   5.488   3.068   4.711  0.1174  0.0568 -0.3916
19739TIP3    H180708   5.484   3.161   4.686  0.2124  0.4174  0.8880
19739TIP3    H280709   5.569   3.036   4.673  0.9931  0.9696  0.6533
19740TIP3   OH280710   2.727   1.260   5.440 -0.3942  0.5799 -0.8536
19740TIP3    H180711   2.735   1.326   5.372  0.1272 -1.8489 -3.1969
19740TIP3    H280712   2.709   1.178   5.394  2.1360 -1.5666  1.7309
19741TIP3   OH280713   5.826   4.784   5.063  0.1651 -0.0245 -0.3680
19741TIP3    H180714   5.814   4.831   5.146  1.2200  0.3995 -0.4493
19741TIP3    H280715   5.913   4.810   5.033  0.3180 -1.1857 -0.9661
19742TIP3   OH280716   3.111   0.454   3.910 -0.1297  0.0084 -0.0577
19742TIP3    H180717   3.193   0.431   3.953 -0.0289 -0.1438 -0.3250
19742TIP3    H280718   3.070   0.519   3.967  0.7605  0.9905 -0.5437
19743TIP3   OH280719   3.237   6.530   3.245 -0.3034 -0.7210  0.0541
19743TIP3    H180720   3.302   6.481   3.195 -1.0509 -1.1478 -0.5057
19743TIP3    H280721   3.158   6.528   3.191 -1.6304 -2.5895  1.9758
19744TIP3   OH280722   3.190   5.041  11.286  0.1346  0.0755  0.2054
19744TIP3    H180723   3.210   5.090  11.207 -0.9848  2.8270  1.5680
19744TIP3    H280724   3.116   4.985  11.261  0.4592  0.1700 -0.9783
19745TIP3   OH280725   1.786   0.226  13.488  0.5164 -0.0063  0.2782
19745TIP3    H180726   1.875   0.221  13.452  0.0190 -1.8310 -0.7603
19745TIP3    H280727   1.761   0.134  13.501 -1.9031  0.4383 -1.1230
19746TIP3   OH280728   5.008   3.525   6.990  0.1080 -0.4736 -0.4126
19746TIP3    H180729   4.967   3.611   6.981 -0.8394 -0.9442 -0.7201
19746TIP3    H280730   5.096   3.536   6.955 -0.4746  0.0456 -1.7421
19747TIP3   OH280731   6.478   5.607   4.204  0.3618 -0.2100 -0.3091
19747TIP3    H180732   6.517   5.683   4.248 -0.5571  0.0893 -0.0051
19747TIP3    H280733   6.465   5.543   4.274 -2.4588  0.8146  0.1312
19748TIP3   OH280734   1.908   4.903  11.926  0.2759 -0.2237 -0.5949
19748TIP3    H180735   1.877   4.984  11.967 -1.4659 -1.0364 -0.2902
19748TIP3    H280736   2.003   4.913  11.923  0.0929  1.7905 -0.4554
19749TIP3   OH280737   1.034   2.979   4.858  0.6206  0.4702  0.1139
19749TIP3    H180738   1.113   2.951   4.812 -0.3547 -0.0044 -1.2949
19749TIP3    H280739   0.999   3.050   4.805 -1.7035 -1.5265 -1.1016
19750TIP3   OH280740   1.090   3.167  15.841  0.0489  0.5730  0.1945
19750TIP3    H180741   1.175   3.176  15.883  0.0312  1.1612  0.1163
19750TIP3    H280742   1.087   3.076  15.810  0.7120  0.5990  0.0541
19751TIP3   OH280743   2.670   4.627  11.940 -0.2056  0.1716  0.0390
19751TIP3    H180744   2.689   4.592  11.853  2.7451  0.5487  0.4604
19751TIP3    H280745   2.706   4.561  12.000 -0.9301  0.6020  0.9521
19752TIP3   OH280746   4.670   4.830   4.585  0.1880 -0.1417 -0.1501
19752TIP3    H180747   4.732   4.789   4.524  0.3935 -2.4336  1.5311
19752TIP3    H280748   4.719   4.900   4.627  0.1495  1.2334 -2.3266
19753TIP3   OH280749   5.669   6.069  11.566 -0.1687  0.1410 -0.3101
19753TIP3    H180750   5.591   6.056  11.619 -0.7745  1.2260 -0.9216
19753TIP3    H280751   5.684   6.163  11.569  1.8967 -0.1996  0.8971
19754TIP3   OH280752   4.507   1.524  12.020 -0.1566  0.1832 -0.0404
19754TIP3    H180753   4.457   1.606  12.022  0.8288  0.7614  2.2139
19754TIP3    H280754   4.565   1.533  11.945 -0.4111  1.3357 -0.1128
19755TIP3   OH280755   1.960   2.365  11.986 -0.0151  0.6910  0.3077
19755TIP3    H180756   1.924   2.454  11.982 -0.4806  0.5658  1.6359
19755TIP3    H280757   1.986   2.353  12.077  1.2168 -0.0867 -0.1314
19756TIP3   OH280758   3.565   2.032   2.936  0.2544 -0.2921  0.1814
19756TIP3    H180759   3.479   2.019   2.976  0.5536 -1.5916  0.4263
19756TIP3    H280760   3.583   1.950   2.891  1.0054  0.2775 -0.5720
19757TIP3   OH280761   3.986   4.426   3.209  0.3207 -0.3556  0.1990
19757TIP3    H180762   3.959   4.487   3.140  1.2636  1.8654  1.7535
19757TIP3    H280763   3.905   4.383   3.236 -0.1230 -0.9732 -1.9958
19758TIP3   OH280764   6.624   2.045  17.073  0.1683 -0.5392 -0.2357
19758TIP3    H180765   6.644   1.984  17.144 -0.6693 -0.4325  0.0962
19758TIP3    H280766   6.548   2.095  17.104  0.1448 -0.1035 -0.9701
19759TIP3   OH280767   0.816   1.403   2.662  0.5840 -0.2357  0.2051
19759TIP3    H180768   0.778   1.458   2.731  0.6886 -0.5527  0.5185
19759TIP3    H280769   0.885   1.353   2.707  0.6298 -0.4677 -0.1236
19760TIP3   OH280770   5.670   5.556  13.610 -0.1389  0.4297  0.4345
19760TIP3    H180771   5.693   5.649  13.619 -0.9197  0.4644  2.4328
19760TIP3    H280772   5.634   5.533  13.696 -2.4182 -1.0379 -0.8808
19761TIP3   OH280773   2.786   3.494   0.656 -0.0575  0.3186 -0.4755
19761TIP3    H180774   2.879   3.516   0.667 -0.4137  0.2385  3.2039
19761TIP3    H280775   2.784   3.399   0.655 -0.0922  0.3212 -0.6721
19762TIP3   OH280776   2.140   0.674  11.105 -0.4481 -0.2418 -0.3528
19762TIP3    H180777   2.222   0.626  11.092  0.8912  1.6676  0.9351
19762TIP3    H280778   2.122   0.714  11.020  1.8176  2.1729  0.2547
19763TIP3   OH280779   1.240   2.440   1.131 -0.3425  0.0197  0.1576
19763TIP3    H180780   1.195   2.373   1.182  0.1624 -0.0361  0.5317
19763TIP3    H280781   1.329   2.407   1.121 -0.4242  0.0470 -0.7265
19764TIP3   OH280782   6.089   1.670  15.854 -0.3674  0.0385  0.3526
19764TIP3    H180783   6.061   1.586  15.891 -1.6262  0.5527  0.5994
19764TIP3    H280784   6.041   1.735  15.905 -2.3579  0.7575 -2.3134
19765TIP3   OH280785   0.592   3.077   5.794 -0.0199  0.0664  0.8142
19765TIP3    H180786   0.674   3.087   5.745  0.3088  1.4025  1.6187
19765TIP3    H280787   0.586   3.156   5.847 -2.9010  0.9845 -0.8015
19766TIP3   OH280788   5.670   0.978  10.625 -0.0646 -0.4869 -0.6990
19766TIP3    H180789   5.763   0.984  10.604  0.2876 -0.8678  0.6982
19766TIP3    H280790   5.653   0.884  10.631 -0.8646 -0.4586 -2.3007
19767TIP3   OH280791   3.034   0.040   4.894 -0.1471 -0.1709 -0.6573
19767TIP3    H180792   3.078  -0.013   4.828 -0.7061 -1.5949  0.0999
19767TIP3    H280793   3.087   0.031   4.973 -0.5295 -0.0401 -0.3805
19768TIP3   OH280794   1.541   2.308  13.019 -0.3700  0.0251 -0.0950
19768TIP3    H180795   1.481   2.369  13.062 -0.3191  1.7390 -2.3440
19768TIP3    H280796   1.492   2.276  12.943  1.3121  1.0065 -1.6267
19769TIP3   OH280797   4.626   1.211   4.471  0.3714  0.0921  0.2249
19769TIP3    H180798   4.532   1.204   4.456  0.1755  1.4127  0.7640
19769TIP3    H280799   4.664   1.141   4.418 -1.0348 -1.6052  1.3843
19770TIP3   OH280800   5.592   0.599   0.429  0.2484 -0.0889 -0.5419
19770TIP3    H180801   5.548   0.515   0.425  0.0738  0.0488 -1.6191
19770TIP3    H280802   5.559   0.648   0.353  1.0020  0.6167 -0.4299
19771TIP3   OH280803   1.982   1.272  13.587 -0.0874  0.2119 -0.1141
19771TIP3    H180804   1.962   1.238  13.500 -2.2330 -0.6676  0.7046
19771TIP3    H280805   1.927   1.349  13.596 -0.1539  0.0844  0.6102
19772TIP3   OH280806   0.705   5.901  16.110 -0.2848 -0.2713 -1.0392
19772TIP3    H180807   0.682   5.910  16.017 -0.6253  0.2950 -0.9002
19772TIP3    H280808   0.776   5.837  16.111  1.1137  1.2342 -1.8819
19773TIP3   OH280809   4.785   2.420  12.742 -0.9900 -0.5494  0.0825
19773TIP3    H180810   4.841   2.488  12.705  0.0428 -0.3553  1.9256
19773TIP3    H280811   4.833   2.390  12.820 -1.7116 -2.9425 -0.3570
19774TIP3   OH280812   0.158   0.636   5.466 -0.1256  0.1290  0.2850
19774TIP3    H180813   0.251   0.619   5.484 -0.5560 -1.6807  0.8551
19774TIP3    H280814   0.157   0.670   5.377  0.9953 -0.9196 -0.1456
19775TIP3   OH280815   2.462   3.182  15.391  0.3773  0.6197  0.3698
19775TIP3    H180816   2.541   3.131  15.371 -0.4181 -0.8037  0.7928
19775TIP3    H280817   2.459   3.184  15.486 -0.4849  0.0617  0.3540
19776TIP3   OH280818   5.206   6.531  16.168 -1.0870  0.0015  0.2830
19776TIP3    H180819   5.298   6.507  16.179 -0.2460  3.1785  0.5113
19776TIP3    H280820   5.164   6.450  16.137  1.7474 -1.5094  0.2394
19777TIP3   OH280821   4.521   3.061  12.206 -0.1960 -0.1695  0.0795
19777TIP3    H180822   4.581   3.128  12.238  0.1703 -0.0146 -0.8962
19777TIP3    H280823   4.434   3.100  12.216 -0.0616  0.0179  0.5265
19778TIP3   OH280824   1.700   6.221  15.901 -0.7083 -0.1352 -0.4060
19778TIP3    H180825   1.612   6.184  15.894 -0.8057 -0.2940  1.2929
19778TIP3    H280826   1.724   6.208  15.993  1.2842 -0.5306 -0.9438
19779TIP3   OH280827   4.990   5.625  10.422  0.2079  0.2538  0.5146
19779TIP3    H180828   5.034   5.577  10.493 -0.3036 -0.0946  0.5940
19779TIP3    H280829   5.026   5.586  10.342  1.2424  1.0576  0.5710
19780TIP3   OH280830   4.875   4.452  14.397  0.3264  0.1111 -0.4065
19780TIP3    H180831   4.893   4.544  14.377 -0.7689  0.4519  0.0931
19780TIP3    H280832   4.961   4.411  14.402  0.7761  0.7183 -2.4401
19781TIP3   OH280833   0.939   1.363  16.671  0.3920 -0.4877  0.3094
19781TIP3    H180834   0.885   1.442  16.668 -2.3189 -2.1530  2.6807
19781TIP3    H280835   0.941   1.333  16.580  0.3441  1.5667 -0.4111
19782TIP3   OH280836   5.050   2.433   4.507 -0.1374  0.1732 -0.0788
19782TIP3    H180837   4.980   2.389   4.555  1.3004 -1.1771  0.8191
19782TIP3    H280838   5.061   2.518   4.551  0.1735 -0.4564  1.0534
19783TIP3   OH280839   0.748   1.275   2.048 -0.7198  0.5675  0.4756
19783TIP3    H180840   0.663   1.235   2.029 -0.2007 -0.0057 -0.6976
19783TIP3    H280841   0.763   1.257   2.141 -0.9117 -1.1783  0.1803
19784TIP3   OH280842   2.939   5.604   3.994 -0.2036  0.4414  0.4000
19784TIP3    H180843   3.032   5.586   3.999 -0.7736 -1.9635  4.0333
19784TIP3    H280844   2.923   5.669   4.063 -1.1874  1.0364 -0.3647
19785TIP3   OH280845   0.222   5.663  15.231 -0.2681  0.2434  0.2232
19785TIP3    H180846   0.151   5.628  15.177 -0.2902 -0.0722  0.4534
19785TIP3    H280847   0.197   5.754  15.248 -0.2484  0.3482 -0.3116
19786TIP3   OH280848   5.728   3.699  14.462 -0.1726  0.1136 -0.1170
19786TIP3    H180849   5.692   3.751  14.390  1.4866  0.2381 -0.8667
19786TIP3    H280850   5.758   3.763  14.526 -0.0567  0.0409 -0.0980
19787TIP3   OH280851   4.755   0.643  11.129 -0.1219 -0.6451 -0.8520
19787TIP3    H180852   4.663   0.617  11.132 -0.4486  0.4200 -1.4215
19787TIP3    H280853   4.796   0.594  11.200 -1.3643 -0.1747  0.2086
19788TIP3   OH280854   1.165   4.267   5.232 -1.1999 -0.1485 -0.0339
19788TIP3    H180855   1.116   4.185   5.241 -4.2606  1.5744 -0.4551
19788TIP3    H280856   1.098   4.334   5.221  1.2126  2.5462  1.0516
19789TIP3   OH280857   2.072   1.560   4.996  0.2353  0.4922  0.6932
19789TIP3    H180858   2.003   1.626   4.988 -0.7730 -0.7140 -0.8966
19789TIP3    H280859   2.032   1.480   4.963  1.1308 -1.1660  3.4758
19790TIP3   OH280860   5.430   4.549   3.339  0.6348  0.6389  0.2905
19790TIP3    H180861   5.506   4.539   3.397 -1.2517  0.8698  2.9088
19790TIP3    H280862   5.453   4.622   3.281  2.0117  1.3744  1.7336
19791TIP3   OH280863   2.931   1.140  14.543 -0.6744 -0.0194  0.3079
19791TIP3    H180864   2.975   1.056  14.558 -0.2941  0.5116  2.3101
19791TIP3    H280865   2.873   1.151  14.619 -0.4513  1.6949  0.2471
19792TIP3   OH280866   1.319   5.466  11.246  0.2130  0.1546  0.0176
19792TIP3    H180867   1.353   5.448  11.158  0.7544 -0.8331  0.4294
19792TIP3    H280868   1.241   5.410  11.253 -2.1798  3.1155 -1.2988
19793TIP3   OH280869   6.239   5.706   5.142  0.3145  0.6877  0.3470
19793TIP3    H180870   6.150   5.732   5.121 -0.2657 -1.8698 -0.5696
19793TIP3    H280871   6.289   5.721   5.062  0.1769 -0.1592  0.1023
19794TIP3   OH280872   5.128   2.653  15.471 -0.0849 -0.2622 -0.1095
19794TIP3    H180873   5.201   2.620  15.419  0.0377 -2.0976  1.2043
19794TIP3    H280874   5.165   2.724  15.522  0.3014  0.1173 -0.9063
19795TIP3   OH280875   6.659   3.445   2.540  0.3267  1.0946 -0.2944
19795TIP3    H180876   6.711   3.488   2.472 -0.6791  1.3757 -0.8914
19795TIP3    H280877   6.613   3.375   2.494  0.2496  0.7816  0.2586
19796TIP3   OH280878   5.287   3.942   3.900 -0.3331 -1.0705 -0.1239
19796TIP3    H180879   5.205   3.991   3.906  0.0131 -0.3048 -1.3752
19796TIP3    H280880   5.334   3.964   3.980 -0.9917 -0.8386  0.2013
19797TIP3   OH280881   3.003   2.502   2.968  0.0587  0.3578 -0.0152
19797TIP3    H180882   2.998   2.580   3.023  0.8016  0.3044  0.1376
19797TIP3    H280883   3.008   2.429   3.031  0.5130  0.2685 -0.1515
19798TIP3   OH280884   3.099   6.683   6.192  0.0289  0.1526 -0.1574
19798TIP3    H180885   3.030   6.710   6.252 -0.0749 -2.1304  0.8212
19798TIP3    H280886   3.180   6.703   6.238 -0.0050  0.6044 -0.2883
19799TIP3   OH280887   1.716   4.770  13.963 -0.8313  0.0292  1.0403
19799TIP3    H180888   1.666   4.814  13.894  0.1905 -0.8220 -0.2609
19799TIP3    H280889   1.758   4.841  14.012  0.2758  0.5506 -0.6321
19800TIP3   OH280890   1.090   0.417  16.521  0.2208 -0.1669 -0.3427
19800TIP3    H180891   1.143   0.362  16.578 -0.8720 -0.7116  0.1583
19800TIP3    H280892   1.091   0.372  16.436  1.3112  0.3077 -0.5916
19801TIP3   OH280893   5.594   5.446  15.462 -0.3681 -0.0783  0.5102
19801TIP3    H180894   5.565   5.401  15.383 -0.2054  0.6013  0.0568
19801TIP3    H280895   5.655   5.512  15.431 -3.2500  2.8541  0.7398
19802TIP3   OH280896   0.202   5.674   3.011  0.6565 -0.2001  0.1134
19802TIP3    H180897   0.150   5.623   2.949  0.1316  1.0365 -0.4572
19802TIP3    H280898   0.292   5.665   2.979  0.5130 -0.3889 -0.2426
19803TIP3   OH280899   1.317   0.250   3.459  0.0215 -0.1116  0.1017
19803TIP3    H180900   1.333   0.304   3.536  0.2063 -0.1102  0.0618
19803TIP3    H280901   1.231   0.278   3.428 -0.0292 -0.0738  0.2747
19804TIP3   OH280902   0.018   1.233   6.616 -0.0054  0.0911 -0.1837
19804TIP3    H180903   0.049   1.159   6.565 -1.4535 -0.2418 -0.5905
19804TIP3    H280904   0.095   1.263   6.664  0.3949 -2.2232  0.6597
19805TIP3   OH280905   2.400   1.684   1.514  0.2026  0.3419  0.1499
19805TIP3    H180906   2.475   1.740   1.495  0.9071 -1.4342 -2.5736
19805TIP3    H280907   2.400   1.675   1.609  3.0501  0.8706  0.2348
19806TIP3   OH280908   5.453   1.313   1.687  0.3160  0.2764 -0.9366
19806TIP3    H180909   5.375   1.356   1.652  0.2671  0.7478 -0.2569
19806TIP3    H280910   5.523   1.337   1.626 -0.1305 -0.4355 -1.7429
19807TIP3   OH280911   6.352   3.804  15.125 -0.8482 -0.1666 -0.0100
19807TIP3    H180912   6.354   3.897  15.103 -0.9564 -0.1716 -0.0448
19807TIP3    H280913   6.366   3.759  15.041 -1.0532 -0.1836 -0.0374
19808TIP3   OH280914   6.727   0.625  14.038  0.1229  0.0478 -0.2737
19808TIP3    H180915   6.781   0.546  14.038  0.1564 -0.0162 -3.8857
19808TIP3    H280916   6.642   0.596  14.004 -1.4356  0.6528  2.9498
19809TIP3   OH280917   4.455   3.337  11.942 -0.0819 -0.1415  0.1139
19809TIP3    H180918   4.387   3.404  11.934 -0.6541 -0.7762 -0.3958
19809TIP3    H280919   4.415   3.257  11.908  0.8795 -0.5552 -0.0742
19810TIP3   OH280920   4.959   5.916  14.126  0.5019  0.5961 -0.1722
19810TIP3    H180921   4.901   5.972  14.074 -0.2824  1.1028  1.2251
19810TIP3    H280922   5.042   5.963  14.129  0.1731  1.1626  0.0706
19811TIP3   OH280923   5.568   2.027   3.831  0.0801 -0.0318 -0.1341
19811TIP3    H180924   5.488   2.039   3.883  0.3828  0.8123  0.1348
19811TIP3    H280925   5.618   1.962   3.881 -0.1423 -0.0749  0.0368
19812TIP3   OH280926   3.360   4.474  13.615  0.0858 -0.3285  0.3473
19812TIP3    H180927   3.450   4.492  13.585  1.0623 -1.2747  2.5565
19812TIP3    H280928   3.343   4.384  13.588  0.6332 -0.8786  1.7787
19813TIP3   OH280929   3.858   5.533   3.088 -0.3188 -0.5385 -0.2056
19813TIP3    H180930   3.863   5.552   2.994  0.1610 -2.1602 -0.5121
19813TIP3    H280931   3.850   5.620   3.129  0.3628  0.2383 -1.6726
19814TIP3   OH280932   4.182   1.245   2.813 -0.1535 -0.9074  0.1209
19814TIP3    H180933   4.254   1.182   2.811 -0.7590 -1.8477  4.3409
19814TIP3    H280934   4.104   1.192   2.823 -1.0739  0.3566 -0.2443
19815TIP3   OH280935   3.823   1.834  13.096 -0.3695  0.2133 -0.7807
19815TIP3    H180936   3.825   1.814  13.003 -2.2016 -0.0653 -0.7653
19815TIP3    H280937   3.774   1.762  13.135 -0.5699  0.9052  0.2555
19816TIP3   OH280938   4.308   5.420   1.703 -0.0352  0.2627  0.2110
19816TIP3    H180939   4.383   5.455   1.751  0.9480 -0.2238 -0.9445
19816TIP3    H280940   4.342   5.404   1.614 -0.9694 -1.7846  0.1965
19817TIP3   OH280941   3.728   3.903  14.465 -0.2556  0.1175 -0.6231
19817TIP3    H180942   3.651   3.950  14.432 -1.5428 -1.3266  0.2856
19817TIP3    H280943   3.725   3.915  14.560  2.0169  2.0942 -0.7571
19818TIP3   OH280944   1.673   3.934   3.674  0.2181  0.0416 -0.3653
19818TIP3    H180945   1.643   3.869   3.737  2.2305  0.2537  0.8356
19818TIP3    H280946   1.669   3.889   3.589 -0.0942 -1.0435  0.2168
19819TIP3   OH280947   2.731   4.499  14.003 -0.4014 -0.4293 -0.2987
19819TIP3    H180948   2.658   4.525  14.060 -0.8543 -1.6052 -0.3291
19819TIP3    H280949   2.739   4.571  13.940 -1.2138 -0.0653  0.0048
19820TIP3   OH280950   4.941   2.088  14.171  0.0650  0.2669  0.5103
19820TIP3    H180951   4.955   2.028  14.098 -0.6802 -0.1218  0.6816
19820TIP3    H280952   5.029   2.115  14.197  0.3642 -0.1280 -0.0893
19821TIP3   OH280953   2.108   0.298   4.078 -0.2664 -0.1795  0.4769
19821TIP3    H180954   2.108   0.313   4.172  0.4723 -1.8758  0.7737
19821TIP3    H280955   2.048   0.224   4.065 -1.3309  0.8426 -0.5302
19822TIP3   OH280956   2.153   3.940   3.303  0.2228 -0.1701 -0.1136
19822TIP3    H180957   2.064   3.972   3.313  0.2813  0.5893 -1.7745
19822TIP3    H280958   2.157   3.861   3.357 -1.0108  0.5953  1.1364
19823TIP3   OH280959   2.044   3.999  13.550  0.4353  0.7523 -0.3278
19823TIP3    H180960   1.964   3.974  13.596  0.0744  0.8976 -0.8806
19823TIP3    H280961   2.072   4.080  13.593  0.2696  0.7159 -0.1525
19824TIP3   OH280962   2.281   0.083  16.686 -0.2753 -0.0334  0.6247
19824TIP3    H180963   2.329   0.151  16.639 -0.9609  0.6382  0.8812
19824TIP3    H280964   2.344   0.050  16.751 -0.2263  0.9903  1.1039
19825TIP3   OH280965   0.031   0.622   1.665  0.0356  0.2751 -0.0650
19825TIP3    H180966  -0.011   0.538   1.645  0.1795  0.0553  0.5652
19825TIP3    H280967  -0.041   0.685   1.663  0.1409  0.3827 -1.9849
19826TIP3   OH280968   3.681   5.911  14.992 -0.2049  0.1357  0.4385
19826TIP3    H180969   3.639   5.997  14.997 -0.2176  0.3603 -2.8669
19826TIP3    H280970   3.615   5.854  14.953  1.0168 -0.5235 -0.7162
19827TIP3   OH280971   4.800   5.289   2.947  0.2586  0.7947  0.0279
19827TIP3    H180972   4.826   5.282   3.039  0.1429 -0.5725 -0.0350
19827TIP3    H280973   4.730   5.354   2.947 -0.4366  0.0591  1.0559
19828TIP3   OH280974   2.866   1.789   4.527 -0.0418 -0.7168 -0.7074
19828TIP3    H180975   2.805   1.769   4.456 -2.0030 -1.2963  1.0808
19828TIP3    H280976   2.901   1.875   4.506 -3.5748  0.8551 -0.4036
19829TIP3   OH280977   0.913   4.041  15.375  0.4070  0.2863 -0.2824
19829TIP3    H180978   0.852   4.014  15.443 -0.7186  0.8507 -1.0468
19829TIP3    H280979   0.988   4.077  15.422  0.1920 -0.4867  0.6691
19830TIP3   OH280980   2.472   3.965   4.065  0.3145 -0.4273  0.4445
19830TIP3    H180981   2.492   4.027   3.995 -2.5003  0.0325 -0.0158
19830TIP3    H280982   2.419   4.015   4.127  0.3431 -1.6238  1.4566
19831TIP3   OH280983   5.642   5.373   1.035 -0.1096 -0.2823  0.2794
19831TIP3    H180984   5.572   5.428   1.070  0.2064  0.9040 -0.9060
19831TIP3    H280985   5.722   5.406   1.076 -0.1135 -0.9367  0.8173
19832TIP3   OH280986   0.814   3.779   3.424  0.4604  0.3121 -0.5318
19832TIP3    H180987   0.759   3.790   3.346  1.5198  1.0812 -1.1856
19832TIP3    H280988   0.831   3.685   3.428  0.1860  0.2350 -1.0855
19833TIP3   OH280989   0.279   2.408  15.785  0.0891  0.3604  0.0926
19833TIP3    H180990   0.323   2.489  15.808  0.6194  0.1980 -0.3420
19833TIP3    H280991   0.273   2.410  15.689 -1.7461  0.8509  0.1880
19834TIP3   OH280992   4.284   3.154   5.138  0.7235 -0.0256 -0.3723
19834TIP3    H180993   4.365   3.191   5.103 -0.1731  1.2783 -1.1027
19834TIP3    H280994   4.235   3.125   5.061  1.5390 -3.0679  0.1971
19835TIP3   OH280995   5.276   3.744  14.407  0.3502  0.3432  0.3495
19835TIP3    H180996   5.322   3.772  14.328  0.5248  1.7881  0.9546
19835TIP3    H280997   5.323   3.665  14.435  0.5750  0.0953 -0.7172
19836TIP3   OH280998   4.401   2.138  14.688  0.2667 -0.0682 -0.3367
19836TIP3    H180999   4.423   2.077  14.618 -1.2161 -0.3892 -0.5477
19836TIP3    H281000   4.425   2.092  14.769  0.6782 -0.2578 -0.5659
19837TIP3   OH281001   5.203   1.576  15.776  0.1313  0.0671  0.1033
19837TIP3    H181002   5.169   1.602  15.862  1.4220  0.7012  0.4521
19837TIP3    H281003   5.129   1.586  15.717 -1.9780 -4.3917  1.8105
19838TIP3   OH281004   3.908   6.385   2.202  0.2300 -0.2309  0.3252
19838TIP3    H181005   3.861   6.301   2.198 -2.1728  1.1186 -0.5020
19838TIP3    H281006   3.990   6.368   2.155 -0.5447 -1.9258 -0.4895
19839TIP3   OH281007   2.820   4.678  17.100  0.3228 -0.0975  0.3964
19839TIP3    H181008   2.912   4.659  17.122  0.5806  0.4844 -0.1768
19839TIP3    H281009   2.807   4.768  17.131 -0.0574 -0.1796  0.4734
19840TIP3   OH281010   4.556   5.576  16.174  0.1805  1.0424 -0.2529
19840TIP3    H181011   4.464   5.551  16.180 -0.3872  3.3739  1.4142
19840TIP3    H281012   4.602   5.509  16.224 -0.5583 -0.2752 -1.2973
19841TIP3   OH281013   5.841   4.908  11.798 -0.0400  0.6535  0.5269
19841TIP3    H181014   5.759   4.955  11.781 -0.5467  0.3351  2.0059
19841TIP3    H281015   5.831   4.875  11.888  1.7587  0.7076  0.7522
19842TIP3   OH281016   5.060   6.283   3.517  0.3469  0.0066 -0.2512
19842TIP3    H181017   5.105   6.203   3.489  1.3068  0.2199  0.6495
19842TIP3    H281018   5.039   6.268   3.609 -1.0748  0.0804 -0.5547
19843TIP3   OH281019   1.949   0.345  14.942  0.3073 -0.2004 -0.7451
19843TIP3    H181020   1.943   0.436  14.914 -0.1786 -0.1037 -0.3225
19843TIP3    H281021   2.022   0.309  14.891  2.0458  1.0436  0.7969
19844TIP3   OH281022   6.561   4.100  12.724 -1.0904 -0.1770  0.4397
19844TIP3    H181023   6.483   4.155  12.716 -0.8575  0.1295  0.2633
19844TIP3    H281024   6.622   4.136  12.660 -0.6635 -0.1801  0.8458
19845TIP3   OH281025   6.105   1.796   2.778  0.3270  0.1249  0.4282
19845TIP3    H181026   6.114   1.806   2.872 -0.1794 -1.0549  0.6038
19845TIP3    H281027   6.139   1.878   2.742  2.4471 -0.2515  1.5214
19846TIP3   OH281028   0.543   0.376  13.177  0.0023 -0.2703  0.2986
19846TIP3    H181029   0.588   0.352  13.097  1.1400 -2.6830  1.6020
19846TIP3    H281030   0.589   0.454  13.209  0.9364 -0.5958 -0.2542
19847TIP3   OH281031   5.053   3.348   6.784  0.5602 -0.6444  0.2781
19847TIP3    H181032   5.011   3.404   6.850  1.4507 -0.6654  0.8787
19847TIP3    H281033   5.139   3.388   6.771  0.5648 -0.9229 -0.5173
19848TIP3   OH281034   3.116   2.717   5.020 -0.4600 -0.4276 -0.3879
19848TIP3    H181035   3.119   2.812   5.031 -1.2719 -0.1332 -2.3909
19848TIP3    H281036   3.207   2.691   5.005 -0.2949  0.0905 -0.2800
19849TIP3   OH281037   1.124   4.341  12.664 -0.2664 -0.6723 -0.0740
19849TIP3    H181038   1.078   4.425  12.663  0.0230 -0.5004  0.3400
19849TIP3    H281039   1.198   4.356  12.724  0.9133 -0.6280 -1.5138
19850TIP3   OH281040   2.113   1.602  12.438 -0.0711  0.2185 -0.0082
19850TIP3    H181041   2.143   1.597  12.347  0.7417  1.1349  0.2045
19850TIP3    H281042   2.029   1.556  12.438 -0.8088  1.5239 -1.5413
19851TIP3   OH281043   3.260   5.358  11.585  0.2152 -0.2014 -0.4866
19851TIP3    H181044   3.211   5.439  11.593 -1.1513 -0.9716 -0.8835
19851TIP3    H281045   3.342   5.383  11.542  0.8355  1.3375  1.5456
19852TIP3   OH281046   3.699   2.369  13.299 -0.0209  0.6519  0.4039
19852TIP3    H181047   3.672   2.288  13.341  0.8363  1.3092  2.2528
19852TIP3    H281048   3.699   2.434  13.369 -1.9510  2.5667 -1.2926
19853TIP3   OH281049   0.890   1.166   4.096  0.5275  0.0363  0.1454
19853TIP3    H181050   0.826   1.096   4.101  0.8929 -0.3101  0.0214
19853TIP3    H281051   0.872   1.210   4.013  1.2901 -0.8825 -0.5113
19854TIP3   OH281052   2.721   6.111   4.135  0.3753 -0.5013  0.2448
19854TIP3    H181053   2.668   6.053   4.081 -0.8625  0.7208  0.0880
19854TIP3    H281054   2.806   6.116   4.091 -0.2070 -0.5200 -0.8910
19855TIP3   OH281055   6.144   6.616  11.589  0.3700 -0.2017 -0.4333
19855TIP3    H181056   6.170   6.525  11.605 -0.2799 -0.2499  0.3934
19855TIP3    H281057   6.107   6.645  11.673 -0.3788  0.4979 -1.0025
19856TIP3   OH281058   1.381   6.767  16.677 -0.7039 -0.5057  0.0169
19856TIP3    H181059   1.330   6.762  16.596 -1.5394  1.6181  0.3910
19856TIP3    H281060   1.326   6.725  16.743 -1.4319  0.6541  0.1528
19857TIP3   OH281061   1.308   0.024   0.859 -0.0345  0.3043 -0.0784
19857TIP3    H181062   1.333   0.054   0.947 -0.3729  0.0920  0.0964
19857TIP3    H281063   1.374  -0.040   0.835 -0.6896 -0.6350  0.5952
19858TIP3   OH281064   0.599   5.833   3.782  0.3771  0.3062 -0.5565
19858TIP3    H181065   0.515   5.809   3.822  0.5252  0.3589 -0.2158
19858TIP3    H281066   0.599   5.787   3.698 -0.3273  0.9003 -0.8933
19859TIP3   OH281067   3.744   3.065  11.406  0.4348 -0.0166  0.2174
19859TIP3    H181068   3.757   2.984  11.454 -0.9496  0.5191  1.5344
19859TIP3    H281069   3.650   3.083  11.413  0.8525  2.1941  0.8281
19860TIP3   OH281070   6.479   2.129  12.697  0.0688 -0.1236 -0.5599
19860TIP3    H181071   6.445   2.182  12.769  0.7070  0.4189 -0.6542
19860TIP3    H281072   6.416   2.140  12.626 -0.5673 -0.6684 -0.0839
19861TIP3   OH281073   5.134   3.628   1.846 -0.4656 -0.2559 -0.1361
19861TIP3    H181074   5.221   3.593   1.826  0.4649  1.8064  0.1524
19861TIP3    H281075   5.139   3.720   1.822 -2.1194  0.2298  1.2335
19862TIP3   OH281076   5.136   4.153  10.744  0.1790 -0.2316  0.0319
19862TIP3    H181077   5.191   4.142  10.822  1.9561  0.6978 -1.0487
19862TIP3    H281078   5.129   4.065  10.707  1.3520 -0.2898 -0.0758
19863TIP3   OH281079   0.717   0.583  14.677 -0.1551  0.1706  0.2057
19863TIP3    H181080   0.628   0.608  14.703 -0.9694 -0.4545 -1.8596
19863TIP3    H281081   0.704   0.523  14.603  2.0070  0.6553 -0.5893
19864TIP3   OH281082   6.719   4.605  17.150  0.0509 -0.7209  0.6593
19864TIP3    H181083   6.778   4.669  17.191 -1.2096 -0.1144  1.5830
19864TIP3    H281084   6.694   4.646  17.067  1.7949 -1.4870 -0.2691
19865TIP3   OH281085   6.235   0.945   0.065  0.3091  0.1227  0.3229
19865TIP3    H181086   6.223   0.861   0.108 -0.7473 -0.1068 -0.3889
19865TIP3    H281087   6.149   0.988   0.070  0.4670  0.5686 -0.5256
19866TIP3   OH281088   2.554   2.848   5.755 -0.1893  0.5409 -0.1579
19866TIP3    H181089   2.530   2.874   5.666 -0.0307 -0.0401 -0.3678
19866TIP3    H281090   2.650   2.856   5.757 -0.0181 -1.2942 -0.6223
19867TIP3   OH281091   2.228   0.597   2.270  0.0019  0.2734  0.4211
19867TIP3    H181092   2.142   0.638   2.281  0.8222  1.5850  2.0970
19867TIP3    H281093   2.276   0.656   2.212  0.2734  0.3382  0.7059
19868TIP3   OH281094   2.354   4.104   6.297  0.4332 -0.1970  0.9554
19868TIP3    H181095   2.285   4.073   6.239  0.7407  0.3555  0.2950
19868TIP3    H281096   2.433   4.106   6.242  0.4457  1.6425  1.0038
19869TIP3   OH281097   0.525   2.054  12.886  0.8136 -0.0631  0.0399
19869TIP3    H181098   0.460   1.989  12.912  0.9943 -0.4008 -0.3506
19869TIP3    H281099   0.595   2.045  12.952  0.5705  0.1455  0.3282
19870TIP3   OH281100   0.285   3.410  12.799  0.2507  0.2984 -0.4390
19870TIP3    H181101   0.362   3.372  12.840 -0.3785  0.3846  0.8430
19870TIP3    H281102   0.256   3.344  12.736  0.4398 -0.4155  0.2156
19871TIP3   OH281103   5.741   2.394  13.678  0.2912 -0.1437  0.0754
19871TIP3    H181104   5.747   2.402  13.583 -1.1735  0.6172  0.0418
19871TIP3    H281105   5.813   2.335  13.701 -0.4428 -1.7599 -1.6822
19872TIP3   OH281106   5.759   0.598  14.548  0.4807 -0.0350  0.1208
19872TIP3    H181107   5.805   0.659  14.491 -1.3125  0.9059 -0.3448
19872TIP3    H281108   5.692   0.651  14.591  0.4257 -1.1905  1.4844
19873TIP3   OH281109   5.361   5.117   5.410  0.1405  1.0735 -0.3565
19873TIP3    H181110   5.332   5.178   5.478 -0.5257  1.7744 -1.2470
19873TIP3    H281111   5.326   5.032   5.437 -1.2021  1.5757 -0.4624
19874TIP3   OH281112   4.485   5.888  13.104 -0.2038 -0.5009  0.0033
19874TIP3    H181113   4.399   5.854  13.078 -0.1422 -0.1592 -0.6449
19874TIP3    H281114   4.470   5.982  13.116  0.1474 -0.3964 -0.3883
19875TIP3   OH281115   0.562   2.035   0.614 -0.4728 -0.0941  0.3401
19875TIP3    H181116   0.649   2.067   0.591 -0.2504 -0.3897  0.7531
19875TIP3    H281117   0.518   2.110   0.651 -0.0692 -0.1778  0.9962
19876TIP3   OH281118   1.502   1.467  16.664 -0.3148  0.1992 -0.4360
19876TIP3    H181119   1.482   1.561  16.661  0.2459  0.2849 -1.5185
19876TIP3    H281120   1.584   1.462  16.713 -0.6174  0.2211  0.0827
19877TIP3   OH281121   5.554   1.449   5.459 -0.1371  0.1834  0.2214
19877TIP3    H181122   5.558   1.543   5.444  0.2291  0.3101  1.0738
19877TIP3    H281123   5.634   1.429   5.508 -1.4198 -0.1276  2.2717
19878TIP3   OH281124   6.176   4.822   2.670 -0.0370  0.2857  0.2375
19878TIP3    H181125   6.220   4.762   2.611  0.0591  1.0381 -0.4641
19878TIP3    H281126   6.085   4.794   2.671  0.5176 -1.5865  2.0729
19879TIP3   OH281127   0.306   0.966   2.943  0.7538  0.1204 -0.2413
19879TIP3    H181128   0.217   0.999   2.938  0.6155  0.1113  1.7876
19879TIP3    H281129   0.360   1.037   2.907 -0.0605  0.0521 -1.6460
19880TIP3   OH281130   3.283   4.815  15.092  0.1157  0.4528 -0.0273
19880TIP3    H181131   3.283   4.754  15.165 -0.4791  1.4177  0.7968
19880TIP3    H281132   3.253   4.898  15.130  2.5269  1.7028 -0.7576
19881TIP3   OH281133   5.550   4.831  13.716 -0.4033  0.1002  0.2782
19881TIP3    H181134   5.538   4.796  13.804  1.1133 -1.3042 -0.0595
19881TIP3    H281135   5.621   4.894  13.724 -0.2041 -0.0943  0.0379
19882TIP3   OH281136   5.763   1.863  15.750  0.4933  0.2554 -0.3102
19882TIP3    H181137   5.834   1.833  15.693  0.9590  1.6678 -0.4969
19882TIP3    H281138   5.724   1.936  15.702 -1.0511 -0.4659 -0.1783
19883TIP3   OH281139   2.906   0.080   2.119  0.2133  0.0793 -0.3873
19883TIP3    H181140   2.822   0.121   2.142  0.4206 -0.4021  1.2793
19883TIP3    H281141   2.881  -0.006   2.085 -0.1010  0.8523 -2.2187
19884TIP3   OH281142   3.713   6.793  14.496  0.0697  0.0559 -0.3284
19884TIP3    H181143   3.701   6.840  14.579  0.9798 -0.6315  0.1954
19884TIP3    H281144   3.732   6.862  14.433 -1.1867  0.6411 -0.0910
19885TIP3   OH281145   3.566   3.041   1.150 -0.4660  0.2661 -0.3624
19885TIP3    H181146   3.477   3.014   1.171 -1.0436  1.4754 -1.2398
19885TIP3    H281147   3.587   2.993   1.070  0.1745 -1.0472  0.5730
19886TIP3   OH281148   1.446   1.384  14.417 -0.2559 -0.5320  0.1717
19886TIP3    H181149   1.505   1.354  14.486  0.7797 -0.3491 -0.6110
19886TIP3    H281150   1.456   1.319  14.347  0.4796  0.5182 -0.7251
19887TIP3   OH281151   0.806   4.932   1.102  0.0085 -0.2359  0.1956
19887TIP3    H181152   0.795   4.962   1.012  1.3525  0.7323  0.3535
19887TIP3    H281153   0.790   5.009   1.156 -1.1057 -0.8836  0.8171
19888TIP3   OH281154   6.432   5.692   3.309 -0.5991  0.3624 -0.4277
19888TIP3    H181155   6.495   5.621   3.310 -1.7004 -0.6442 -1.6721
19888TIP3    H281156   6.431   5.725   3.399 -0.7144 -1.7697  0.3711
19889TIP3   OH281157   0.766   4.681  14.140 -0.0674 -0.0528 -0.2890
19889TIP3    H181158   0.681   4.685  14.095  0.6561 -1.2575 -1.8001
19889TIP3    H281159   0.755   4.612  14.205 -0.7715  0.9443  0.6594
19890TIP3   OH281160   3.132   6.650  16.700 -0.0826 -0.4878 -0.3703
19890TIP3    H181161   3.165   6.570  16.741 -0.1814 -0.7466 -0.7994
19890TIP3    H281162   3.037   6.643  16.706 -0.1021 -0.6369 -0.8613
19891TIP3   OH281163   3.739   2.822   2.154  0.2022 -0.0668  0.2491
19891TIP3    H181164   3.799   2.807   2.080 -3.1993 -2.2620 -2.2488
19891TIP3    H281165   3.722   2.735   2.189 -0.8385  0.6235  1.5030
19892TIP3   OH281166   2.571   5.561  12.049  0.2486 -0.2515  0.7343
19892TIP3    H181167   2.500   5.566  12.113 -0.2123  0.3046  0.1835
19892TIP3    H281168   2.641   5.614  12.087  0.4139 -0.8974  1.3336
19893TIP3   OH281169   3.834   5.264  15.605  0.0495 -0.0376 -0.4099
19893TIP3    H181170   3.778   5.330  15.562 -0.7202 -1.4745 -1.6515
19893TIP3    H281171   3.899   5.242  15.539 -0.0886 -1.0054 -0.2198
19894TIP3   OH281172   2.888   6.801   5.509 -0.5987  0.2078 -0.3236
19894TIP3    H181173   2.848   6.737   5.451  0.7960  1.0027 -2.2113
19894TIP3    H281174   2.871   6.886   5.468  2.7104  0.5874 -1.0621
19895TIP3   OH281175   6.504   5.807   2.107 -0.1129  0.1765  0.3402
19895TIP3    H181176   6.424   5.809   2.054  0.6744 -1.7051 -0.9847
19895TIP3    H281177   6.502   5.722   2.150  0.6544  0.5596  1.1271
19896TIP3   OH281178   2.336   0.941  11.675  0.3619 -0.0467  0.0426
19896TIP3    H181179   2.320   0.889  11.754 -1.9269  1.6998  0.7891
19896TIP3    H281180   2.298   1.027  11.695  1.7597  1.1202 -2.1294
19897TIP3   OH281181   0.027   3.132  15.812 -0.2749  0.3376  0.6416
19897TIP3    H181182  -0.022   3.191  15.755  0.2505 -1.3562 -1.6513
19897TIP3    H281183   0.090   3.189  15.858  0.1185  1.5857 -1.3912
19898TIP3   OH281184   0.290   3.029  16.911  0.3881 -0.0321  0.1144
19898TIP3    H181185   0.285   3.125  16.901  3.7985  0.0502 -1.3562
19898TIP3    H281186   0.243   3.012  16.992  1.3516  3.1418  1.4400
19899TIP3   OH281187   2.027   2.866   4.434  0.1930  0.2795  0.6416
19899TIP3    H181188   2.058   2.925   4.502 -1.1034  0.9659  0.6502
19899TIP3    H281189   2.033   2.917   4.353 -2.1657  0.9066  0.8299
19900TIP3   OH281190   4.345   0.755   2.574  0.0439  0.3163  0.1640
19900TIP3    H181191   4.415   0.818   2.591  0.0028 -0.2973  2.7538
19900TIP3    H281192   4.388   0.684   2.526  1.3362 -0.2828  2.1560
19901TIP3   OH281193   3.197   4.318  14.723 -0.0469 -0.3957  0.1599
19901TIP3    H181194   3.114   4.275  14.706  0.1977  0.0203 -2.2540
19901TIP3    H281195   3.180   4.410  14.704  0.7474 -0.1877  0.4494
19902TIP3   OH281196   5.095   4.261  16.443 -0.6210  0.5214 -0.3694
19902TIP3    H181197   5.174   4.296  16.402 -0.7754  3.0775  1.3742
19902TIP3    H281198   5.128   4.212  16.519 -0.6155  0.1866 -0.5879
19903TIP3   OH281199   1.980   0.516  16.987 -0.0061 -0.1718 -0.5214
19903TIP3    H181200   2.000   0.536  17.078  0.3019  0.6860 -0.7775
19903TIP3    H281201   1.906   0.572  16.966  0.0998 -0.1681 -0.8814
19904TIP3   OH281202   3.081   5.458  14.314 -0.2801 -0.3933 -0.0390
19904TIP3    H181203   3.073   5.430  14.223 -1.9336 -0.5514  0.1482
19904TIP3    H281204   3.147   5.399  14.351 -0.2096 -0.8756 -0.9080
19905TIP3   OH281205   6.592   1.493  13.755  0.1603  0.2842 -0.2035
19905TIP3    H181206   6.497   1.496  13.739  0.1128 -2.1844 -0.6086
19905TIP3    H281207   6.615   1.401  13.743  2.3219  0.5472  1.6623
19906TIP3   OH281208   4.125   4.144   0.294  0.1331 -0.0054 -0.9083
19906TIP3    H181209   4.150   4.065   0.343  0.1205  0.5328 -0.0105
19906TIP3    H281210   4.033   4.130   0.272 -0.1905  0.2558  0.2433
19907TIP3   OH281211   5.733   0.374  16.761 -0.6307  0.1020 -0.2814
19907TIP3    H181212   5.680   0.384  16.840  0.5834  0.6546  0.4829
19907TIP3    H281213   5.792   0.450  16.762  0.8809 -1.0377 -0.5561
19908TIP3   OH281214   0.339   0.334   1.062 -0.0109  0.3668 -0.2055
19908TIP3    H181215   0.374   0.417   1.030  0.0536  0.5966  0.4506
19908TIP3    H281216   0.274   0.360   1.127 -0.6742 -0.0811 -0.6842
19909TIP3   OH281217   2.762   2.788   3.932  0.0304 -0.0041 -0.1243
19909TIP3    H181218   2.807   2.730   3.993  0.1907  1.1683  0.8718
19909TIP3    H281219   2.822   2.861   3.919 -0.7625  0.6214 -0.2999
19910TIP3   OH281220   3.591   6.011  16.892  0.5798  0.1874 -0.5718
19910TIP3    H181221   3.621   5.943  16.831 -2.2869 -3.2040  1.5275
19910TIP3    H281222   3.496   6.009  16.884  0.1770  0.4424  3.0815
19911TIP3   OH281223   6.814   4.497  12.642  0.0308  0.3208  0.2899
19911TIP3    H181224   6.893   4.459  12.680 -0.8464  0.0360  1.8886
19911TIP3    H281225   6.835   4.590  12.631  1.2273 -0.0987 -1.0724
19912TIP3   OH281226   4.920   6.499   2.683 -0.2048  0.4013 -0.0065
19912TIP3    H181227   4.830   6.504   2.649 -0.4753  1.5370  0.8217
19912TIP3    H281228   4.929   6.410   2.717 -0.7663  0.0462 -0.7964
19913TIP3   OH281229   2.836   0.011   1.494 -0.1187  0.0467 -0.3590
19913TIP3    H181230   2.849   0.088   1.438  1.5380 -0.4902 -0.7207
19913TIP3    H281231   2.779  -0.046   1.442  0.6909 -0.0651 -1.1308
19914TIP3   OH281232   4.837   1.109   0.706  0.1302  0.2983 -0.2174
19914TIP3    H181233   4.840   1.119   0.611 -1.5427 -0.9810 -0.4373
19914TIP3    H281234   4.750   1.143   0.730  0.3489  0.1548  0.7921
19915TIP3   OH281235   3.944   3.867   3.928 -0.2041 -0.1482 -0.2468
19915TIP3    H181236   3.996   3.807   3.982  0.9810 -0.3626 -1.5961
19915TIP3    H281237   3.941   3.825   3.842  0.1041  1.4385 -1.0314
19916TIP3   OH281238   0.425   3.729  14.910 -0.7088  0.1536 -0.6596
19916TIP3    H181239   0.403   3.717  15.003 -0.7385 -1.8470 -0.9114
19916TIP3    H281240   0.510   3.773  14.912  0.1420 -1.4598  0.3658
19917TIP3   OH281241   6.392   4.064  15.099 -0.0746 -0.4496 -0.1910
19917TIP3    H181242   6.458   4.074  15.031  0.0667  0.3474  0.0568
19917TIP3    H281243   6.321   4.124  15.074  1.1010  1.8508  1.6884
19918TIP3   OH281244   5.577   2.635   5.907 -0.4412 -0.6987  0.4899
19918TIP3    H181245   5.614   2.547   5.908  0.5143 -0.3078  0.0454
19918TIP3    H281246   5.514   2.634   5.836  0.9952 -0.4643 -0.8267
19919TIP3   OH281247   5.309   0.433  11.308 -0.3365 -0.2848  0.2681
19919TIP3    H181248   5.404   0.427  11.317 -0.3487 -0.8129  0.0926
19919TIP3    H281249   5.295   0.445  11.214 -0.3383  2.2663  0.5475
19920TIP3   OH281250   5.917   3.963   5.655 -0.1054 -0.3102 -0.4851
19920TIP3    H181251   5.969   3.993   5.729  0.1504 -0.3063 -0.6662
19920TIP3    H281252   5.980   3.923   5.595 -0.1703  0.5330 -1.1357
19921TIP3   OH281253   4.729   4.398  15.468 -0.2644 -0.0127 -0.9122
19921TIP3    H181254   4.740   4.379  15.375 -0.9570  0.3831 -1.0744
19921TIP3    H281255   4.640   4.430  15.476 -0.2368 -0.1326 -0.0924
19922TIP3   OH281256   3.997   0.873   3.375 -1.0673  0.0043 -0.1550
19922TIP3    H181257   4.071   0.827   3.414 -1.7551 -0.7989  0.2109
19922TIP3    H281258   3.948   0.805   3.329 -2.7341  0.1460  1.3732
19923TIP3   OH281259   6.409   5.119   0.971 -0.0962  0.0280  0.0184
19923TIP3    H181260   6.377   5.055   1.035  1.0480 -0.8314 -0.2636
19923TIP3    H281261   6.488   5.156   1.011 -1.2681  1.9753  0.6099
19924TIP3   OH281262   2.051   0.467   0.497 -0.1177 -0.4142  0.3662
19924TIP3    H181263   1.975   0.516   0.468  0.1574 -0.0189  0.3084
19924TIP3    H281264   2.044   0.464   0.592 -0.6570 -1.1173  0.3077
19925TIP3   OH281265   1.139   0.836  14.003 -0.0559 -0.3899  0.3970
19925TIP3    H181266   1.049   0.829  14.035 -0.2986 -0.9886 -0.3822
19925TIP3    H281267   1.131   0.824  13.908  1.0056 -1.9170  0.4855
19926TIP3   OH281268   0.877   3.289   4.209  0.3175  0.2100 -0.1041
19926TIP3    H181269   0.927   3.208   4.200 -1.0156 -0.6590  0.2779
19926TIP3    H281270   0.801   3.277   4.152  0.4380  1.4593 -0.5511
19927TIP3   OH281271   5.423   2.249  17.055 -0.5477  0.5607 -0.4963
19927TIP3    H181272   5.406   2.217  16.966 -0.3635 -2.2381  0.4295
19927TIP3    H281273   5.517   2.239  17.066 -0.7001  0.0383  0.3340
19928TIP3   OH281274   1.205   3.273   5.001 -0.2488 -0.3364 -0.0470
19928TIP3    H181275   1.238   3.185   4.982  1.0169 -0.0134  0.6115
19928TIP3    H281276   1.216   3.321   4.919 -0.5577 -0.6750 -0.2895
19929TIP3   OH281277   1.978   3.533  11.686 -0.2288  0.2730  0.0069
19929TIP3    H181278   2.041   3.473  11.646  0.1685  1.3700 -1.0242
19929TIP3    H281279   1.988   3.518  11.780  1.1490  0.0120 -0.1681
19930TIP3   OH281280   1.101   5.521   5.057 -0.5088  0.8699  0.4741
19930TIP3    H181281   1.182   5.478   5.029 -0.2878  0.6987  1.3696
19930TIP3    H281282   1.129   5.591   5.115 -1.0056  0.8006  0.8036
19931TIP3   OH281283   5.823   3.136  11.742 -0.0892  0.2710  0.2031
19931TIP3    H181284   5.750   3.137  11.680  0.1968 -1.9666 -0.2152
19931TIP3    H281285   5.874   3.213  11.720 -2.1428  1.6995  0.2920
19932TIP3   OH281286   3.996   4.673   0.392  1.1064  0.3355 -0.1824
19932TIP3    H181287   3.927   4.700   0.331 -0.6680  0.5265  1.8421
19932TIP3    H281288   4.077   4.707   0.354  0.1473 -0.2607 -2.8205
19933TIP3   OH281289   1.067   5.530   0.438 -0.1710 -0.4410 -0.4046
19933TIP3    H181290   1.019   5.507   0.517  1.8933 -1.2942  0.6264
19933TIP3    H281291   1.063   5.626   0.434  1.2268 -0.2871  1.7025
19934TIP3   OH281292   4.877   2.527   5.168 -0.2450  0.6204 -0.0681
19934TIP3    H181293   4.939   2.500   5.235 -0.6585  0.6898  0.3442
19934TIP3    H281294   4.809   2.575   5.216 -1.2751 -0.5468 -0.3434
19935TIP3   OH281295   5.190   0.240   3.176  0.3136  0.4917 -0.3862
19935TIP3    H181296   5.224   0.238   3.087 -1.5840  0.7430 -1.1377
19935TIP3    H281297   5.103   0.279   3.168 -0.7460 -1.3988  1.2897
19936TIP3   OH281298   5.359   0.796  16.445  0.0080  0.6280  0.0868
19936TIP3    H181299   5.382   0.759  16.530  0.1302  1.0910  0.2545
19936TIP3    H281300   5.299   0.867  16.465 -2.0006 -0.8924 -0.3790
19937TIP3   OH281301   1.340   3.833  11.147  0.0183 -0.0674  0.4635
19937TIP3    H181302   1.389   3.800  11.072  1.5824 -0.7128  1.7470
19937TIP3    H281303   1.252   3.797  11.136  1.0224 -2.6799  0.5121
19938TIP3   OH281304   5.699   0.662  12.478 -0.1710  0.3805  0.2128
19938TIP3    H181305   5.621   0.718  12.474 -0.4897 -0.0656  0.0522
19938TIP3    H281306   5.685   0.597  12.408  1.2849  1.4966 -1.1555
19939TIP3   OH281307   6.478   6.424  16.025 -0.0816 -0.0311  0.4731
19939TIP3    H181308   6.385   6.409  16.007 -0.1771 -0.1970  1.0866
19939TIP3    H281309   6.480   6.467  16.111  0.4515 -0.9665  0.9494
19940TIP3   OH281310   1.520   2.197   3.864 -0.1490 -0.2576  0.1392
19940TIP3    H181311   1.495   2.246   3.942 -1.3682  0.7531 -0.8637
19940TIP3    H281312   1.613   2.215   3.853 -0.2210  0.5002  0.7171
19941TIP3   OH281313   2.932   5.382  13.551 -0.5027  0.1985 -0.0482
19941TIP3    H181314   2.863   5.352  13.492  0.6428  0.3945 -1.5150
19941TIP3    H281315   2.979   5.302  13.576  0.3601  0.3448 -1.1536
19942TIP3   OH281316   1.035   2.846  11.671 -0.0550  0.3640 -0.1770
19942TIP3    H181317   1.116   2.802  11.648  0.2368  1.7140 -1.8082
19942TIP3    H281318   0.969   2.806  11.614 -0.2923  0.2127  0.1982
19943TIP3   OH281319   0.634   6.473  13.653 -0.3429 -0.3243  0.3077
19943TIP3    H181320   0.695   6.466  13.579  0.0917 -2.9228  0.8442
19943TIP3    H281321   0.690   6.500  13.726 -0.2666 -0.4133  0.2826
19944TIP3   OH281322   2.080   6.546  15.431 -0.1415  0.0203 -0.0541
19944TIP3    H181323   2.070   6.507  15.344 -0.2151  2.1852 -1.0471
19944TIP3    H281324   2.054   6.638  15.419  0.3224  0.4556  2.1385
19945TIP3   OH281325   1.948   4.648  13.875  0.3528 -0.4692  0.0937
19945TIP3    H181326   1.856   4.664  13.894  0.1216 -0.9109 -0.6618
19945TIP3    H281327   1.980   4.598  13.950 -0.3251 -1.3922 -0.2337
19946TIP3   OH281328   1.657   4.494   5.439 -0.0748  0.2959 -0.3370
19946TIP3    H181329   1.602   4.422   5.470  0.5864 -0.8065 -1.6764
19946TIP3    H281330   1.717   4.512   5.512 -0.3791 -0.3754  0.0829
19947TIP3   OH281331   4.444   1.763  13.272 -0.2088 -0.0197 -0.7110
19947TIP3    H181332   4.420   1.698  13.205 -1.3102  0.0559 -0.3942
19947TIP3    H281333   4.378   1.752  13.341  0.6497  0.2270  0.1486
19948TIP3   OH281334   0.969   5.761   0.672  0.0722 -0.5933  0.9795
19948TIP3    H181335   0.882   5.730   0.647  0.5256 -0.8730 -0.3454
19948TIP3    H281336   0.984   5.837   0.616  1.0559 -1.1216  0.5064
19949TIP3   OH281337   1.957   1.084  16.041  0.0628  0.2826  0.3275
19949TIP3    H181338   1.866   1.110  16.025  0.6184  2.6598  0.8192
19949TIP3    H281339   1.967   1.088  16.136  0.3481 -1.2117  0.3752
19950TIP3   OH281340   0.964   0.129   5.635 -0.0208  0.7768 -0.1478
19950TIP3    H181341   1.028   0.196   5.613 -0.0936  0.6179 -0.8372
19950TIP3    H281342   0.892   0.177   5.676  0.8723  0.8693  1.3587
19951TIP3   OH281343   6.501   6.178   5.312  0.1808  0.2564  0.3022
19951TIP3    H181344   6.573   6.229   5.275 -0.0948  2.4146  2.5770
19951TIP3    H281345   6.424   6.234   5.301 -0.6459 -0.8475  0.3860
19952TIP3   OH281346   6.121   4.977   1.422  0.2877  0.0891 -0.1787
19952TIP3    H181347   6.051   5.002   1.361 -0.0449  1.5502  0.7727
19952TIP3    H281348   6.074   4.945   1.500  0.7020 -0.8549 -0.3103
19953TIP3   OH281349   2.058   1.794  12.919  0.4596 -0.3162 -0.2520
19953TIP3    H181350   2.022   1.790  12.830  0.4885 -0.1526 -0.2724
19953TIP3    H281351   1.989   1.836  12.971  0.7086  0.2052 -0.3384
19954TIP3   OH281352   0.279   1.112  15.699  0.3314  0.4607 -0.2687
19954TIP3    H181353   0.265   1.021  15.674 -0.3690  0.3343  0.5489
19954TIP3    H281354   0.373   1.119  15.713  0.2500 -0.4555  0.8226
19955TIP3   OH281355   4.825   5.007   5.743  0.2033 -1.1915  0.1694
19955TIP3    H181356   4.913   4.970   5.747  0.8297  0.1653 -0.5940
19955TIP3    H281357   4.837   5.094   5.704 -1.1941 -0.1117  2.0521
19956TIP3   OH281358   5.796   5.919   3.335 -0.0722 -0.4896 -0.0238
19956TIP3    H181359   5.757   5.874   3.410 -1.3891  0.0904 -0.3397
19956TIP3    H281360   5.744   5.998   3.325  0.0883 -0.5606 -1.5448
19957TIP3   OH281361   0.600   2.112  15.426  0.3625  0.8990  0.3203
19957TIP3    H181362   0.570   2.050  15.493  0.4634  0.9681  0.4284
19957TIP3    H281363   0.678   2.152  15.464  0.8942  0.3413 -0.1688
19958TIP3   OH281364   4.030   1.710   4.058 -0.5658 -0.5562  0.3718
19958TIP3    H181365   4.065   1.795   4.030 -1.2767 -0.3376  0.1173
19958TIP3    H281366   3.936   1.724   4.064 -0.7553 -1.4758 -0.2114
19959TIP3   OH281367   6.745   4.835   2.168  0.2741 -0.1111 -0.0119
19959TIP3    H181368   6.679   4.900   2.146  0.3565  0.8519  2.3992
19959TIP3    H281369   6.697   4.752   2.171  0.2545 -0.2967 -3.5433
19960TIP3   OH281370   2.769   2.462  10.920  0.4180  0.5727 -0.1745
19960TIP3    H181371   2.687   2.466  10.969 -1.2347  0.3555 -2.8157
19960TIP3    H281372   2.833   2.506  10.976 -1.8769  2.2262  1.2092
19961TIP3   OH281373   5.849   6.023  11.798  0.2344 -0.7425  0.2218
19961TIP3    H181374   5.923   5.973  11.763 -0.0643 -1.2428  0.2945
19961TIP3    H281375   5.800   6.051  11.720 -1.2701 -3.1403  0.2283
19962TIP3   OH281376   5.005   5.228   4.583 -0.5094 -0.0505 -0.1857
19962TIP3    H181377   4.990   5.321   4.567 -0.2870 -0.1091 -0.7503
19962TIP3    H281378   5.029   5.193   4.498  1.4820 -0.2300  0.4313
19963TIP3   OH281379   6.240   5.065  14.625  0.0853 -0.2614  0.5859
19963TIP3    H181380   6.330   5.099  14.631 -0.7792  2.4574 -0.9707
19963TIP3    H281381   6.185   5.139  14.651 -1.8529 -0.7027 -2.0628
19964TIP3   OH281382   3.266   6.429  16.566  0.3194  0.1106  0.4388
19964TIP3    H181383   3.330   6.427  16.495  0.4174  0.6198  0.5032
19964TIP3    H281384   3.200   6.492  16.537 -0.9961 -1.5798 -0.3248
19965TIP3   OH281385   3.536   2.487  11.449  0.0562  0.5009  0.4832
19965TIP3    H181386   3.521   2.394  11.436 -0.8399  0.6370  0.5325
19965TIP3    H281387   3.626   2.502  11.418 -0.7602  0.1383 -2.1131
19966TIP3   OH281388   2.320   6.340   2.733  0.2155 -0.5068  0.0744
19966TIP3    H181389   2.354   6.262   2.777 -0.6601 -1.2003 -0.4511
19966TIP3    H281390   2.377   6.352   2.657  0.8286 -0.1768  0.5880
19967TIP3   OH281391   4.285   4.794  14.125  0.0277 -0.4559 -0.2549
19967TIP3    H181392   4.349   4.732  14.160 -0.5044 -0.3916  0.8394
19967TIP3    H281393   4.280   4.864  14.190 -0.9136 -0.3016 -0.4793
19968TIP3   OH281394   4.882   0.728  16.158  0.3382  0.1019 -0.4570
19968TIP3    H181395   4.967   0.755  16.192  0.2264  0.5154 -0.4951
19968TIP3    H281396   4.849   0.665  16.222  1.1900 -0.9590 -1.0628
19969TIP3   OH281397   6.064   5.079   5.375  0.7710  0.1525  0.9046
19969TIP3    H181398   6.124   5.097   5.448  0.0106  0.8231  1.3766
19969TIP3    H281399   5.976   5.084   5.415  0.3245  1.1931 -0.1946
19970TIP3   OH281400   0.316   3.031  16.109 -0.3747 -0.6190 -0.3280
19970TIP3    H181401   0.263   3.055  16.185 -0.0722 -3.1738  0.7207
19970TIP3    H281402   0.255   2.983  16.052  0.1696 -1.3049 -0.3260
19971TIP3   OH281403   1.815   6.730   2.608  0.0687 -0.0078 -0.3210
19971TIP3    H181404   1.787   6.656   2.661  0.9015 -0.2114 -0.1622
19971TIP3    H281405   1.897   6.701   2.567  0.9254  1.1685  0.5227
19972TIP3   OH281406   6.604   2.451  11.998  0.1030 -0.5857  0.0038
19972TIP3    H181407   6.544   2.377  11.989  1.4382 -1.6773 -0.1300
19972TIP3    H281408   6.675   2.431  11.936 -0.6505  1.9484 -1.7322
19973TIP3   OH281409   0.807   4.917  11.437  0.1893 -0.2869  0.0112
19973TIP3    H181410   0.752   4.901  11.360  2.0065  1.4800 -1.7257
19973TIP3    H281411   0.893   4.885  11.412  0.4712 -1.1145  1.9289
19974TIP3   OH281412   2.566   3.174   3.010  0.3380  0.0337  0.3554
19974TIP3    H181413   2.483   3.139   3.044  0.4449 -1.5492 -0.9333
19974TIP3    H281414   2.629   3.160   3.081 -0.7654  2.6004  1.9215
19975TIP3   OH281415   2.149   6.493   4.276 -0.0073 -0.2279  0.0946
19975TIP3    H181416   2.241   6.517   4.279 -0.1502  0.4315 -0.7243
19975TIP3    H281417   2.142   6.430   4.204 -0.5711  1.4128 -1.3238
19976TIP3   OH281418   1.508   6.227  13.755 -0.2594  0.4453 -0.7305
19976TIP3    H181419   1.505   6.308  13.704 -3.2110  1.0193  0.3105
19976TIP3    H281420   1.499   6.255  13.846  1.0067 -0.8948 -0.1670
19977TIP3   OH281421   2.898   2.654   6.186  0.3708 -0.1196  0.5927
19977TIP3    H181422   2.907   2.613   6.100 -2.3280 -1.9125  1.1212
19977TIP3    H281423   2.986   2.650   6.223  1.0272 -1.6668 -1.0502
19978TIP3   OH281424   3.235   4.378   6.437  0.9400 -0.0136  0.1142
19978TIP3    H181425   3.263   4.436   6.507  2.0370 -1.0573  0.5507
19978TIP3    H281426   3.184   4.310   6.482 -0.4231  0.6394 -0.4037
19979TIP3   OH281427   3.396   5.650   0.567 -0.0745  0.0869 -0.2457
19979TIP3    H181428   3.316   5.679   0.524  0.1582 -0.1670 -0.8459
19979TIP3    H281429   3.407   5.710   0.641  0.8841  2.1078 -1.9769
19980TIP3   OH281430   4.708   2.767  11.194  0.3577  0.1252 -0.1488
19980TIP3    H181431   4.658   2.786  11.273 -1.0326 -0.0809 -0.9558
19980TIP3    H281432   4.776   2.835  11.192  0.8178 -0.2605  1.5512
19981TIP3   OH281433   0.938   2.663   2.611  0.0669  0.4774  0.1246
19981TIP3    H181434   0.919   2.755   2.630 -2.1391  0.0864 -0.0945
19981TIP3    H281435   0.951   2.623   2.697  0.4252  0.8484  0.2484
19982TIP3   OH281436   5.201   1.442  16.866 -0.3013 -0.2738  0.2796
19982TIP3    H181437   5.113   1.454  16.830 -1.1620 -2.1940  1.6592
19982TIP3    H281438   5.259   1.476  16.797 -2.1058  1.4865 -0.4305
19983TIP3   OH281439   5.546   1.844   2.529 -0.1924 -0.2129 -0.0270
19983TIP3    H181440   5.458   1.882   2.540  0.6104  1.8815 -0.5425
19983TIP3    H281441   5.596   1.878   2.602  0.5606 -0.2645 -0.5141
19984TIP3   OH281442   4.336   6.495  14.900  0.2273 -0.4638 -0.5033
19984TIP3    H181443   4.247   6.461  14.895  0.0376  0.0399 -0.5696
19984TIP3    H281444   4.341   6.562  14.832  0.1406  0.6660  0.5835
19985TIP3   OH281445   6.325   0.405   5.502  0.0330  0.0060 -0.3017
19985TIP3    H181446   6.320   0.313   5.477  1.0648 -0.3246  0.6459
19985TIP3    H281447   6.250   0.419   5.559  0.6099 -0.6121  0.6333
19986TIP3   OH281448   3.995   1.523   4.234  0.4754 -0.2956 -0.0650
19986TIP3    H181449   3.902   1.504   4.219  0.6191 -0.7077 -0.4633
19986TIP3    H281450   4.015   1.595   4.174  0.5747 -0.6600 -0.4775
19987TIP3   OH281451   1.827   1.704   4.567 -0.1495 -0.3854 -0.3233
19987TIP3    H181452   1.911   1.712   4.523 -1.4754  0.3493 -2.8299
19987TIP3    H281453   1.833   1.763   4.643  1.1856  0.5379 -1.1395
19988TIP3   OH281454   6.085   0.136  16.205  0.0512 -0.4586 -0.5786
19988TIP3    H181455   6.179   0.133  16.223  0.2178  1.2158 -1.0723
19988TIP3    H281456   6.044   0.103  16.285  0.9783  1.8523  0.9149
19989TIP3   OH281457   2.525   6.216  11.346 -0.3151 -0.0224 -0.0345
19989TIP3    H181458   2.488   6.189  11.262 -1.6656 -0.3479  0.6441
19989TIP3    H281459   2.460   6.276  11.383 -0.5532 -1.1881  1.5168
19990TIP3   OH281460   5.650   0.667   4.258 -0.1560 -0.3102 -0.2749
19990TIP3    H181461   5.722   0.652   4.196  0.5791  1.0016  0.2239
19990TIP3    H281462   5.580   0.609   4.229  1.5137 -2.4781 -0.0989
19991TIP3   OH281463   2.647   6.334  15.542 -0.0629  0.6741  0.6653
19991TIP3    H181464   2.668   6.421  15.506  0.7119  0.8116  1.4302
19991TIP3    H281465   2.700   6.328  15.621  0.5711 -0.8760  0.1284
19992TIP3   OH281466   4.573   1.282  14.120  0.2391 -0.5919 -0.8538
19992TIP3    H181467   4.656   1.329  14.128 -0.6204  0.9294 -0.6824
19992TIP3    H281468   4.591   1.196  14.158  1.4644  0.0688  0.1072
19993TIP3   OH281469   2.695   3.305  16.625 -0.2766  0.6027 -0.1528
19993TIP3    H181470   2.746   3.378  16.660 -2.7551  2.1706  0.2762
19993TIP3    H281471   2.624   3.292  16.687 -0.6126 -1.3721 -0.8794
19994TIP3   OH281472   0.732   3.332  14.880 -0.5677 -0.4465  0.0420
19994TIP3    H181473   0.654   3.385  14.894  0.0731  0.5409 -0.0635
19994TIP3    H281474   0.776   3.330  14.965  1.0335  1.8540 -0.6818
19995TIP3   OH281475   4.571   3.878  15.099 -0.2932 -0.5639  0.1016
19995TIP3    H181476   4.547   3.944  15.034  2.3841  0.7842  0.4275
19995TIP3    H281477   4.611   3.808  15.047 -1.1784 -0.9967 -0.0150
19996TIP3   OH281478   2.318   3.986  12.876  0.2991  0.1938 -0.5156
19996TIP3    H181479   2.341   4.079  12.870  0.6831  0.0962 -0.5387
19996TIP3    H281480   2.225   3.983  12.852 -0.3191  0.8531  1.6058
19997TIP3   OH281481   3.758   1.064  13.485 -0.2396 -0.0883  0.4770
19997TIP3    H181482   3.663   1.075  13.482 -0.4344 -1.7886  0.3713
19997TIP3    H281483   3.788   1.134  13.543 -1.4062  1.3179 -0.5891
19998TIP3   OH281484   5.281   4.517  15.043  0.4070  0.1031  0.9899
19998TIP3    H181485   5.210   4.466  15.005  1.2790  0.3436 -1.0194
19998TIP3    H281486   5.237   4.582  15.098 -1.0305  1.1903 -1.3594
19999TIP3   OH281487   3.908   5.147   4.048  0.7022  0.6710 -0.0845
19999TIP3    H181488   3.915   5.166   3.955 -2.7859  1.8403 -0.1765
19999TIP3    H281489   3.882   5.055   4.052 -0.7985  1.0727 -0.3545
20000TIP3   OH281490   3.017   6.090  12.912 -0.4253  0.2084  0.9515
20000TIP3    H181491   3.039   6.170  12.959 -2.4496  1.0595  0.4956
20000TIP3    H281492   2.963   6.041  12.973  2.4035 -1.7823  1.9867
20001TIP3   OH281493   3.710   3.004  11.120  0.2102 -1.0007 -0.2015
20001TIP3    H181494   3.646   3.068  11.090  1.4847  0.0730 -0.6502
20001TIP3    H281495   3.678   2.920  11.086 -0.8322 -0.4392 -0.6013
20002TIP3   OH281496   5.271   0.595  11.028 -0.7562  0.1006 -0.4038
20002TIP3    H181497   5.346   0.617  10.973 -1.8795  1.5661 -1.3877
20002TIP3    H281498   5.263   0.500  11.019  1.1360 -0.1122 -0.0554
20003TIP3   OH281499   0.501   1.796  11.926  0.1836  0.2347 -0.1199
20003TIP3    H181500   0.522   1.885  11.898 -1.0250  0.4530 -0.3703
20003TIP3    H281501   0.456   1.757  11.851 -1.3572  0.1782  0.8232
20004TIP3   OH281502   4.270   2.173   1.258 -0.5345  0.0475  0.0441
20004TIP3    H181503   4.202   2.154   1.322  0.1605 -0.2776  0.6911
20004TIP3    H281504   4.349   2.190   1.310  0.1886 -0.8648 -0.7333
20005TIP3   OH281505   1.094   1.526  14.522  0.4376 -0.2169 -0.5886
20005TIP3    H181506   1.015   1.503  14.474 -0.6318  0.5963  0.7466
20005TIP3    H281507   1.086   1.620  14.538  2.9756  0.4311 -2.7533
20006TIP3   OH281508   4.070   2.584  15.113 -0.3411 -0.1649  0.0445
20006TIP3    H181509   3.991   2.590  15.060 -0.4197  1.5451  0.3238
20006TIP3    H281510   4.063   2.657  15.175  0.7852 -0.8264  0.9800
20007TIP3   OH281511   4.229   0.442   4.503 -0.0275  0.0030  0.3160
20007TIP3    H181512   4.165   0.395   4.449 -0.9723  1.3601  0.2132
20007TIP3    H281513   4.209   0.415   4.593  0.5184 -1.0521  0.1280
20008TIP3   OH281514   0.811   3.077   0.502 -0.4451  0.0602  0.2089
20008TIP3    H181515   0.879   3.041   0.445  0.1929  0.0304  0.9803
20008TIP3    H281516   0.729   3.051   0.460  0.0114 -1.0063 -0.0443
20009TIP3   OH281517   1.966   1.487  14.944 -0.3125 -0.0589  0.0236
20009TIP3    H181518   1.889   1.526  14.904 -0.5828 -0.0037  0.5990
20009TIP3    H281519   2.000   1.555  15.001 -0.0010 -0.1867 -0.0076
20010TIP3   OH281520   0.181   0.839  12.971  0.5405  0.2589 -0.2055
20010TIP3    H181521   0.157   0.747  12.978 -0.6482  0.7349  2.5541
20010TIP3    H281522   0.127   0.873  12.900 -1.0181 -0.5461  0.5818
20011TIP3   OH281523   2.758   1.500  14.438 -0.2214  0.0678  0.2324
20011TIP3    H181524   2.730   1.507  14.529  1.0039  0.7613  0.5507
20011TIP3    H281525   2.761   1.590  14.406 -0.7370 -0.1749 -0.5365
20012TIP3   OH281526   6.526   1.956   5.918  0.1282  0.1284 -0.1497
20012TIP3    H181527   6.572   1.926   5.840 -1.3350 -1.7493 -0.3508
20012TIP3    H281528   6.573   1.915   5.991 -1.0648 -1.6856 -0.3472
20013TIP3   OH281529   6.762   3.575  13.398  0.1474 -0.0034  0.0507
20013TIP3    H181530   6.701   3.589  13.470  0.3208 -1.9782  0.6083
20013TIP3    H281531   6.847   3.569  13.440  0.3813 -0.1282 -0.4412
20014TIP3   OH281532   1.111   1.466   3.412  0.0307  0.3169 -0.3327
20014TIP3    H181533   1.175   1.405   3.376 -1.3463 -1.0681 -0.4938
20014TIP3    H281534   1.083   1.426   3.495 -2.2454 -0.2504 -1.3176
20015TIP3   OH281535   6.096   0.632  14.436 -0.1945 -0.3489  0.4917
20015TIP3    H181536   6.071   0.703  14.495 -2.9414 -1.3551  0.6248
20015TIP3    H281537   6.072   0.663  14.349 -0.4110 -0.6834  0.4309
20016TIP3   OH281538   3.860   3.163   1.117  0.2601  0.6585 -0.6521
20016TIP3    H181539   3.935   3.203   1.160 -0.2963  1.3199 -0.2914
20016TIP3    H281540   3.784   3.193   1.167 -0.1703 -0.9211 -0.3110
20017TIP3   OH281541   4.682   5.984  14.327  0.4865 -0.0627  0.1198
20017TIP3    H181542   4.719   5.896  14.328 -1.8783 -1.0848 -0.7059
20017TIP3    H281543   4.664   6.001  14.234  0.1039  0.9491  0.3735
20018TIP3   OH281544   6.022   4.035  14.829 -0.0710  0.1157 -0.2733
20018TIP3    H181545   5.930   4.057  14.817 -0.3988  1.1808  3.3404
20018TIP3    H281546   6.063   4.055  14.745 -2.7105  2.0088 -1.1804
20019TIP3   OH281547   1.804   4.439   6.060 -0.2498 -0.7345  0.1054
20019TIP3    H181548   1.760   4.486   6.132 -1.6950 -0.0590 -1.1966
20019TIP3    H281549   1.741   4.373   6.034 -0.0506 -0.4592 -1.0737
20020TIP3   OH281550   0.395   6.593   1.468 -0.8031  0.1567 -0.1467
20020TIP3    H181551   0.421   6.609   1.558 -2.9677  0.4949  0.4396
20020TIP3    H281552   0.386   6.497   1.462  0.3007  0.0543 -0.2949
20021TIP3   OH281553   1.745   2.844  12.911 -0.4206 -0.1493  0.4780
20021TIP3    H181554   1.698   2.872  12.990  0.7641  1.0843  0.7746
20021TIP3    H281555   1.676   2.825  12.847 -1.3734 -0.4898  1.5814
20022TIP3   OH281556   5.614   1.443   3.308 -0.5325 -0.4693  0.5473
20022TIP3    H181557   5.523   1.446   3.281 -0.9979  2.3330  2.1782
20022TIP3    H281558   5.647   1.531   3.289  1.5782 -1.1754  0.7962
20023TIP3   OH281559   5.149   6.129   6.238  0.1899 -0.2026 -0.4099
20023TIP3    H181560   5.178   6.075   6.165  0.9843  0.0774 -0.3088
20023TIP3    H281561   5.117   6.067   6.303 -0.5274 -0.4527 -0.9913
20024TIP3   OH281562   5.064   1.430  13.093 -0.4193 -0.0806 -0.5291
20024TIP3    H181563   5.142   1.486  13.098  0.4442 -1.3273  0.1500
20024TIP3    H281564   5.031   1.444  13.004  1.6145 -0.9162 -1.4503
20025TIP3   OH281565   2.731   5.755  10.486 -0.3271 -0.2333  0.0344
20025TIP3    H181566   2.638   5.741  10.467 -0.4151 -0.9711  0.9452
20025TIP3    H281567   2.739   5.735  10.579  0.5375  0.9556  0.2135
20026TIP3   OH281568   4.444   5.119  14.365  0.1236  0.2641 -0.3928
20026TIP3    H181569   4.360   5.073  14.368  0.0724  0.2458 -1.6597
20026TIP3    H281570   4.442   5.168  14.282  1.1734  0.6218 -0.2213
20027TIP3   OH281571   1.461   3.044  16.612  0.1242  0.1670  0.7573
20027TIP3    H181572   1.485   3.129  16.574 -0.3764 -0.2621 -0.5524
20027TIP3    H281573   1.507   3.042  16.696  0.1312  1.7391  0.8137
20028TIP3   OH281574   2.252   1.171  12.428 -0.1038 -0.3982  0.3297
20028TIP3    H181575   2.282   1.219  12.351  0.3435 -1.4049 -0.1310
20028TIP3    H281576   2.234   1.239  12.494  1.9091  0.2957  0.1805
20029TIP3   OH281577   0.013   4.146   5.742  0.7005 -0.1442  0.0974
20029TIP3    H181578  -0.058   4.084   5.727  1.0417 -0.5119 -0.0032
20029TIP3    H281579  -0.031   4.227   5.769  0.3003 -0.7902  1.4618
20030TIP3   OH281580   0.166   4.427   3.625 -0.3513 -0.0820 -0.7808
20030TIP3    H181581   0.257   4.405   3.603  0.0633  1.9969 -1.2179
20030TIP3    H281582   0.171   4.459   3.715 -0.5656  0.5182 -0.9822
20031TIP3   OH281583   0.500   5.465   0.093  0.0319  0.3195  0.8320
20031TIP3    H181584   0.446   5.544   0.096  0.0413  0.4348 -1.3041
20031TIP3    H281585   0.547   5.471   0.010 -0.8725 -2.5303  0.0676
20032TIP3   OH281586   4.289   6.757  15.628  0.0889 -0.3109  0.9776
20032TIP3    H181587   4.361   6.714  15.582 -0.6349 -1.6439  1.0756
20032TIP3    H281588   4.273   6.702  15.705 -2.7030 -1.4767 -0.3731
20033TIP3   OH281589   0.947   0.779  14.533 -0.2681 -0.0320 -0.0330
20033TIP3    H181590   0.929   0.776  14.627 -0.2241  1.8171  0.0451
20033TIP3    H281591   0.869   0.820  14.495 -0.0727 -0.3095 -0.7405
20034TIP3   OH281592   4.162   0.404   1.212  0.5995 -0.1862  0.1780
20034TIP3    H181593   4.074   0.367   1.219  0.1584  0.7799 -0.0840
20034TIP3    H281594   4.160   0.482   1.268  1.9187 -1.2810  1.7701
20035TIP3   OH281595   4.861   6.663   1.793 -0.3974 -0.1813  0.2876
20035TIP3    H181596   4.833   6.748   1.829 -0.8908 -1.5503  3.2656
20035TIP3    H281597   4.802   6.648   1.719 -0.7932  1.6977  0.1806
20036TIP3   OH281598   2.201   2.360  16.802  0.0582 -0.7072  0.4836
20036TIP3    H181599   2.290   2.345  16.834 -0.6857 -1.2447  2.3911
20036TIP3    H281600   2.156   2.277  16.819 -0.6230 -0.6748 -1.1345
20037TIP3   OH281601   3.365   4.620  11.888  0.3390  0.3920  0.4382
20037TIP3    H181602   3.404   4.704  11.864 -0.3852  1.2163  2.0013
20037TIP3    H281603   3.438   4.567  11.920  0.2866  1.8812  3.2384
20038TIP3   OH281604   0.747   5.079  16.485 -0.2887  0.0659  0.1541
20038TIP3    H181605   0.693   5.103  16.560  1.7070  0.7771  1.3859
20038TIP3    H281606   0.769   5.163  16.443 -0.8212 -0.2771 -0.8317
20039TIP3   OH281607   6.707   3.018   1.311 -0.2987  0.0211 -0.4456
20039TIP3    H181608   6.699   3.017   1.215  0.9650 -0.8130 -0.5554
20039TIP3    H281609   6.657   2.942   1.340  2.8859 -2.3440 -0.7924
20040TIP3   OH281610   5.677   1.704   3.260 -0.4914  0.0172  0.5947
20040TIP3    H181611   5.593   1.749   3.252 -0.3125  0.6167  1.9466
20040TIP3    H281612   5.743   1.774   3.258 -0.0978 -0.3429  0.8100
20041TIP3   OH281613   0.194   5.222  14.400 -0.5485 -0.3690  0.0824
20041TIP3    H181614   0.222   5.284  14.332 -0.7606 -0.6302 -0.2422
20041TIP3    H281615   0.102   5.241  14.413  0.1703  1.7533  2.4914
20042TIP3   OH281616   0.120   6.332  14.250  0.2871  0.0558 -0.0852
20042TIP3    H181617   0.149   6.247  14.218 -1.3054 -0.6406  0.2852
20042TIP3    H281618   0.030   6.340  14.220 -0.0586  0.9709  1.1485
20043TIP3   OH281619   6.417   0.096  16.159 -0.3642  0.2520  0.1825
20043TIP3    H181620   6.361   0.019  16.168 -2.8559  1.9730 -0.2056
20043TIP3    H281621   6.476   0.073  16.087 -0.6430 -1.5313  0.4835
20044TIP3   OH281622   2.143   3.327  13.926  0.6713  0.2918  0.2083
20044TIP3    H181623   2.122   3.329  14.020 -1.4818 -1.2307 -0.1762
20044TIP3    H281624   2.089   3.396  13.888  0.9073  0.3505 -0.0177
20045TIP3   OH281625   5.976   6.264   5.852 -0.0555  0.8535  0.1011
20045TIP3    H181626   5.980   6.179   5.896  0.2690  0.9911  0.3357
20045TIP3    H281627   6.000   6.246   5.761 -0.0852  0.6792  0.1284
20046TIP3   OH281628   6.267   3.014  15.523 -0.0898 -0.3372  0.0372
20046TIP3    H181629   6.296   3.020  15.432  2.2922 -1.7976  0.6620
20046TIP3    H281630   6.179   2.977  15.517 -0.5231  0.9062 -1.7398
20047TIP3   OH281631   0.017   0.388   1.475 -0.0238  0.7522  0.1779
20047TIP3    H181632   0.059   0.439   1.405 -0.2775 -0.0486 -0.5678
20047TIP3    H281633   0.089   0.337   1.513 -0.3665 -0.9238 -1.3673
20048TIP3   OH281634   1.830   1.945  11.959  0.3246  0.9502 -0.3759
20048TIP3    H181635   1.875   1.877  11.909 -0.9891 -0.2407  0.0316
20048TIP3    H281636   1.894   1.973  12.025  0.9567  0.2990 -0.7030
20049TIP3   OH281637   5.088   5.099   2.397  0.7110 -0.5234  0.0859
20049TIP3    H181638   5.005   5.132   2.431  0.3895 -1.2228 -0.0042
20049TIP3    H281639   5.079   5.003   2.401  1.8438 -0.6089  0.8888
20050TIP3   OH281640   0.420   5.766   3.556 -0.3495  0.2927  0.0727
20050TIP3    H181641   0.379   5.851   3.575  0.9299  0.8807  0.2076
20050TIP3    H281642   0.373   5.734   3.479  1.5549  2.7802 -2.1995
20051TIP3   OH281643   2.678   3.602  13.168 -0.1281 -0.7603 -0.1411
20051TIP3    H181644   2.591   3.566  13.185  0.1652 -1.5635 -0.3170
20051TIP3    H281645   2.738   3.537  13.203  0.3981  1.3461  3.0085
20052TIP3   OH281646   4.299   4.848  12.381 -0.2001  0.7342 -0.2229
20052TIP3    H181647   4.366   4.907  12.418 -0.4667  0.1498  1.2484
20052TIP3    H281648   4.252   4.902  12.318 -0.5247  2.1806  1.2031
20053TIP3   OH281649   5.552   1.111  10.425 -0.1931  0.3100 -0.4314
20053TIP3    H181650   5.480   1.054  10.397  0.5253 -0.4196 -0.8411
20053TIP3    H281651   5.592   1.064  10.498  0.6781  0.0591 -1.0593
20054TIP3   OH281652   3.432   0.081  10.925 -0.1785 -0.0827 -0.3725
20054TIP3    H181653   3.433   0.027  10.846  2.4458 -0.6916  0.0162
20054TIP3    H281654   3.443   0.019  10.997  1.0121  0.7726  0.2034
20055TIP3   OH281655   4.088   6.053   0.923 -0.1312 -0.3624  1.3067
20055TIP3    H181656   4.057   6.035   0.834 -0.8694 -1.5349  1.7846
20055TIP3    H281657   4.182   6.037   0.920  0.0669  0.8795  0.4262
20056TIP3   OH281658   1.906   5.792  14.071 -0.1635 -0.1140 -0.3279
20056TIP3    H181659   1.901   5.888  14.066  1.0977 -0.1224 -2.2782
20056TIP3    H281660   1.962   5.767  13.998 -2.0817 -2.5035 -1.0708
20057TIP3   OH281661   6.031   4.558   0.194 -0.1618  0.5544  0.7107
20057TIP3    H181662   5.970   4.493   0.158  0.5732 -0.0029  0.4614
20057TIP3    H281663   6.045   4.620   0.123  0.2142  0.2166  0.4894
20058TIP3   OH281664   2.367   4.457   5.425 -0.4456  0.3236 -0.2467
20058TIP3    H181665   2.419   4.536   5.413 -0.1385 -0.0452 -1.3936
20058TIP3    H281666   2.356   4.450   5.520  0.8552  0.8743 -0.0443
20059TIP3   OH281667   1.600   6.105   3.414  0.1810 -0.2140 -0.1484
20059TIP3    H181668   1.533   6.039   3.434 -0.3688  0.8264  1.5219
20059TIP3    H281669   1.611   6.153   3.495  0.3287  1.9925 -1.4397
20060TIP3   OH281670   3.143   2.106   0.006 -0.0299  0.0692 -0.6895
20060TIP3    H181671   3.105   2.045  -0.059 -0.3936  0.7739 -1.1388
20060TIP3    H281672   3.184   2.174  -0.047 -0.2928  0.6306 -0.1718
20061TIP3   OH281673   0.465   5.243   0.865 -0.3342 -0.8307 -0.3930
20061TIP3    H181674   0.374   5.245   0.835  0.0708 -0.0870 -1.6258
20061TIP3    H281675   0.512   5.201   0.794  0.5394  0.2783 -0.4706
20062TIP3   OH281676   2.013   3.523   5.048  0.0485 -0.0343 -0.0799
20062TIP3    H181677   2.082   3.589   5.054  0.4036 -0.3048 -0.9963
20062TIP3    H281678   1.931   3.573   5.057  0.2772  0.6840 -1.6581
20063TIP3   OH281679   1.647   5.188  16.216 -0.3524 -0.1258  0.1954
20063TIP3    H181680   1.653   5.221  16.305 -0.3076  1.7135 -0.4723
20063TIP3    H281681   1.711   5.117  16.212 -0.1126  0.0102  1.5186
20064TIP3   OH281682   5.055   2.471  15.743 -0.2567  0.7336  0.2323
20064TIP3    H181683   5.139   2.426  15.753  0.5787  2.1738 -0.2274
20064TIP3    H281684   5.078   2.558  15.711 -1.8241  1.7503  1.8221
20065TIP3   OH281685   6.759   2.986  14.585  0.0543  0.2985  0.3411
20065TIP3    H181686   6.774   2.926  14.658 -0.4332 -1.4158 -0.9237
20065TIP3    H281687   6.731   2.930  14.513  0.3430  1.9614 -1.1223
20066TIP3   OH281688   1.161   1.004   5.039  0.1554 -0.0901  0.0941
20066TIP3    H181689   1.203   0.950   4.972  0.5315 -0.1774  0.3956
20066TIP3    H281690   1.217   0.994   5.116  0.8571  1.6447 -0.1843
20067TIP3   OH281691   5.663   6.422   3.428  0.1480  0.2099  0.2695
20067TIP3    H181692   5.732   6.370   3.469 -0.2895 -0.7058 -0.1412
20067TIP3    H281693   5.589   6.362   3.419 -0.0389  0.6214 -1.0874
20068TIP3   OH281694   0.102   4.867   5.102  0.2709  0.4321  0.0401
20068TIP3    H181695   0.159   4.821   5.040  0.6427  0.5113  0.3213
20068TIP3    H281696   0.026   4.810   5.112  0.4943  0.1253 -0.0109
20069TIP3   OH281697   0.934   1.374   3.224 -0.4099  0.0474 -0.7353
20069TIP3    H181698   0.987   1.425   3.286 -1.7900 -1.1602  1.5032
20069TIP3    H281699   0.984   1.295   3.208 -0.2622  0.1581 -0.8255
20070TIP3   OH281700   4.172   5.192   6.542 -0.3941  0.1370  0.9427
20070TIP3    H181701   4.113   5.251   6.495 -1.3563 -0.9398  0.7800
20070TIP3    H281702   4.122   5.112   6.553  0.1792  0.0307  2.9539
20071TIP3   OH281703   3.181   4.237  12.731 -0.2384 -0.1787 -0.4821
20071TIP3    H181704   3.134   4.319  12.743 -1.1826 -0.5683 -1.3700
20071TIP3    H281705   3.125   4.186  12.672 -0.7811 -2.3560  1.8408
20072TIP3   OH281706   5.385   1.037   1.434  0.1807 -0.4410 -0.0621
20072TIP3    H181707   5.360   0.959   1.483 -0.2782  0.5466  1.3456
20072TIP3    H281708   5.303   1.086   1.423  0.3641 -0.4166 -1.4158
20073TIP3   OH281709   3.770   1.316   2.365  0.2395 -0.4932 -0.0861
20073TIP3    H181710   3.710   1.255   2.408  1.8091 -2.9280 -1.1938
20073TIP3    H281711   3.721   1.346   2.288 -0.2691 -0.9551  0.0479
20074TIP3   OH281712   4.509   2.826  14.756 -0.8044 -0.6895  0.3203
20074TIP3    H181713   4.507   2.784  14.669 -1.3479  1.9579 -0.9914
20074TIP3    H281714   4.601   2.852  14.766 -0.4975 -1.9988  1.0767
20075TIP3   OH281715   5.134   6.049  16.164 -0.1830  0.9899 -0.0673
20075TIP3    H181716   5.156   6.091  16.248  0.7250  0.5649 -0.0813
20075TIP3    H281717   5.040   6.034  16.168  0.0015  0.1058  1.2885
20076TIP3   OH281718   3.627   2.762   1.828  0.1363 -0.0081 -0.1112
20076TIP3    H181719   3.663   2.843   1.792  1.4590 -0.3115  0.5194
20076TIP3    H281720   3.547   2.789   1.874 -1.2224  0.4805 -2.6483
20077TIP3   OH281721   6.686   5.560   0.778  0.0558  0.4177  0.0514
20077TIP3    H181722   6.594   5.576   0.753  0.0563 -0.7150 -0.6809
20077TIP3    H281723   6.693   5.465   0.785  1.1546  0.5042  0.1933
20078TIP3   OH281724   6.452   5.396  14.413 -0.0819  0.4424 -0.2035
20078TIP3    H181725   6.375   5.451  14.429 -0.0274  0.1622  1.1002
20078TIP3    H281726   6.468   5.353  14.497  2.6265  1.9158  0.0737
20079TIP3   OH281727   5.093   1.128   1.566  0.1393  0.5194  0.1965
20079TIP3    H181728   5.027   1.139   1.635  0.2480 -1.2432  0.5956
20079TIP3    H281729   5.134   1.043   1.585  2.1746  1.3476 -0.3368
20080TIP3   OH281730   4.628   2.411  15.159 -0.0916 -0.1716  0.5540
20080TIP3    H181731   4.648   2.505  15.167  0.7536 -0.2026 -1.1194
20080TIP3    H281732   4.681   2.370  15.227  1.1846  0.3532 -0.1102
20081TIP3   OH281733   4.690   6.477  15.217 -0.4054 -0.3202 -0.3014
20081TIP3    H181734   4.623   6.541  15.240 -1.1227 -0.3985 -2.0564
20081TIP3    H281735   4.686   6.411  15.286  0.2568  1.4591  1.4577
20082TIP3   OH281736   0.081   2.535  10.734 -0.7420 -0.1464  0.5661
20082TIP3    H181737  -0.014   2.540  10.738 -0.6115  0.8348  3.9890
20082TIP3    H281738   0.108   2.621  10.701 -0.9609  0.6447  2.3842
20083TIP3   OH281739   5.304   1.278  14.075  0.0104  0.1978 -0.3606
20083TIP3    H181740   5.329   1.369  14.058  1.1597 -0.0717 -0.1181
20083TIP3    H281741   5.336   1.229  13.999 -0.2199 -0.0812 -0.2801
20084TIP3   OH281742   4.944   6.724  13.957 -0.2270 -0.2156 -0.1848
20084TIP3    H181743   4.862   6.677  13.973 -1.1234  1.4930  0.4414
20084TIP3    H281744   5.005   6.657  13.928 -1.5700 -1.6861  0.3031
20085TIP3   OH281745   5.812   4.551   3.738 -0.4427 -0.0942 -0.0264
20085TIP3    H181746   5.867   4.488   3.785  1.0016 -0.6157 -2.3182
20085TIP3    H281747   5.816   4.630   3.791  3.4782  0.2408 -0.6754
20086TIP3   OH281748   6.772   1.247   5.148  0.0627 -0.3523  0.3990
20086TIP3    H181749   6.863   1.233   5.123  0.6522 -1.7405  3.1168
20086TIP3    H281750   6.776   1.274   5.240 -2.2176  0.6442  0.2557
20087TIP3   OH281751   4.118   3.129   2.745 -0.1007 -0.1312  0.5610
20087TIP3    H181752   4.203   3.105   2.781  0.2206 -2.0753 -1.3384
20087TIP3    H281753   4.054   3.103   2.812  0.6923 -0.4303  1.2001
20088TIP3   OH281754   2.929   2.302   2.112  0.0430 -0.3231  0.0058
20088TIP3    H181755   2.889   2.387   2.129  0.3487 -0.0780 -0.4858
20088TIP3    H281756   2.972   2.278   2.194  3.1645  1.7423 -0.9367
20089TIP3   OH281757   1.262   0.652   0.939 -0.0294 -0.1499  0.0956
20089TIP3    H181758   1.192   0.645   1.004  0.6130  0.7650  0.8954
20089TIP3    H281759   1.322   0.581   0.961  1.8298  2.0990  2.5324
20090TIP3   OH281760   5.584   5.128   5.027  0.0030  0.1476  0.0545
20090TIP3    H181761   5.545   5.045   5.000 -2.3425  2.0367 -2.6559
20090TIP3    H281762   5.647   5.148   4.959  0.3521  0.7717  0.5553
20091TIP3   OH281763   6.026   3.442   3.991 -0.0273  0.0842  0.1121
20091TIP3    H181764   6.014   3.386   3.914 -0.2196 -1.6557  1.3661
20091TIP3    H281765   6.119   3.465   3.990 -0.1704  0.6465 -1.0101
20092TIP3   OH281766   3.171   3.407   2.292 -0.3770  0.2069  0.4030
20092TIP3    H181767   3.084   3.439   2.268  0.8338  0.6254 -3.7739
20092TIP3    H281768   3.178   3.322   2.248  0.9923 -0.2904  1.5348
20093TIP3   OH281769   0.474   4.105   5.975 -0.3932 -0.0949  0.0617
20093TIP3    H181770   0.392   4.140   5.939  0.9661  1.5985 -1.5510
20093TIP3    H281771   0.505   4.174   6.034  1.4470  0.7796 -1.8249
20094TIP3   OH281772   0.481   5.096  16.641 -0.7747 -0.6209 -0.2427
20094TIP3    H181773   0.524   5.180  16.625 -1.1903 -0.3267  0.1555
20094TIP3    H281774   0.410   5.117  16.702 -1.0762 -1.2095 -0.3906
20095TIP3   OH281775   1.715   2.331  14.240  0.2054  1.0423  0.1141
20095TIP3    H181776   1.705   2.258  14.301  1.1074  0.0989 -0.8611
20095TIP3    H281777   1.625   2.353  14.214 -0.1117  0.7187  0.9099
20096TIP3   OH281778   4.529   2.077   6.185 -0.2475 -0.2451 -0.7199
20096TIP3    H181779   4.439   2.055   6.162  0.4104 -2.9066 -0.8492
20096TIP3    H281780   4.541   2.041   6.273  0.9967 -0.7939 -1.1022
20097TIP3   OH281781   3.017   6.469  14.140 -0.7057  0.7785  0.2409
20097TIP3    H181782   2.973   6.414  14.205 -0.6603 -0.8345 -1.0507
20097TIP3    H281783   2.946   6.499  14.082 -0.4320  0.2472 -0.3687
20098TIP3   OH281784   1.865   3.806  13.292  0.1714 -0.9359 -0.6556
20098TIP3    H181785   1.939   3.865  13.273 -0.4102 -0.4475 -1.4446
20098TIP3    H281786   1.849   3.817  13.386  0.3939 -0.2049 -0.6949
20099TIP3   OH281787   6.121   3.529   0.854  0.3498 -0.5516 -0.1360
20099TIP3    H181788   6.105   3.479   0.774 -1.1918 -0.2961 -0.0033
20099TIP3    H281789   6.091   3.471   0.924 -1.5014  0.5829  0.0182
20100TIP3   OH281790   6.648   5.773  14.381 -0.1186 -0.1710  0.2421
20100TIP3    H181791   6.738   5.775  14.412 -0.1443 -1.9752  0.5024
20100TIP3    H281792   6.645   5.840  14.312  1.6675 -0.7483 -0.4320
20101TIP3   OH281793   6.215   2.048  12.898 -0.1663 -0.2694 -0.2382
20101TIP3    H181794   6.220   2.116  12.966 -1.7862 -0.8092  0.4579
20101TIP3    H281795   6.301   2.006  12.900 -0.2571 -0.4439  1.6917
20102TIP3   OH281796   4.373   6.196   6.217  0.2957  0.0719 -0.1610
20102TIP3    H181797   4.391   6.259   6.287 -1.6671  1.3637 -0.7650
20102TIP3    H281798   4.401   6.112   6.253  2.8608  1.2419  0.6983
20103TIP3   OH281799   0.838   0.115   2.523 -0.5839 -0.8032 -0.3485
20103TIP3    H181800   0.788   0.092   2.445 -1.1679 -0.1491 -0.1717
20103TIP3    H281801   0.928   0.125   2.493 -0.2216 -3.6134 -0.3967
20104TIP3   OH281802   4.317   5.890   3.755  0.2531 -0.0759  0.0995
20104TIP3    H181803   4.346   5.880   3.846  0.9936 -1.6186 -0.2753
20104TIP3    H281804   4.222   5.896   3.760  0.3038  0.0633  0.9942
20105TIP3   OH281805   1.067   5.578   4.179 -0.1852  0.5913 -0.2771
20105TIP3    H181806   1.061   5.608   4.088  0.7311 -0.2515 -0.6251
20105TIP3    H281807   1.121   5.499   4.174 -0.6113  0.2206  0.9275
20106TIP3   OH281808   3.334   5.290  12.520 -0.5282  0.4157  0.9315
20106TIP3    H181809   3.423   5.260  12.503 -1.3186 -1.1179 -0.5754
20106TIP3    H281810   3.285   5.210  12.541 -2.0582  0.9491 -0.5162
20107TIP3   OH281811   5.313   3.349   3.061  0.3413  0.5869  0.3687
20107TIP3    H181812   5.385   3.306   3.108  0.1730 -0.4093 -0.2564
20107TIP3    H281813   5.282   3.282   2.999  0.4835  1.8140 -1.0633
20108TIP3   OH281814   3.981   0.308  14.778 -0.5175 -0.2814 -0.6218
20108TIP3    H181815   4.018   0.368  14.714  0.7360  0.0286  0.3718
20108TIP3    H281816   3.963   0.228  14.729 -1.9657  0.8022 -1.9000
20109TIP3   OH281817   1.148   1.764   6.858  0.2141 -0.0772 -0.0324
20109TIP3    H181818   1.060   1.799   6.842  0.7631  0.0991 -2.9518
20109TIP3    H281819   1.196   1.837   6.898 -0.2320  0.7296 -0.9326
20110TIP3   OH281820   1.761   2.573  14.642 -0.0947  0.0329 -0.2281
20110TIP3    H181821   1.675   2.555  14.604 -0.0808 -1.0168  0.2201
20110TIP3    H281822   1.823   2.554  14.572 -0.1599 -0.3282 -0.1860
20111TIP3   OH281823   3.338   0.488   4.088  0.0559 -0.1864  0.4246
20111TIP3    H181824   3.334   0.579   4.116  0.2029  0.0451 -0.2820
20111TIP3    H281825   3.373   0.441   4.163 -0.0323  0.3389  0.7977
20112TIP3   OH281826   2.738   6.166  14.539  0.0501 -0.0688 -0.4079
20112TIP3    H181827   2.807   6.120  14.492 -0.1080 -1.0839  0.3482
20112TIP3    H281828   2.679   6.097  14.569 -1.0559  0.7458 -0.6479
20113TIP3   OH281829   4.069   2.351  15.748  0.1552  0.3510  0.0522
20113TIP3    H181830   4.125   2.428  15.756 -0.2642  0.7136 -0.4743
20113TIP3    H281831   4.110   2.298  15.679  0.5566  0.0037  0.5564
20114TIP3   OH281832   5.842   5.773   0.877 -0.1778 -0.1062 -0.0934
20114TIP3    H181833   5.748   5.793   0.884 -0.4102 -1.0851 -0.3776
20114TIP3    H281834   5.869   5.757   0.967 -0.3534 -0.1599 -0.0500
20115TIP3   OH281835   2.724   3.956   2.305  0.3769  0.2258  0.4652
20115TIP3    H181836   2.746   3.866   2.278 -1.1447  0.0165 -0.1344
20115TIP3    H281837   2.788   3.977   2.373  0.4241 -1.5030  0.9814
20116TIP3   OH281838   4.535   0.894  10.569  0.0420 -0.5346 -0.0465
20116TIP3    H181839   4.475   0.875  10.641  0.1548 -1.1265 -0.1030
20116TIP3    H281840   4.574   0.978  10.592 -0.9186 -0.0746 -0.0867
20117TIP3   OH281841   6.152   3.952   3.003  0.4678 -0.4210  0.3753
20117TIP3    H181842   6.243   3.980   3.013  1.0507 -1.7525 -0.9407
20117TIP3    H281843   6.145   3.875   3.060 -0.2561  0.5332  1.5983
20118TIP3   OH281844   0.740   0.677  15.877  0.5574 -0.6270  0.2415
20118TIP3    H181845   0.794   0.756  15.881 -0.4590  0.0503  0.9855
20118TIP3    H281846   0.666   0.696  15.935 -0.3621 -1.6223 -0.5825
20119TIP3   OH281847   1.550   0.144   4.813  0.6693 -0.7457  0.2032
20119TIP3    H181848   1.630   0.107   4.850  0.4512  0.3082  1.7395
20119TIP3    H281849   1.479   0.105   4.863  0.3894  0.9669  1.1812
20120TIP3   OH281850   1.704   0.420   4.845 -0.1080 -0.2645  0.1363
20120TIP3    H181851   1.691   0.346   4.905  0.9910 -1.0377 -0.5712
20120TIP3    H281852   1.783   0.464   4.878  0.3194 -0.5113 -0.5605
20121TIP3   OH281853   3.815   4.462   0.948 -0.4928  0.5306  0.2281
20121TIP3    H181854   3.886   4.514   0.985 -1.3040  1.8122  0.0007
20121TIP3    H281855   3.800   4.500   0.861 -1.6648  0.4583  0.3982
20122TIP3   OH281856   3.281   1.052   1.700  0.1403  0.2065 -0.0550
20122TIP3    H181857   3.344   1.114   1.661 -0.3106  0.6272 -0.1161
20122TIP3    H281858   3.240   1.010   1.624  0.6173 -0.3515 -0.0130
20123TIP3   OH281859   1.230   6.786   0.035 -0.0814 -0.5759 -0.3504
20123TIP3    H181860   1.211   6.729   0.109  1.8416 -1.2211 -0.3355
20123TIP3    H281861   1.251   6.725  -0.037  0.9941  0.0860 -0.6093
20124TIP3   OH281862   0.149   4.080  16.025  0.4936 -0.0898  0.2050
20124TIP3    H181863   0.055   4.094  16.018  0.6974  2.8788  2.4484
20124TIP3    H281864   0.159   3.988  16.050 -1.6911 -0.8806 -1.7320
20125TIP3   OH281865   1.131   5.511  16.480  0.0301 -0.2833  0.3188
20125TIP3    H181866   1.205   5.510  16.420  0.1686 -1.3251  0.4889
20125TIP3    H281867   1.115   5.604  16.498  0.6953 -0.0168 -0.4480
20126TIP3   OH281868   3.941   1.694   0.816 -0.0127 -0.4321  0.3028
20126TIP3    H181869   3.915   1.603   0.804 -0.5666 -0.2772  0.2941
20126TIP3    H281870   3.880   1.728   0.883  0.3231 -0.1302  0.4566
20127TIP3   OH281871   5.097   5.555  11.537 -0.6426  0.1290 -0.3918
20127TIP3    H181872   5.040   5.624  11.505  0.5921  1.4135  0.1042
20127TIP3    H281873   5.149   5.597  11.606  1.5506 -0.7389 -1.4643
20128TIP3   OH281874   4.880   0.375  10.979  0.6242  0.5285 -0.1051
20128TIP3    H181875   4.941   0.389  11.051  1.7917 -3.5913 -0.1958
20128TIP3    H281876   4.796   0.405  11.013  1.5016  0.3616  2.3185
20129TIP3   OH281877   5.682   6.758  13.990 -0.4375  0.2916  0.4501
20129TIP3    H181878   5.768   6.790  14.016 -0.4512 -0.3424  1.2603
20129TIP3    H281879   5.695   6.724  13.901  0.1066  0.3308  0.5124
20130TIP3   OH281880   4.736   6.410  13.527 -0.0137  0.1482 -0.3527
20130TIP3    H181881   4.765   6.335  13.476 -1.2200 -0.1133 -0.6727
20130TIP3    H281882   4.814   6.463  13.539 -0.1214  1.4077 -4.4519
20131TIP3   OH281883   4.472   4.871  11.773 -0.5843 -0.1716  0.3418
20131TIP3    H181884   4.520   4.789  11.777  1.3959  0.8506 -1.5320
20131TIP3    H281885   4.512   4.925  11.841 -0.0383  0.1784 -0.2537
20132TIP3   OH281886   3.750   0.541   4.029  0.4932  0.0833  0.0610
20132TIP3    H181887   3.770   0.546   3.935  0.2882 -1.9011 -0.1116
20132TIP3    H281888   3.682   0.606   4.043  1.7946  1.6641 -0.8076
20133TIP3   OH281889   6.659   3.524   1.991 -0.3629 -0.6115  0.2791
20133TIP3    H181890   6.730   3.460   1.986 -1.3720 -1.8618  1.5418
20133TIP3    H281891   6.632   3.537   1.900 -1.1356 -3.1521  0.1154
20134TIP3   OH281892   1.569   1.563  16.198 -0.0293  0.2424 -0.2232
20134TIP3    H181893   1.547   1.519  16.280  2.5248 -1.6615 -0.4903
20134TIP3    H281894   1.495   1.544  16.140 -1.7571  1.4348  1.5394
20135TIP3   OH281895   4.617   4.206   1.771  0.1853  0.4811  0.6956
20135TIP3    H181896   4.672   4.128   1.765 -0.9447 -0.2130 -1.1650
20135TIP3    H281897   4.600   4.217   1.865 -1.4363 -2.7986  0.8271
20136TIP3   OH281898   0.350   5.618  17.222  0.3002  0.1198 -0.0217
20136TIP3    H181899   0.275   5.573  17.182 -0.1979  0.3265  0.6799
20136TIP3    H281900   0.424   5.594  17.166 -0.0300 -1.2524  0.1079
20137TIP3   OH281901   1.420   6.273  14.545  0.7886  0.5985  0.3187
20137TIP3    H181902   1.383   6.187  14.564  1.6754 -0.0974 -0.9672
20137TIP3    H281903   1.345   6.325  14.513  0.6204 -0.3016 -0.7632
20138TIP3   OH281904   6.498   2.810  14.505  0.0764 -0.2497 -0.6350
20138TIP3    H181905   6.403   2.823  14.515  0.3491  2.6975 -1.2200
20138TIP3    H281906   6.517   2.732  14.556 -2.5200 -0.3376  0.2955
20139TIP3   OH281907   5.593   3.523   3.519 -0.0064  0.0110  0.8361
20139TIP3    H181908   5.546   3.541   3.601  1.0814  0.6027  1.3426
20139TIP3    H281909   5.617   3.609   3.486  2.2836 -0.3222  1.5202
20140TIP3   OH281910   0.282   5.530   4.303 -0.3159 -0.4434  0.1437
20140TIP3    H181911   0.376   5.535   4.322 -0.1073 -1.3803 -0.6079
20140TIP3    H281912   0.247   5.472   4.371 -0.8018  1.8425  1.9384
20141TIP3   OH281913   4.635   5.850  15.141  0.0555 -0.4655  0.6019
20141TIP3    H181914   4.594   5.934  15.163 -0.1910 -0.7335  1.1595
20141TIP3    H281915   4.689   5.829  15.217 -0.9540 -1.4941  1.0336
20142TIP3   OH281916   2.316   0.682  15.553 -0.7313  0.5149 -0.7376
20142TIP3    H181917   2.358   0.635  15.626 -0.0815  0.2629 -1.2627
20142TIP3    H281918   2.235   0.633  15.537 -0.1770 -0.2937 -1.1201
20143TIP3   OH281919   4.055   0.002  15.483 -0.1735 -0.0516 -0.0369
20143TIP3    H181920   4.008  -0.081  15.477  0.3901 -0.3569 -0.1861
20143TIP3    H281921   4.147  -0.022  15.487 -0.0560  0.5123  1.0027
20144TIP3   OH281922   2.379   3.417  14.489 -0.1748 -0.6341 -0.3103
20144TIP3    H181923   2.434   3.428  14.411  0.2005 -0.9972 -0.1075
20144TIP3    H281924   2.353   3.506  14.513 -1.1932 -0.6066 -1.4788
20145TIP3   OH281925   3.229   1.049   2.503  0.1514 -0.2845 -0.1034
20145TIP3    H181926   3.287   1.084   2.436  0.6597 -0.8151  0.0538
20145TIP3    H281927   3.147   1.029   2.457  0.0455  0.6049 -0.2916
20146TIP3   OH281928   4.142   4.813   0.098  0.0487 -0.0907  0.3935
20146TIP3    H181929   4.172   4.899   0.070 -1.4836  0.5662  0.7561
20146TIP3    H281930   4.087   4.782   0.026 -1.6279  0.4084  1.4516
20147TIP3   OH281931   3.231   1.069   0.695  0.2624  0.4015 -0.8302
20147TIP3    H181932   3.262   1.107   0.778 -2.4814 -0.3861  0.6017
20147TIP3    H281933   3.300   1.007   0.671  2.1267  2.2072 -0.2884
20148TIP3   OH281934   4.555   4.807  12.698 -0.2664 -0.2806  0.2337
20148TIP3    H181935   4.586   4.797  12.608  0.1764 -0.4724  0.4050
20148TIP3    H281936   4.481   4.868  12.691  1.0823  1.3786 -0.0173
20149TIP3   OH281937   4.370   1.034   0.505  0.1398 -0.2026  0.2742
20149TIP3    H181938   4.432   1.107   0.518 -0.5123  0.2752  0.7158
20149TIP3    H281939   4.285   1.070   0.531  0.0123 -1.5084  1.7009
20150TIP3   OH281940   2.613   6.194   5.924  0.0694  0.4284 -0.2311
20150TIP3    H181941   2.595   6.135   5.997 -0.8220  1.1555  0.1507
20150TIP3    H281942   2.563   6.158   5.851  0.7696 -0.1635 -0.4207
20151TIP3   OH281943   1.040   6.743   5.464 -0.1388  0.5318  0.2750
20151TIP3    H181944   0.964   6.728   5.407  0.0734 -1.1451  0.3919
20151TIP3    H281945   1.015   6.818   5.518 -0.8377  1.3679 -1.1731
20152TIP3   OH281946   0.080   0.278  14.438  0.1758  0.5312 -0.1747
20152TIP3    H181947   0.090   0.360  14.389 -2.0425  0.5768 -0.6213
20152TIP3    H281948  -0.015   0.266  14.445  0.4139  0.0209  3.2553
20153TIP3   OH281949   6.170   2.255   0.010  0.2607 -0.1713 -0.6345
20153TIP3    H181950   6.223   2.334   0.018  1.6920 -1.1235 -0.6356
20153TIP3    H281951   6.190   2.222  -0.078  0.4008 -1.0623 -0.2654
20154TIP3   OH281952   0.540   1.495   1.429  0.1916 -0.1052 -0.1362
20154TIP3    H181953   0.621   1.496   1.377  0.2246  1.6397 -0.0779
20154TIP3    H281954   0.501   1.581   1.414 -1.2889 -0.6616  0.4327
20155TIP3   OH281955   0.287   1.427   4.158 -0.5421  0.3659 -0.6256
20155TIP3    H181956   0.237   1.348   4.138 -0.5978  0.2449 -0.0222
20155TIP3    H281957   0.221   1.495   4.170 -0.6162  0.0056  1.0660
20156TIP3   OH281958   5.860   4.872  16.096 -0.0884  0.6540 -0.0106
20156TIP3    H181959   5.822   4.931  16.032 -0.7665 -0.3538 -0.5500
20156TIP3    H281960   5.952   4.897  16.101 -0.2616  1.3997 -0.6212
20157TIP3   OH281961   5.039   3.158   5.208  0.0396 -0.5982 -0.3018
20157TIP3    H181962   5.099   3.094   5.170  0.5257  0.8661 -2.0805
20157TIP3    H281963   5.036   3.136   5.301  1.2754 -2.3274 -0.6475
20158TIP3   OH281964   5.141   2.439  12.266  0.2711 -0.7180  0.4108
20158TIP3    H181965   5.145   2.527  12.303 -3.5123 -0.3202  0.1262
20158TIP3    H281966   5.047   2.417  12.268  1.0486 -4.4190 -0.2655
20159TIP3   OH281967   3.043   0.233  13.633 -0.3903  0.4318  0.2568
20159TIP3    H181968   3.092   0.152  13.647  3.9301  2.2045 -3.3429
20159TIP3    H281969   2.966   0.206  13.582  0.4597 -1.5268 -0.0320
20160TIP3   OH281970   0.375   4.021   0.510  0.0074 -0.3288  0.2172
20160TIP3    H181971   0.334   4.106   0.522  0.1997 -0.2407  0.2702
20160TIP3    H281972   0.370   3.980   0.596  0.2240 -0.2294  0.2774
20161TIP3   OH281973   2.049   6.204  11.267 -0.3813 -0.5656 -0.1043
20161TIP3    H181974   2.121   6.173  11.322  0.5815  0.0591 -0.9966
20161TIP3    H281975   2.022   6.286  11.308 -0.4738 -0.7131  0.1328
20162TIP3   OH281976   2.634   6.707  13.375 -0.1556 -0.4935 -0.3536
20162TIP3    H181977   2.644   6.637  13.440  0.3970 -0.0853  0.0045
20162TIP3    H281978   2.700   6.688  13.309 -0.7583 -0.9423 -0.8389
20163TIP3   OH281979   0.141   1.970  13.747  0.4827 -0.4153 -0.7246
20163TIP3    H181980   0.066   1.914  13.724 -0.6514  0.9715 -0.4816
20163TIP3    H281981   0.108   2.028  13.816  2.4095 -1.1743  0.8734
20164TIP3   OH281982   5.880   0.677   1.576 -0.7509  0.9426  0.0997
20164TIP3    H181983   5.813   0.635   1.631 -0.4902  0.2852 -0.0797
20164TIP3    H281984   5.844   0.674   1.488  0.6822 -1.9259 -0.4516
20165TIP3   OH281985   5.449   6.107  11.813 -0.4318 -0.3011  0.3990
20165TIP3    H181986   5.426   6.045  11.882  1.1090  0.6786  1.8357
20165TIP3    H281987   5.374   6.105  11.753  0.4544 -5.0516 -0.7291
20166TIP3   OH281988   3.287   4.059   3.372  0.0323  0.0323 -0.1252
20166TIP3    H181989   3.255   4.075   3.461  0.8130  0.0852  0.1464
20166TIP3    H281990   3.256   4.135   3.321 -1.9863 -0.8974 -0.3155
20167TIP3   OH281991   5.699   5.601  14.026  0.2559 -0.1289 -0.4866
20167TIP3    H181992   5.746   5.656  14.089 -0.9801 -1.2102  1.4350
20167TIP3    H281993   5.761   5.532  14.004  0.9655  0.6783 -1.0912
20168TIP3   OH281994   3.269   0.854   4.857  0.1521  0.0270 -0.5350
20168TIP3    H181995   3.211   0.779   4.867  1.2326 -0.7297  0.2686
20168TIP3    H281996   3.320   0.856   4.939  0.3555  1.4420 -0.6768
20169TIP3   OH281997   0.008   1.691  15.740 -0.1619  0.6420  0.2960
20169TIP3    H181998   0.038   1.776  15.709 -0.7667  0.7880  0.0957
20169TIP3    H281999   0.070   1.667  15.808  0.1620  1.1265  0.1763
20170TIP3   OH282000   3.534   3.544   3.616 -0.1733  0.4704 -0.2777
20170TIP3    H182001   3.532   3.635   3.588  0.3730  0.6689  0.3200
20170TIP3    H282002   3.442   3.518   3.620 -0.3659  1.2344  0.3375
20171TIP3   OH282003   3.818   0.695  15.764  0.6217  0.4886 -0.0233
20171TIP3    H182004   3.911   0.717  15.757  0.9754 -1.0269 -0.2628
20171TIP3    H282005   3.815   0.626  15.830 -0.3102  0.3765 -0.1734
20172TIP3   OH282006   3.235   6.694   2.252 -0.0511  0.1794 -0.5551
20172TIP3    H182007   3.195   6.651   2.176  0.8171 -1.3503 -0.1772
20172TIP3    H282008   3.328   6.699   2.229 -0.0440  1.2657 -0.3047
20173TIP3   OH282009   2.489   1.011   2.523  0.1444 -0.1429  0.2040
20173TIP3    H182010   2.401   1.033   2.556 -0.3742  0.2017 -1.3489
20173TIP3    H282011   2.541   0.995   2.602 -1.5316 -1.2038  1.1197
20174TIP3   OH282012   1.416   4.961   5.032 -0.0009 -0.4896 -0.6778
20174TIP3    H182013   1.412   4.867   5.018  1.7864 -0.8507  1.0079
20174TIP3    H282014   1.343   4.980   5.091  0.7788 -1.1417  0.5128
20175TIP3   OH282015   3.559   1.861   4.407 -0.1558  0.3052 -0.0894
20175TIP3    H182016   3.554   1.938   4.464 -0.1180 -0.3677  0.8143
20175TIP3    H282017   3.471   1.824   4.410  0.1830 -0.4423  0.5051
20176TIP3   OH282018   4.286   3.126  11.816 -0.7363 -0.1989  0.2896
20176TIP3    H182019   4.207   3.087  11.854 -0.4273 -0.9160  0.1896
20176TIP3    H282020   4.331   3.053  11.773 -0.0740  0.2343  0.2453
20177TIP3   OH282021   3.070   3.782   4.646  0.0786 -0.4161  0.6340
20177TIP3    H182022   3.116   3.839   4.708  0.3297 -0.6527  0.6668
20177TIP3    H282023   3.000   3.836   4.611  0.4186 -0.0335  0.5423
20178TIP3   OH282024   2.254   3.703  15.463  0.0148 -0.3036 -0.7631
20178TIP3    H182025   2.272   3.629  15.520 -1.6433 -0.9419 -1.0582
20178TIP3    H282026   2.309   3.774  15.498 -1.0312 -0.6437  1.6645
20179TIP3   OH282027   3.372   1.932   2.636 -0.3059 -0.4591 -0.5174
20179TIP3    H182028   3.308   1.879   2.685  0.5687 -0.7127  0.3700
20179TIP3    H282029   3.448   1.876   2.628  1.6879  1.5815  2.8767
20180TIP3   OH282030   1.705   6.682  14.269  0.6495 -0.1218  0.6342
20180TIP3    H182031   1.711   6.587  14.276  0.7743 -0.2150 -0.7260
20180TIP3    H282032   1.624   6.704  14.315  0.0751 -0.9911  0.0584
20181TIP3   OH282033   4.431   0.866  17.253  0.1230  0.2499 -0.7789
20181TIP3    H182034   4.457   0.918  17.329 -0.4105 -0.7657  0.1236
20181TIP3    H282035   4.335   0.874  17.250  0.1878  0.7516 -1.6928
20182TIP3   OH282036   2.344   5.195  14.628 -0.4471 -0.0159  0.3443
20182TIP3    H182037   2.363   5.289  14.620  0.3457  0.1277  3.2679
20182TIP3    H282038   2.419   5.160  14.678 -0.9289 -2.1311 -0.3728
20183TIP3   OH282039   0.421   0.378   0.177 -0.6959 -0.3931  0.1215
20183TIP3    H182040   0.331   0.366   0.206 -0.6917  1.2569  0.8810
20183TIP3    H282041   0.418   0.369   0.082 -2.1493  2.2820 -0.1436
20184TIP3   OH282042   0.311   1.535   0.636 -0.1820  0.2189  0.7541
20184TIP3    H182043   0.369   1.466   0.668 -0.3591 -0.1280  0.3416
20184TIP3    H282044   0.270   1.497   0.558  0.7801  1.3017 -0.2910
20185TIP3   OH282045   6.109   3.394   5.991  0.0271 -0.2338  0.0930
20185TIP3    H182046   6.159   3.313   6.007  0.5014 -0.0153 -0.2755
20185TIP3    H282047   6.113   3.441   6.075 -1.2776 -1.1421  0.6850
20186TIP3   OH282048   3.636   0.436   5.023 -0.1979 -0.2557  0.0390
20186TIP3    H182049   3.541   0.432   5.040  0.0291  0.9892  1.7805
20186TIP3    H282050   3.643   0.497   4.948 -0.6653  1.2102  1.1556
20187TIP3   OH282051   5.110   3.095   0.189  0.7248 -0.0454  0.2546
20187TIP3    H182052   5.170   3.054   0.251  0.0544 -0.1358  0.8451
20187TIP3    H282053   5.032   3.115   0.240  1.3779  2.8510  0.2356
20188TIP3   OH282054   0.026   3.775   5.588  0.6952  0.1841  0.4876
20188TIP3    H182055   0.010   3.866   5.563  2.9186  1.0984  2.2213
20188TIP3    H282056   0.032   3.729   5.504  0.4458  1.7800 -0.4444
20189TIP3   OH282057   6.069   2.291  14.060  0.6565  0.1635 -0.3227
20189TIP3    H182058   6.027   2.316  14.142 -0.7602 -0.9509 -0.6736
20189TIP3    H282059   6.063   2.369  14.005  3.2680  1.5024  1.2524
20190TIP3   OH282060   6.738   5.851   5.303  0.3243  0.1749  0.4742
20190TIP3    H182061   6.719   5.893   5.387  1.4685  0.1607  0.7473
20190TIP3    H282062   6.833   5.848   5.299  0.2592 -1.1595 -0.1657
20191TIP3   OH282063   1.989   5.322   3.553  0.0319  0.2174  0.2566
20191TIP3    H182064   1.917   5.380   3.580 -0.6653 -1.0733  1.2728
20191TIP3    H282065   2.014   5.277   3.634 -0.1681 -1.6813 -0.7163
20192TIP3   OH282066   2.589   0.509   1.464  0.7224  0.0729  0.2953
20192TIP3    H182067   2.529   0.494   1.391  2.5802  0.0202 -1.2396
20192TIP3    H282068   2.584   0.429   1.516 -0.1501 -0.1331 -0.0921
20193TIP3   OH282069   0.819   5.196   0.621  0.0677  0.1735  0.3701
20193TIP3    H182070   0.842   5.159   0.535 -2.0813 -3.5955  1.3133
20193TIP3    H282071   0.724   5.189   0.626  0.1576  0.3769  3.0456
20194TIP3   OH282072   1.092   0.229  16.346  0.6023 -0.7342  0.5139
20194TIP3    H182073   1.094   0.156  16.408  0.0238 -1.3298 -0.1574
20194TIP3    H282074   1.014   0.212  16.292 -0.6868  1.4529  1.6558
20195TIP3   OH282075   0.066   4.421  13.012 -0.6033 -0.3817 -0.2874
20195TIP3    H182076   0.121   4.489  12.973  0.9582 -0.4704  1.6489
20195TIP3    H282077  -0.018   4.428  12.966  0.0940  1.6992 -1.2997
20196TIP3   OH282078   0.053   4.827  11.893 -0.4188  0.2861 -0.4081
20196TIP3    H182079   0.063   4.875  11.975 -1.1066  0.5212 -0.4581
20196TIP3    H282080   0.098   4.744  11.908 -1.4135 -0.0871  0.5623
20197TIP3   OH282081   0.450   4.890  15.752 -0.2411 -0.2883  0.3440
20197TIP3    H182082   0.473   4.946  15.826  0.0389 -0.3722  0.3220
20197TIP3    H282083   0.385   4.829  15.786 -0.0544 -0.3785  0.5427
20198TIP3   OH282084   3.123   4.259   1.036 -0.3754 -0.2330  0.1739
20198TIP3    H182085   3.162   4.285   0.953  0.3040  0.8711  0.8262
20198TIP3    H282086   3.032   4.289   1.031 -0.1682  0.3916  0.0715
20199TIP3   OH282087   2.574   6.138  14.778 -0.0112 -0.0855 -0.4760
20199TIP3    H182088   2.492   6.187  14.774 -0.0224 -0.1885 -1.9645
20199TIP3    H282089   2.549   6.051  14.810 -0.3182  0.1992  0.0645
20200TIP3   OH282090   3.283   5.133   3.981 -0.3168 -0.0616 -0.4707
20200TIP3    H182091   3.295   5.210   3.925  0.6525 -1.2545 -1.9183
20200TIP3    H282092   3.196   5.145   4.019 -0.5447  1.2918 -1.3913
20201TIP3   OH282093   6.336   3.199  13.768 -0.0871  0.2194 -0.0993
20201TIP3    H182094   6.376   3.239  13.846 -0.8077  1.2724 -0.2760
20201TIP3    H282095   6.357   3.258  13.697  0.5599 -0.7422 -0.7262
20202TIP3   OH282096   5.218   2.539   2.360  0.0028  0.0955 -0.1399
20202TIP3    H182097   5.131   2.521   2.396 -0.2832  0.3604 -0.6854
20202TIP3    H282098   5.264   2.455   2.366  0.6187  0.5793  2.5739
20203TIP3   OH282099   2.137   5.150   1.852 -0.2372 -0.0651  0.2086
20203TIP3    H182100   2.053   5.108   1.868 -0.2879  0.0850  0.3404
20203TIP3    H282101   2.128   5.237   1.890 -0.6369  0.5820 -1.2946
20204TIP3   OH282102   5.421   4.695   4.058 -0.0496 -0.0308 -0.2451
20204TIP3    H182103   5.492   4.641   4.022  0.1595 -0.3670  0.6674
20204TIP3    H282104   5.423   4.775   4.006  0.1213 -0.5957 -1.1244
20205TIP3   OH282105   4.822   4.848   5.113 -0.0314 -0.3902 -0.1130
20205TIP3    H182106   4.744   4.902   5.121  0.1529 -0.1719  0.2115
20205TIP3    H282107   4.790   4.763   5.083 -0.2805  0.0078 -0.9907
20206TIP3   OH282108   4.502   6.329   3.017  0.0535 -0.1054 -0.1219
20206TIP3    H182109   4.409   6.335   3.040  0.4107 -1.0986  1.6501
20206TIP3    H282110   4.505   6.351   2.924 -2.1248 -1.2505 -0.5012
20207TIP3   OH282111   3.526   0.850   1.701  0.3805  0.4695  0.0746
20207TIP3    H182112   3.610   0.874   1.662  0.7544 -0.2624  0.4263
20207TIP3    H282113   3.480   0.933   1.712  0.2002  0.6712 -2.0850
20208TIP3   OH282114   6.000   3.431   5.712  0.0756 -0.6104 -0.4373
20208TIP3    H182115   5.992   3.339   5.735  0.3370 -0.8405 -1.2519
20208TIP3    H282116   6.092   3.443   5.690  0.1030 -0.0861 -0.0423
20209TIP3   OH282117   4.173   1.366   4.670 -0.3120  0.2764  0.3338
20209TIP3    H182118   4.163   1.320   4.753  0.9244 -0.2827  0.1797
20209TIP3    H282119   4.259   1.408   4.675  0.5172 -1.1483 -1.3275
20210TIP3   OH282120   2.658   6.071   3.101  0.0209 -0.1422  0.4288
20210TIP3    H182121   2.726   6.004   3.109  1.0909  1.0914  1.9564
20210TIP3    H282122   2.654   6.090   3.007  1.3164 -0.7238  0.2463
20211TIP3   OH282123   3.070   2.651   3.225  0.0944 -0.4588 -0.3137
20211TIP3    H182124   3.032   2.726   3.271  0.4115 -0.0329 -0.7388
20211TIP3    H282125   3.165   2.664   3.234  0.1670 -0.1583 -1.4180
20212TIP3   OH282126   6.439   3.006   3.811 -0.4998  0.6956  0.0807
20212TIP3    H182127   6.477   3.025   3.897  0.9481  0.4554 -0.4877
20212TIP3    H282128   6.414   3.092   3.777 -2.1845  0.6733  1.2353
20213TIP3   OH282129   0.046   3.549  10.835 -0.0088 -0.0073 -0.1731
20213TIP3    H182130   0.022   3.460  10.861  3.1850 -1.0150 -0.4272
20213TIP3    H282131  -0.019   3.573  10.770 -0.8886 -2.1894 -0.1653
20214TIP3   OH282132   1.199   4.471   4.951 -0.1113 -0.3618  0.4735
20214TIP3    H182133   1.221   4.380   4.928 -3.4430 -1.5386  1.5261
20214TIP3    H282134   1.178   4.512   4.867 -2.0084 -1.6151  0.3034
20215TIP3   OH282135   3.936   2.890  15.888 -0.2105 -0.3218  0.3979
20215TIP3    H182136   3.881   2.831  15.939  2.4358 -2.2798  1.0506
20215TIP3    H282137   4.019   2.892  15.935 -0.0942  3.6854  0.2126
20216TIP3   OH282138   4.982   1.558   4.686  0.0392  0.2232 -0.4303
20216TIP3    H182139   4.917   1.537   4.753  0.5899 -2.4681 -0.6647
20216TIP3    H282140   5.063   1.517   4.718  1.0446  1.5334 -1.2637
20217TIP3   OH282141   2.322   5.460   1.610  0.3430  0.0949  0.3051
20217TIP3    H182142   2.307   5.367   1.592  1.3013 -0.1263  0.6194
20217TIP3    H282143   2.329   5.500   1.523  0.5762 -0.2433  0.1637
20218TIP3   OH282144   6.372   0.679   6.315 -0.1671 -0.3673  0.1021
20218TIP3    H182145   6.443   0.728   6.272  0.1086 -0.1855  0.7495
20218TIP3    H282146   6.411   0.595   6.338 -0.2180 -0.3488  0.2628
20219TIP3   OH282147   2.852   5.064   2.489 -0.3812 -0.5180 -0.7671
20219TIP3    H182148   2.948   5.068   2.494 -0.4173  0.0793 -0.5914
20219TIP3    H282149   2.829   5.125   2.419 -0.6643 -0.3672 -0.5420
20220TIP3   OH282150   4.216   6.120  15.276  0.3604  0.4480 -0.4695
20220TIP3    H182151   4.142   6.087  15.327  0.8125  0.7811  0.4070
20220TIP3    H282152   4.178   6.188  15.220  0.2086  1.4821  0.8561
20221TIP3   OH282153   1.322   5.186  11.065 -0.5019 -0.5515  0.1889
20221TIP3    H182154   1.248   5.172  11.005  0.9001 -2.6163 -1.0820
20221TIP3    H282155   1.344   5.278  11.053 -1.4158 -0.4810 -1.0918
20222TIP3   OH282156   4.309   5.096   6.287 -0.1633 -0.3493 -0.0898
20222TIP3    H182157   4.280   5.067   6.374  0.7144  0.3044  0.4218
20222TIP3    H282158   4.241   5.064   6.228 -0.9458 -0.5002  0.8791
20223TIP3   OH282159   5.416   5.304   3.929 -0.3517  0.0221  0.4767
20223TIP3    H182160   5.465   5.236   3.882 -1.3952 -0.9926  0.8440
20223TIP3    H282161   5.396   5.370   3.863  2.2414  0.8725  0.4871
20224TIP3   OH282162   0.021   5.185   2.368 -0.3464  0.0402 -0.0395
20224TIP3    H182163  -0.004   5.254   2.306  0.5440 -0.3653 -0.8644
20224TIP3    H282164   0.061   5.232   2.441 -1.5533  0.5345  0.3181
20225TIP3   OH282165   1.450   0.545   4.004 -0.4255 -0.2404  0.6591
20225TIP3    H182166   1.425   0.632   4.036 -1.4403 -0.4084  0.3595
20225TIP3    H282167   1.522   0.561   3.943 -0.7542  0.4178  0.4382
20226TIP3   OH282168   3.848   5.265  14.459 -0.1474  0.3063  0.4331
20226TIP3    H182169   3.835   5.337  14.522 -1.2659  1.6160 -1.2637
20226TIP3    H282170   3.760   5.232  14.442  0.2219 -0.4910  0.0627
20227TIP3   OH282171   3.296   1.995  16.544 -0.3668 -0.5197  0.2601
20227TIP3    H182172   3.272   1.939  16.470 -1.7829 -0.9079  1.0002
20227TIP3    H282173   3.320   2.078  16.503  0.2168 -1.1666 -0.7329
20228TIP3   OH282174   2.840   3.004  14.305 -0.2268  0.4155 -0.1972
20228TIP3    H182175   2.790   2.981  14.227 -0.1085 -1.4769  0.2613
20228TIP3    H282176   2.785   2.975  14.378  0.6511  0.1013  0.3510
20229TIP3   OH282177   1.945   6.196  11.654 -0.2686  0.1129  0.3703
20229TIP3    H182178   1.996   6.136  11.708 -0.5066 -0.2371  0.2066
20229TIP3    H282179   1.958   6.282  11.695 -1.6822 -0.3702  1.8992
20230TIP3   OH282180   3.812   3.647   5.620  0.1334 -0.7149 -0.0734
20230TIP3    H182181   3.740   3.701   5.653 -0.1707 -1.5047  0.5491
20230TIP3    H282182   3.836   3.689   5.537 -0.2472  0.2549  0.2923
20231TIP3   OH282183   3.157   1.306   1.268 -0.0856  0.3218  0.4305
20231TIP3    H182184   3.184   1.349   1.187 -0.4737  1.1739  0.7442
20231TIP3    H282185   3.121   1.222   1.239  0.4159  0.3236 -0.2154
20232TIP3   OH282186   4.240   5.534   0.439 -0.9277  0.3647 -0.2491
20232TIP3    H182187   4.196   5.579   0.512 -0.2858  0.1724  0.2540
20232TIP3    H282188   4.260   5.604   0.377 -1.1818  0.5751 -0.0976
20233TIP3   OH282189   2.446   3.799   0.179  0.2958  0.4361 -0.1716
20233TIP3    H182190   2.361   3.767   0.211  0.6044 -0.9293 -0.6807
20233TIP3    H282191   2.455   3.760   0.092  2.1596 -0.7772  0.5241
20234TIP3   OH282192   5.934   2.749  14.406 -0.4147 -0.6239 -0.3021
20234TIP3    H182193   5.904   2.727  14.495 -1.6043 -0.6602 -0.7007
20234TIP3    H282194   6.006   2.689  14.389  0.0146 -0.4177  0.7611
20235TIP3   OH282195   3.869   6.793   0.182  0.7913  0.3960  0.3920
20235TIP3    H182196   3.877   6.874   0.231  2.0386  0.7953 -0.4530
20235TIP3    H282197   3.931   6.733   0.224 -1.1136 -0.5753  1.8832
20236TIP3   OH282198   6.772   2.997  13.176 -0.0912 -0.0360  0.4418
20236TIP3    H182199   6.776   2.934  13.105 -1.1720  0.8771 -0.4481
20236TIP3    H282200   6.708   3.062  13.147 -0.0674  0.6920  1.9638
20237TIP3   OH282201   2.531   1.294   1.100 -0.2463 -0.3383 -0.2058
20237TIP3    H182202   2.464   1.310   1.034 -0.0460 -1.5697 -0.7304
20237TIP3    H282203   2.489   1.315   1.183 -0.7913  0.3426 -0.6487
20238TIP3   OH282204   5.983   3.879  14.372 -0.0825 -0.1495  0.3490
20238TIP3    H182205   5.985   3.795  14.419 -0.5611 -0.7540 -0.6840
20238TIP3    H282206   5.965   3.855  14.281  1.3637  0.9710 -0.2544
20239TIP3   OH282207   5.067   6.120   1.762  0.1440  0.3266  0.3624
20239TIP3    H182208   5.124   6.196   1.748 -1.6618  0.9541 -4.2391
20239TIP3    H282209   5.125   6.045   1.753  1.5179  1.0209  2.7944
20240TIP3   OH282210   3.100   0.108  10.913  0.1575  0.2952  0.0063
20240TIP3    H182211   3.128   0.079  10.826 -2.9344  1.5393 -1.4921
20240TIP3    H282212   3.111   0.203  10.912  3.6330 -0.0075  2.3839
20241TIP3   OH282213   2.753   2.599   5.322  0.3336  0.5436  0.0985
20241TIP3    H182214   2.716   2.529   5.268  1.2009  0.8731 -0.9508
20241TIP3    H282215   2.821   2.557   5.374  0.7748  0.5698 -0.4465
20242TIP3   OH282216   1.256   3.212   0.124  0.6698 -0.2291 -0.7060
20242TIP3    H182217   1.218   3.137   0.078  0.6161 -0.2444 -0.6375
20242TIP3    H282218   1.295   3.174   0.203  3.5923 -0.6652 -2.2908
20243TIP3   OH282219   5.512   1.163   2.472 -0.0561  0.1829  0.6482
20243TIP3    H182220   5.563   1.229   2.426 -0.7596  0.6102  0.4771
20243TIP3    H282221   5.447   1.133   2.409 -0.6350  0.3307  1.1692
20244TIP3   OH282222   2.562   6.213   6.415 -0.0375  0.5849 -0.2433
20244TIP3    H182223   2.567   6.273   6.490 -0.0595  0.2589  0.0207
20244TIP3    H282224   2.653   6.188   6.399 -0.2351 -1.2282  1.2138
20245TIP3   OH282225   4.194   4.509  13.593  0.4570  0.4688  0.2052
20245TIP3    H182226   4.146   4.517  13.676  0.6750 -0.5141  0.4337
20245TIP3    H282227   4.126   4.497  13.527  0.3556 -0.6016  0.4877
20246TIP3   OH282228   1.214   0.437   2.413  0.9996  0.6851  0.1387
20246TIP3    H182229   1.185   0.484   2.491  0.7567 -0.3114  0.6473
20246TIP3    H282230   1.178   0.349   2.422 -0.9058  1.1602 -2.1671
20247TIP3   OH282231   4.973   1.902   4.723 -0.5538 -0.0746  0.7729
20247TIP3    H182232   5.013   1.858   4.648 -1.0548 -1.3492  1.2443
20247TIP3    H282233   4.879   1.901   4.704 -0.5278  1.3892  0.4809
20248TIP3   OH282234   6.727   5.557  12.276  0.0144 -0.9726  0.1041
20248TIP3    H182235   6.654   5.592  12.327  0.7131  0.1809  0.3102
20248TIP3    H282236   6.716   5.462  12.282 -0.0043 -0.8579  2.2752
20249TIP3   OH282237   1.311   2.432  14.960  0.4239  0.0006  0.1263
20249TIP3    H182238   1.318   2.449  15.054  1.2244  0.5974 -0.0267
20249TIP3    H282239   1.217   2.425  14.943  0.2561  0.3466  0.8943
20250TIP3   OH282240   3.395   6.134   2.284 -0.3866 -0.0077  0.2219
20250TIP3    H182241   3.413   6.208   2.342  0.1249  2.8851 -3.4347
20250TIP3    H282242   3.477   6.085   2.280  0.5045  1.5200 -0.4468
20251TIP3   OH282243   2.443   0.214   5.009  0.1136  0.3195  0.6155
20251TIP3    H182244   2.414   0.300   4.978 -1.9712 -0.7616 -0.5410
20251TIP3    H282245   2.529   0.202   4.968  0.1302  1.5713  0.2504
20252TIP3   OH282246   1.135   2.960   0.125 -0.1458  0.1930 -0.1193
20252TIP3    H182247   1.109   2.869   0.113 -2.3426  1.0713 -2.4666
20252TIP3    H282248   1.094   2.986   0.208 -0.5218 -0.5900 -0.0584
20253TIP3   OH282249   3.836   6.306  12.166 -0.0372 -0.6813 -0.0155
20253TIP3    H182250   3.741   6.296  12.165 -0.0903 -0.3199 -2.1139
20253TIP3    H282251   3.870   6.217  12.151 -0.1460 -0.3893 -2.2419
20254TIP3   OH282252   4.312   1.502  11.762  0.2218 -0.1217  0.1186
20254TIP3    H182253   4.312   1.597  11.778  1.1256 -0.4758  2.4899
20254TIP3    H282254   4.361   1.492  11.681  1.2914  1.3629  0.5479
20255TIP3   OH282255   1.749   2.998   5.448  0.0538  0.5893 -0.6439
20255TIP3    H182256   1.801   3.079   5.453  1.6284 -0.5033  1.0677
20255TIP3    H282257   1.812   2.930   5.428 -1.1347 -0.3653 -1.1827
20256TIP3   OH282258   0.057   3.384  16.700 -0.1765 -0.1293  0.3563
20256TIP3    H182259  -0.037   3.374  16.714  0.2815  0.3464  4.2150
20256TIP3    H282260   0.064   3.440  16.623 -3.0468  0.2555  0.3314
20257TIP3   OH282261   4.532   1.183   6.086 -0.4700 -0.0357 -0.3275
20257TIP3    H182262   4.505   1.254   6.028  0.9315 -0.7731 -1.9367
20257TIP3    H282263   4.612   1.215   6.129 -1.0879  0.2161  0.6609
20258TIP3   OH282264   4.886   5.092   1.093  0.3130 -0.6715  1.5067
20258TIP3    H182265   4.800   5.049   1.101  0.1122 -0.2333  1.7249
20258TIP3    H282266   4.868   5.173   1.046  0.8312 -1.2330  0.3291
20259TIP3   OH282267   5.507   0.114   3.592  0.5864 -0.2938 -0.3391
20259TIP3    H182268   5.454   0.037   3.612 -2.3794  1.7806  0.0575
20259TIP3    H282269   5.539   0.144   3.677  0.4739 -0.2069 -0.3272
20260TIP3   OH282270   5.868   5.458   1.712  0.2909  0.2137  0.3912
20260TIP3    H182271   5.796   5.396   1.724  0.2167  0.3982  0.8916
20260TIP3    H282272   5.947   5.406   1.723  0.2271  0.6531  3.0681
20261TIP3   OH282273   3.341   0.337  10.963 -0.7430 -0.1217  0.4427
20261TIP3    H182274   3.247   0.334  10.981 -0.8876  0.4061 -0.2159
20261TIP3    H282275   3.358   0.256  10.913 -1.7563  2.0391 -3.6297
20262TIP3   OH282276   3.251   0.742   3.224  0.1455 -0.9797 -0.3272
20262TIP3    H182277   3.168   0.788   3.214 -0.0373 -1.1463  0.3869
20262TIP3    H282278   3.231   0.668   3.281  0.7015 -1.2452 -0.4703
20263TIP3   OH282279   2.450   1.756   2.968 -0.3673 -0.0035 -0.6568
20263TIP3    H182280   2.371   1.741   2.915 -0.8025  0.2121 -0.0805
20263TIP3    H282281   2.522   1.749   2.906 -0.6892 -2.1985 -0.8424
20264TIP3   OH282282   0.725   4.747   3.376 -0.2921  0.3820  0.3448
20264TIP3    H182283   0.654   4.715   3.432  0.3605 -0.0636  0.9159
20264TIP3    H282284   0.804   4.708   3.413  0.1444  0.1069 -0.8701
20265TIP3   OH282285   6.729   0.354  15.259  0.2186  0.3775  0.2074
20265TIP3    H182286   6.745   0.295  15.185 -1.7691  0.1459 -0.0520
20265TIP3    H282287   6.688   0.431  15.220 -0.7577  0.2954  1.0632
20266TIP3   OH282288   4.356   1.010  16.779 -0.0864  0.6564  0.4188
20266TIP3    H182289   4.281   1.065  16.801  0.9323  1.3688  2.2535
20266TIP3    H282290   4.426   1.041  16.837  1.9993  0.8659 -2.0716
20267TIP3   OH282291   4.398   1.094  15.224 -0.3434  0.2140  0.3037
20267TIP3    H182292   4.460   1.072  15.294 -1.0814  0.7480  1.1298
20267TIP3    H282293   4.316   1.052  15.250 -0.8586  1.1541  0.2166
20268TIP3   OH282294   2.380   1.044  13.087  0.6919 -0.2840  0.2807
20268TIP3    H182295   2.335   0.977  13.139  0.4951 -0.8504 -0.6087
20268TIP3    H282296   2.339   1.126  13.113 -0.2344 -0.6974  0.1280
20269TIP3   OH282297   3.988   2.596  11.091 -0.1027  0.3633 -0.1580
20269TIP3    H182298   4.009   2.569  11.002  0.3151  2.2499 -0.6515
20269TIP3    H282299   4.020   2.525  11.147  3.1573  0.9462 -1.2274
20270TIP3   OH282300   4.931   3.198  10.570  0.0245 -0.6265  0.4035
20270TIP3    H182301   4.956   3.263  10.636 -0.7295  1.3212 -1.1717
20270TIP3    H282302   4.845   3.227  10.539  0.5020 -1.3117 -1.6473
20271TIP3   OH282303   4.121   0.188  13.108 -0.5090  0.4432 -0.2816
20271TIP3    H182304   4.041   0.240  13.112 -0.2303  0.8034  0.7697
20271TIP3    H282305   4.191   0.249  13.133  0.1745  0.2867 -1.7383
20272TIP3   OH282306   2.918   2.079   4.385  0.2062 -0.5130 -0.0606
20272TIP3    H182307   2.875   2.087   4.300  0.8888 -0.2123 -0.3761
20272TIP3    H282308   2.877   2.146   4.439 -0.5693 -1.0218 -0.0044
20273TIP3   OH282309   0.457   2.361  15.505  0.5512 -0.0149 -0.2016
20273TIP3    H182310   0.513   2.286  15.520  0.8728  0.0115 -1.2455
20273TIP3    H282311   0.369   2.331  15.528  0.6855 -0.6948 -0.5919
20274TIP3   OH282312   0.771   1.178   0.252  0.6399  0.0301 -0.2312
20274TIP3    H182313   0.779   1.263   0.210  0.3257  0.1725  0.0010
20274TIP3    H282314   0.752   1.118   0.180  0.3391  0.2383 -0.3276
20275LIG      O82315   1.408   4.903  16.666 -1.1987 -0.4344 -0.0565
20275LIG     C182316   1.505   4.983  16.606  0.3249 -0.5869 -0.7411
20275LIG     C282317   1.645   4.968  16.672 -0.2052 -0.2972 -0.6372
20275LIG     C382318   1.506   4.947  16.463 -0.4864 -0.4607  0.7172
20275LIG     H182319   1.473   5.089  16.616  1.4930 -0.3480  0.6929
20275LIG     H282320   1.663   4.859  16.679 -0.0625 -0.1006  3.0039
20275LIG     H382321   1.637   5.018  16.771 -1.5906 -3.0986  0.7176
20275LIG     H482322   1.727   5.008  16.608 -2.2433  1.5655 -2.1924
20275LIG     H582323   1.406   4.973  16.422 -0.5851  0.3286  1.4256
20275LIG     H682324   1.545   4.844  16.447  2.4332  0.6737  0.2052
20275LIG     H782325   1.580   5.012  16.412 -0.0866 -1.0619  0.5293
20275LIG     H882326   1.442   4.813  16.667  0.6882  0.2628  1.1577
   6.82013   6.82013  17.29240
